RxCoord=0.00000 DE=55.32                                                
Freq      RB3LYP                                                      6-31++G(d,p)        
Number of atoms                            I                7
Info1-9                                    I   N=           9
          16          16           0           0           0         100
           6          18        -502
Full Title                                 C   N=           2
RxCoord=0.00000 DE=55.32
Route                                      C   N=           6
#p b3lyp 6-31++g(d,p) scf=verytight NoSymm freq=noraman int=
ultrafine   
Charge                                     I               -1
Multiplicity                               I                1
Number of electrons                        I               40
Number of alpha electrons                  I               20
Number of beta electrons                   I               20
Number of basis functions                  I               98
Number of independent functions            I               98
Number of point charges in /Mol/           I                0
Number of translation vectors              I                0
Atomic numbers                             I   N=           7
           6          17           1           1           1           6
           7
Nuclear charges                            R   N=           7
  6.00000000E+00  1.70000000E+01  1.00000000E+00  1.00000000E+00  1.00000000E+00
  6.00000000E+00  7.00000000E+00
Current cartesian coordinates              R   N=          21
 -3.64565964E-02  9.44863062E-06 -2.74010288E-04 -4.22070330E+00 -3.77945225E-06
  1.28501376E-04  1.34066620E-01  4.74321257E-03 -2.02642135E+00  1.34282049E-01
  1.75240540E+00  1.01680305E+00  1.34297166E-01 -1.75711459E+00  1.00860730E+00
  4.30762314E+00  1.70075351E-05 -4.34637009E-04  6.53175898E+00 -1.51178090E-05
  4.38416461E-04
Number of symbols in /Mol/                 I                0
Force Field                                I                0
Atom Types                                 C   N=           7
                                                            
                        
Int Atom Types                             I   N=           7
           0           0           0           0           0           0
           0
MM charges                                 R   N=           7
  0.00000000E+00  0.00000000E+00  0.00000000E+00  0.00000000E+00  0.00000000E+00
  0.00000000E+00  0.00000000E+00
Integer atomic weights                     I   N=           7
          12          35           1           1           1          12
          14
Real atomic weights                        R   N=           7
  1.20000000E+01  3.49688527E+01  1.00782504E+00  1.00782504E+00  1.00782504E+00
  1.20000000E+01  1.40030740E+01
Atom fragment info                         I   N=           7
           0           0           0           0           0           0
           0
Atom residue num                           I   N=           7
           0           0           0           0           0           0
           0
Nuclear spins                              I   N=           7
           0           3           1           1           1           0
           2
Nuclear ZEff                               R   N=           7
 -3.60000000E+00 -1.42400000E+01 -1.00000000E+00 -1.00000000E+00 -1.00000000E+00
 -3.60000000E+00 -4.55000000E+00
Nuclear ZNuc                               R   N=           7
  6.00000000E+00  1.70000000E+01  1.00000000E+00  1.00000000E+00  1.00000000E+00
  6.00000000E+00  7.00000000E+00
Nuclear QMom                               R   N=           7
  0.00000000E+00 -8.16500000E+00  0.00000000E+00  0.00000000E+00  0.00000000E+00
  0.00000000E+00  2.04400000E+00
Nuclear GFac                               R   N=           7
  0.00000000E+00  8.21874000E-01  2.79284600E+00  2.79284600E+00  2.79284600E+00
  0.00000000E+00  4.03761000E-01
MicOpt                                     I   N=           7
          -1          -1          -1          -1          -1          -1
          -1
Number of residues                         I                0
Number of secondary structures             I                0
Number of contracted shells                I               33
Number of primitive shells                 I               72
Pure/Cartesian d shells                    I                1
Pure/Cartesian f shells                    I                0
Highest angular momentum                   I                2
Largest degree of contraction              I                6
Shell types                                I   N=          33
           0          -1          -1          -1           2           0
          -1          -1          -1          -1           2           0
           0           0           1           0           0           0
           1           0           0           0           1           0
          -1          -1          -1           2           0          -1
          -1          -1           2
Number of primitives per shell             I   N=          33
           6           3           1           1           1           6
           6           3           1           1           1           3
           1           1           1           3           1           1
           1           3           1           1           1           6
           3           1           1           1           6           3
           1           1           1
Shell to atom map                          I   N=          33
           1           1           1           1           1           2
           2           2           2           2           2           3
           3           3           3           4           4           4
           4           5           5           5           5           6
           6           6           6           6           7           7
           7           7           7
Primitive exponents                        R   N=          72
  3.04752488E+03  4.57369518E+02  1.03948685E+02  2.92101553E+01  9.28666296E+00
  3.16392696E+00  7.86827235E+00  1.88128854E+00  5.44249258E-01  1.68714478E-01
  4.38000000E-02  8.00000000E-01  2.51801000E+04  3.78035000E+03  8.60474000E+02
  2.42145000E+02  7.73349000E+01  2.62470000E+01  4.91765000E+02  1.16984000E+02
  3.74153000E+01  1.37834000E+01  5.45215000E+00  2.22588000E+00  3.18649000E+00
  1.14427000E+00  4.20377000E-01  1.42657000E-01  4.83000000E-02  7.50000000E-01
  1.87311370E+01  2.82539436E+00  6.40121692E-01  1.61277759E-01  3.60000000E-02
  1.10000000E+00  1.87311370E+01  2.82539436E+00  6.40121692E-01  1.61277759E-01
  3.60000000E-02  1.10000000E+00  1.87311370E+01  2.82539436E+00  6.40121692E-01
  1.61277759E-01  3.60000000E-02  1.10000000E+00  3.04752488E+03  4.57369518E+02
  1.03948685E+02  2.92101553E+01  9.28666296E+00  3.16392696E+00  7.86827235E+00
  1.88128854E+00  5.44249258E-01  1.68714478E-01  4.38000000E-02  8.00000000E-01
  4.17351146E+03  6.27457911E+02  1.42902093E+02  4.02343293E+01  1.28202129E+01
  4.39043701E+00  1.16263619E+01  2.71627981E+00  7.72218397E-01  2.12031498E-01
  6.39000000E-02  8.00000000E-01
Contraction coefficients                   R   N=          72
  1.83473713E-03  1.40373228E-02  6.88426223E-02  2.32184443E-01  4.67941348E-01
  3.62311985E-01 -1.19332420E-01 -1.60854152E-01  1.14345644E+00  1.00000000E+00
  1.00000000E+00  1.00000000E+00  1.83295985E-03  1.40341988E-02  6.90973943E-02
  2.37451980E-01  4.83033960E-01  3.39855972E-01 -2.29739142E-03 -3.07137189E-02
 -1.12528069E-01  4.50163278E-02  5.89353363E-01  4.65206287E-01 -2.51828028E-01
  6.15892514E-02  1.06018433E+00  1.00000000E+00  1.00000000E+00  1.00000000E+00
  3.34946043E-02  2.34726953E-01  8.13757326E-01  1.00000000E+00  1.00000000E+00
  1.00000000E+00  3.34946043E-02  2.34726953E-01  8.13757326E-01  1.00000000E+00
  1.00000000E+00  1.00000000E+00  3.34946043E-02  2.34726953E-01  8.13757326E-01
  1.00000000E+00  1.00000000E+00  1.00000000E+00  1.83473713E-03  1.40373228E-02
  6.88426223E-02  2.32184443E-01  4.67941348E-01  3.62311985E-01 -1.19332420E-01
 -1.60854152E-01  1.14345644E+00  1.00000000E+00  1.00000000E+00  1.00000000E+00
  1.83477216E-03  1.39946270E-02  6.85865518E-02  2.32240873E-01  4.69069948E-01
  3.60455199E-01 -1.14961182E-01 -1.69117479E-01  1.14585195E+00  1.00000000E+00
  1.00000000E+00  1.00000000E+00
P(S=P) Contraction coefficients            R   N=          72
  0.00000000E+00  0.00000000E+00  0.00000000E+00  0.00000000E+00  0.00000000E+00
  0.00000000E+00  6.89990666E-02  3.16423961E-01  7.44308291E-01  1.00000000E+00
  1.00000000E+00  0.00000000E+00  0.00000000E+00  0.00000000E+00  0.00000000E+00
  0.00000000E+00  0.00000000E+00  0.00000000E+00  3.98940088E-03  3.03177067E-02
  1.29880029E-01  3.27951072E-01  4.53527100E-01  2.52154056E-01 -1.42993147E-02
  3.23572333E-01  7.43507765E-01  1.00000000E+00  1.00000000E+00  0.00000000E+00
  0.00000000E+00  0.00000000E+00  0.00000000E+00  0.00000000E+00  0.00000000E+00
  0.00000000E+00  0.00000000E+00  0.00000000E+00  0.00000000E+00  0.00000000E+00
  0.00000000E+00  0.00000000E+00  0.00000000E+00  0.00000000E+00  0.00000000E+00
  0.00000000E+00  0.00000000E+00  0.00000000E+00  0.00000000E+00  0.00000000E+00
  0.00000000E+00  0.00000000E+00  0.00000000E+00  0.00000000E+00  6.89990666E-02
  3.16423961E-01  7.44308291E-01  1.00000000E+00  1.00000000E+00  0.00000000E+00
  0.00000000E+00  0.00000000E+00  0.00000000E+00  0.00000000E+00  0.00000000E+00
  0.00000000E+00  6.75797439E-02  3.23907296E-01  7.40895140E-01  1.00000000E+00
  1.00000000E+00  0.00000000E+00
Coordinates of each shell                  R   N=          99
 -3.64565964E-02  9.44863062E-06 -2.74010288E-04 -3.64565964E-02  9.44863062E-06
 -2.74010288E-04 -3.64565964E-02  9.44863062E-06 -2.74010288E-04 -3.64565964E-02
  9.44863062E-06 -2.74010288E-04 -3.64565964E-02  9.44863062E-06 -2.74010288E-04
 -4.22070330E+00 -3.77945225E-06  1.28501376E-04 -4.22070330E+00 -3.77945225E-06
  1.28501376E-04 -4.22070330E+00 -3.77945225E-06  1.28501376E-04 -4.22070330E+00
 -3.77945225E-06  1.28501376E-04 -4.22070330E+00 -3.77945225E-06  1.28501376E-04
 -4.22070330E+00 -3.77945225E-06  1.28501376E-04  1.34066620E-01  4.74321257E-03
 -2.02642135E+00  1.34066620E-01  4.74321257E-03 -2.02642135E+00  1.34066620E-01
  4.74321257E-03 -2.02642135E+00  1.34066620E-01  4.74321257E-03 -2.02642135E+00
  1.34282049E-01  1.75240540E+00  1.01680305E+00  1.34282049E-01  1.75240540E+00
  1.01680305E+00  1.34282049E-01  1.75240540E+00  1.01680305E+00  1.34282049E-01
  1.75240540E+00  1.01680305E+00  1.34297166E-01 -1.75711459E+00  1.00860730E+00
  1.34297166E-01 -1.75711459E+00  1.00860730E+00  1.34297166E-01 -1.75711459E+00
  1.00860730E+00  1.34297166E-01 -1.75711459E+00  1.00860730E+00  4.30762314E+00
  1.70075351E-05 -4.34637009E-04  4.30762314E+00  1.70075351E-05 -4.34637009E-04
  4.30762314E+00  1.70075351E-05 -4.34637009E-04  4.30762314E+00  1.70075351E-05
 -4.34637009E-04  4.30762314E+00  1.70075351E-05 -4.34637009E-04  6.53175898E+00
 -1.51178090E-05  4.38416461E-04  6.53175898E+00 -1.51178090E-05  4.38416461E-04
  6.53175898E+00 -1.51178090E-05  4.38416461E-04  6.53175898E+00 -1.51178090E-05
  4.38416461E-04  6.53175898E+00 -1.51178090E-05  4.38416461E-04
Num ILSW                                   I              100
ILSW                                       I   N=         100
           0           1           0           0           2           0
           0           0           0           0         402          -1
           5           0           0           0           2           0
           0           0           0           0           1           0
           1           1           0           0           0           0
           0           0      100000           0          -1           0
           0           0           0           0           0           0
           0           0           0           1           0           0
           0 -2000000000           1           0           0           0
           0           0           4          52           0           0
           0           0           5           0           0           0
           0           0           0           7           0           1
           0           0           0           0           0           0
           0           0           0           0           0           0
           0           0           0           0           0           0
           0           0           0           0           0           0
           0           0           0           0
Num RLSW                                   I               52
RLSW                                       R   N=          52
  8.00000000E-01  7.20000000E-01  1.00000000E+00  8.10000000E-01  2.00000000E-01
  0.00000000E+00  0.00000000E+00  1.00000000E+00  0.00000000E+00  0.00000000E+00
  0.00000000E+00  0.00000000E+00  1.00000000E+00  0.00000000E+00  0.00000000E+00
  0.00000000E+00  0.00000000E+00  1.00000000E+00  0.00000000E+00  0.00000000E+00
  0.00000000E+00  0.00000000E+00  1.00000000E+00  0.00000000E+00  0.00000000E+00
  0.00000000E+00  0.00000000E+00  1.00000000E+00  0.00000000E+00  0.00000000E+00
  0.00000000E+00  0.00000000E+00  1.00000000E+00  0.00000000E+00  0.00000000E+00
  0.00000000E+00  0.00000000E+00  0.00000000E+00  1.00000000E+00  1.00000000E+00
  0.00000000E+00  1.00000000E+00  0.00000000E+00  0.00000000E+00  0.00000000E+00
  0.00000000E+00  0.00000000E+00  0.00000000E+00  0.00000000E+00  0.00000000E+00
  0.00000000E+00  0.00000000E+00
MxBond                                     I                3
NBond                                      I   N=           7
           3           0           1           1           1           1
           1
IBond                                      I   N=          21
           3           4           5           0           0           0
           1           0           0           1           0           0
           1           0           0           7           0           0
           6           0           0
RBond                                      R   N=          21
  1.00000000E+00  1.00000000E+00  1.00000000E+00  0.00000000E+00  0.00000000E+00
  0.00000000E+00  1.00000000E+00  0.00000000E+00  0.00000000E+00  1.00000000E+00
  0.00000000E+00  0.00000000E+00  1.00000000E+00  0.00000000E+00  0.00000000E+00
  3.00000000E+00  0.00000000E+00  0.00000000E+00  3.00000000E+00  0.00000000E+00
  0.00000000E+00
Virial Ratio                               R      2.004708279557163E+00
SCF Energy                                 R     -5.929869385465139E+02
Total Energy                               R     -5.929869385465139E+02
RMS Force                                  R      7.886839865197236E-04
RMS Density                                R      2.102425416883830E-09
NImag                                      I                1
Job Status                                 I                1
Nuclear derivative order                   I                2
External E-field                           R   N=          35
  0.00000000E+00  0.00000000E+00  0.00000000E+00  0.00000000E+00  0.00000000E+00
  0.00000000E+00  0.00000000E+00  0.00000000E+00  0.00000000E+00  0.00000000E+00
  0.00000000E+00  0.00000000E+00  0.00000000E+00  0.00000000E+00  0.00000000E+00
  0.00000000E+00  0.00000000E+00  0.00000000E+00  0.00000000E+00  0.00000000E+00
  0.00000000E+00  0.00000000E+00  0.00000000E+00  0.00000000E+00  0.00000000E+00
  0.00000000E+00  0.00000000E+00  0.00000000E+00  0.00000000E+00  0.00000000E+00
  0.00000000E+00  0.00000000E+00  0.00000000E+00  0.00000000E+00  0.00000000E+00
IOpCl                                      I                0
IROHF                                      I                0
Alpha Orbital Energies                     R   N=          98
 -1.01340444E+02 -1.41375659E+01 -1.01132576E+01 -1.00097719E+01 -9.25519191E+00
 -7.01602256E+00 -7.01118289E+00 -7.01118286E+00 -6.92071734E-01 -6.21399418E-01
 -5.43043660E-01 -3.08119132E-01 -3.08105022E-01 -2.38155391E-01 -1.82322056E-01
 -1.39075360E-01 -1.39075188E-01 -1.26391358E-01 -1.26391054E-01 -1.01403491E-01
  1.11314870E-01  1.25846939E-01  1.48695005E-01  1.48696528E-01  1.58717166E-01
  1.91582126E-01  2.00346680E-01  2.00352712E-01  2.24584526E-01  2.24585499E-01
  2.43876925E-01  2.43880210E-01  2.51194925E-01  2.55850704E-01  2.55995669E-01
  2.56000821E-01  3.08660827E-01  3.41969983E-01  3.41973432E-01  3.69216650E-01
  3.69221811E-01  3.70693650E-01  3.84195396E-01  4.52851604E-01  4.67388136E-01
  7.44866697E-01  7.76555482E-01  7.76565010E-01  7.79174723E-01  8.04747680E-01
  8.04755920E-01  8.65462464E-01  8.65463402E-01  8.95179258E-01  9.62159955E-01
  9.92472547E-01  1.05056758E+00  1.05057538E+00  1.08867996E+00  1.08868072E+00
  1.10329423E+00  1.10330366E+00  1.13192398E+00  1.16465097E+00  1.16465414E+00
  1.24098211E+00  1.31074610E+00  1.40703097E+00  1.51572775E+00  1.60555373E+00
  1.60556935E+00  1.73790270E+00  1.73790372E+00  1.75841209E+00  1.75841465E+00
  1.82758466E+00  2.12415488E+00  2.13168225E+00  2.13175236E+00  2.16080215E+00
  2.16080864E+00  2.17573297E+00  2.54016319E+00  2.66126441E+00  2.66130866E+00
  2.79214409E+00  2.79214485E+00  2.83192549E+00  2.89001486E+00  2.89010359E+00
  3.24396164E+00  3.46328003E+00  3.58718789E+00  3.58727055E+00  4.18996019E+00
  4.45510427E+00  4.50365971E+00  4.59683299E+00
Alpha MO coefficients                      R   N=        9604
 -1.78961193E-06 -7.77327616E-05 -3.65030600E-07  2.43085993E-11 -5.78366085E-10
  2.87985062E-05 -1.34724090E-04 -3.96829404E-10  1.35968281E-08 -1.34500842E-04
  1.56989383E-04  2.68384226E-11 -5.01204185E-09  7.98381287E-05  8.13454623E-06
  8.13184773E-06  2.13367519E-10 -6.93379391E-09  8.49582868E-12  9.95997616E-01
  1.51498934E-02  1.73653633E-05  5.53052768E-11 -2.04797312E-09 -2.10578634E-02
 -6.73156190E-06 -4.65653661E-11  1.15657882E-09  1.86219497E-03 -5.72596058E-05
 -1.30667382E-10  4.82698902E-09 -1.72318734E-04  4.67925686E-05  2.67341271E-10
 -8.40139696E-09  7.50388526E-03  7.52696888E-03  7.52696895E-03 -7.42883995E-11
  2.23079660E-09  1.01891508E-12 -5.08442453E-06 -2.05320966E-05  6.19374754E-05
  2.50224726E-05  1.05528967E-09 -4.20115188E-07 -5.09007054E-06 -2.05269785E-05
  6.19394921E-05  2.50234835E-05  3.61710025E-07  2.07366789E-07 -5.08999080E-06
 -2.05268372E-05  6.19392148E-05  2.50234793E-05 -3.62486540E-07  2.05652587E-07
 -1.51835358E-06 -5.56107993E-06  2.94984843E-06  1.28988551E-10 -3.33912373E-09
 -1.43354976E-04 -1.80821847E-04  1.29049307E-09 -3.64659027E-08 -2.43139476E-04
 -1.14830242E-05  4.17022350E-10 -9.33042120E-09 -7.63874197E-06 -1.21546183E-06
 -1.21543502E-06  2.90843660E-10 -7.63047866E-09 -4.76973240E-13 -2.89766019E-06
 -1.30426519E-05 -4.39079872E-07 -9.67110076E-11  2.46296360E-09  1.90223264E-04
 -9.14756101E-05  1.85403937E-09 -4.96444050E-08  1.60253801E-04 -1.59411380E-05
  7.35558263E-10 -2.04258180E-08  2.75684201E-06 -7.15704205E-06 -7.15701820E-06
 -2.54931735E-10  6.85835479E-09 -1.91868580E-14 -7.67974969E-06 -7.78360421E-06
 -3.47141908E-05 -1.36332281E-10  2.93577447E-09  1.40857089E-04  8.11350457E-05
  6.07648774E-10 -2.66840273E-08  1.65695877E-03  8.42155334E-04  6.78364572E-09
 -1.89124234E-07 -3.09613403E-05 -1.55392612E-05 -1.55365101E-05 -1.81859600E-10
  3.00268394E-09  3.03701200E-11  1.39531466E-07  1.39831033E-06  8.17598904E-07
  1.36863895E-11 -2.67107558E-10  5.26566766E-06 -4.80575161E-06 -7.86825879E-11
  1.48291658E-09 -5.15726700E-05  1.68027196E-05  2.82273110E-10 -4.98232389E-09
  3.98311702E-04  8.21117302E-05 -1.91170774E-09  4.74081264E-08  5.74052881E-06
  6.72656581E-07  6.72566791E-07 -2.73395918E-11  1.14544025E-09  2.86849005E-12
  3.83178177E-07 -1.11893663E-04 -1.38372585E-04 -9.58573559E-06  1.27934984E-08
 -5.50654278E-06  3.80962179E-07 -1.11830970E-04 -1.38501526E-04 -9.58009401E-06
  4.75863451E-06  2.76457384E-06  3.80719626E-07 -1.11829073E-04 -1.38508278E-04
 -9.57987372E-06 -4.77147125E-06  2.74222704E-06  8.33128577E-05  2.08633410E-04
 -3.45984614E-04  4.61334673E-09 -1.25359748E-07 -1.37219090E-04 -2.76225375E-04
  6.26140268E-09 -1.69553272E-07  2.80381060E-04  1.64065522E-03 -1.38624970E-08
  3.80501600E-07 -8.24203086E-04 -7.43692810E-06 -7.43712073E-06  1.34616521E-08
 -3.65875287E-07  2.81401947E-13  9.92709032E-01  3.44645324E-02 -1.53950961E-03
  2.24384069E-08 -6.10012906E-07  5.03169627E-03  2.26719142E-04 -3.66639086E-09
  9.99588691E-08 -3.04304402E-03 -1.01434663E-04 -1.99184035E-09  5.31081745E-08
 -7.64907899E-03 -8.41131974E-03 -8.41131990E-03 -1.25645600E-08  3.41466521E-07
 -1.05959654E-11  9.93111972E-01  4.92294350E-02  1.30548810E-05 -1.00847723E-10
 -5.86314373E-08 -1.65279161E-02 -1.00909131E-03 -8.03867685E-09  4.81062086E-07
  3.38229874E-03 -1.32876710E-03 -1.32946827E-08  4.47806265E-07 -9.29349714E-03
 -8.44042149E-03 -8.44052988E-03 -4.52877424E-09  9.25549513E-08 -1.20338681E-09
 -6.69283488E-06 -4.51875368E-05 -3.22444673E-05 -9.83907397E-11  7.67946959E-10
 -3.06654389E-04  1.49321310E-04  4.64488039E-10  6.99122150E-10  1.32217895E-03
  8.67798101E-04  2.71423326E-09 -1.44727469E-07 -1.97404116E-03 -9.64136716E-04
 -9.66309413E-10  4.89326929E-08  2.32737961E-04 -8.85732304E-05 -8.85706734E-05
  1.24284048E-09 -5.09684225E-08 -5.97059232E-11 -1.89960254E-04  3.05407408E-03
 -7.58998235E-04  6.49737498E-05  5.09698250E-07 -2.18020022E-04 -1.90054614E-04
  3.05370333E-03 -7.59459038E-04  6.50217875E-05  1.88596732E-04  1.09451047E-04
 -1.90058878E-04  3.05370621E-03 -7.59469022E-04  6.50233743E-05 -1.89105053E-04
  1.08569090E-04  6.38881841E-06 -2.39069643E-04  4.81431298E-05  7.31358454E-10
 -3.09575546E-08 -2.31138179E-03 -4.05612401E-03  2.92770510E-08 -7.63758921E-07
  1.90587635E-04  3.40388358E-04  1.04905293E-08 -2.21837001E-07  5.57437696E-05
 -4.30385868E-05 -4.30342465E-05  4.48273584E-09 -1.19799666E-07  1.68358166E-10
 -8.26765970E-05 -3.62090854E-04  2.95578272E-05 -3.52342026E-09  9.72158373E-08
  4.42485981E-03 -1.71169598E-03  3.99360899E-08 -1.09505302E-06  6.39401954E-04
 -3.53429927E-04 -6.45143629E-09  1.24457627E-07 -6.89374324E-05 -1.75279929E-04
 -1.75279985E-04 -2.72439511E-09  7.80152384E-08 -2.68213950E-12 -7.63591736E-05
 -2.27422267E-04 -2.96689183E-05  3.89489589E-10 -4.22997950E-09  7.64348278E-04
  8.79260448E-04 -1.08833392E-10 -3.10558851E-08  5.27746130E-03  1.39386544E-02
  3.53867374E-08 -9.76908323E-07  1.32735189E-04 -4.40780581E-05 -4.40893236E-05
  3.82272673E-10 -5.17626542E-09 -8.56485115E-11  1.98747579E-07  8.34610727E-06
  1.28578400E-05  9.23274488E-11 -2.58548068E-09  1.43485707E-05 -8.80275539E-05
 -5.91092802E-10  1.63841176E-08 -3.89522969E-04  5.66291949E-04  2.78406728E-09
 -7.60242760E-08  1.04769740E-02  2.94028818E-03  1.25344621E-08 -4.14059401E-07
  7.19553454E-05 -4.62020585E-06 -4.61901241E-06  4.92455864E-10 -1.41600177E-08
  3.46698121E-11 -2.82503255E-05 -4.56217900E-04  3.61206346E-04 -1.70461334E-05
 -4.12936747E-08  1.76732995E-05 -2.82617090E-05 -4.56181888E-04  3.61948560E-04
 -1.70326699E-05 -1.52826545E-05 -8.86715390E-06 -2.82622157E-05 -4.56182679E-04
  3.61977231E-04 -1.70314494E-05  1.53240091E-05 -8.79575902E-06  9.92838799E-01
  4.94699669E-02  1.51623785E-03 -2.78675829E-08  7.52380097E-07 -1.02757356E-02
  6.50648302E-04  1.57315859E-08 -4.11847278E-07 -2.07040052E-02  5.46979710E-03
  5.79493857E-08 -1.39008790E-06 -8.48978582E-03 -9.71479362E-03 -9.71479344E-03
 -2.09368564E-08  5.69102264E-07 -2.05799530E-11 -4.63892968E-04  1.86985728E-04
  3.45688711E-04 -4.82155684E-09  1.29186884E-07 -2.67294756E-03  1.15828752E-03
 -2.09455497E-08  5.75914077E-07  9.45830796E-03 -4.61816611E-03  2.47433698E-08
 -7.52517799E-07 -1.45137664E-04  2.33846949E-04  2.33847509E-04  7.79972556E-09
 -2.10762675E-07  1.51032769E-11 -2.50550768E-05 -2.69466709E-05  1.40779599E-04
  7.04789278E-10 -1.89006973E-08  9.22549962E-04 -2.00557781E-03 -9.09795174E-09
  1.22577427E-07 -1.06544390E-03  2.61593513E-02  7.15524865E-08 -2.00009485E-06
 -2.42385703E-05 -1.20570855E-05 -1.20500386E-05 -1.65125268E-10  8.56431356E-09
 -5.10954998E-10 -2.84623777E-01  1.02274776E+00  2.05264581E-03  6.39535028E-09
 -2.50965146E-07  7.56436362E-02  4.98246359E-04  1.60044492E-09 -4.83724020E-08
 -2.40715307E-02 -1.70131399E-03 -4.95885531E-09  1.52255863E-07  3.44155140E-02
  1.09016709E-02  3.89960009E-08 -1.18434683E-06 -1.54713289E-02 -1.55273277E-02
 -1.55273319E-02  3.32023006E-10 -1.10589022E-08  3.31166880E-11 -3.41645003E-05
 -4.09028888E-04 -9.03715508E-04 -3.85623572E-05 -6.02672807E-08  2.58058489E-05
 -3.41847568E-05 -4.08839769E-04 -9.03622061E-04 -3.85757342E-05 -2.23309378E-05
 -1.29540073E-05 -3.41861025E-05 -4.08841563E-04 -9.03605987E-04 -3.85742398E-05
  2.23906395E-05 -1.28492438E-05  1.02693468E-05  2.50338400E-05  2.29804343E-05
 -2.45985306E-09  6.62940693E-08 -9.90937447E-04 -7.84800967E-04  1.33586161E-08
 -3.67590340E-07 -2.18636908E-02  1.00053340E-02  2.80788102E-08 -4.33351596E-07
  1.00435439E-04  1.45932489E-05  1.45935786E-05  5.02401441E-10 -1.34406918E-08
 -2.00386853E-11 -4.33224381E-05 -1.50721243E-04 -1.95338562E-06 -2.59792693E-09
  6.51392623E-08  1.41593799E-03 -1.87987824E-04  1.32983058E-08 -3.34721661E-07
 -4.63930335E-04 -1.74975834E-03 -2.44290835E-08  5.24317924E-07 -1.13230444E-04
 -9.26199474E-05 -9.26203997E-05  3.13981374E-10 -9.02398275E-09  2.11743255E-12
  8.73496892E-05  4.03930991E-04 -5.64740622E-04 -2.83177704E-09  4.99056686E-08
 -6.30959333E-04  2.78187347E-04  2.53470462E-09 -4.83700305E-08 -1.41642481E-02
 -6.16555822E-02 -1.33458120E-07  3.58914240E-06  3.40674688E-05  2.47292018E-04
  2.47348497E-04  6.62509411E-10 -8.29289352E-10 -6.15373589E-10  6.24088924E-04
 -2.29061632E-03  9.90538038E-01  2.53521196E-06 -1.00600806E-04  1.50554589E-04
  3.08733941E-02  8.03692676E-08 -3.14773627E-06  1.33139518E-03 -1.39245011E-02
 -3.86570589E-08  1.43403642E-06 -4.57459604E-02 -8.79058556E-03 -5.25349499E-08
  1.58055830E-06  1.87038269E-04 -2.39489246E-05 -2.39508999E-05  1.11198930E-12
 -4.58434797E-09 -1.02928428E-10 -1.47282861E-04  1.57540722E-03 -4.65606008E-03
 -2.71496141E-04 -1.45930547E-07  6.21070872E-05 -1.47216168E-04  1.57539967E-03
 -4.65751584E-03 -2.71561022E-04 -5.37190920E-05 -3.11505820E-05 -1.47218452E-04
  1.57540288E-03 -4.65759202E-03 -2.71560847E-04  5.38613222E-05 -3.08988183E-05
 -6.46748787E-05 -2.91300451E-04 -7.11325521E-05  7.92848735E-09 -2.11466524E-07
  2.76945760E-03  7.15470044E-04 -4.16828100E-08  1.13411086E-06  7.57887818E-02
 -2.89450444E-02 -1.57930610E-07  3.33913256E-06 -3.15307018E-05 -1.04415224E-04
 -1.04415658E-04 -2.63452474E-09  7.23961203E-08  1.14425588E-11 -1.98416915E-05
 -7.17734411E-05  3.59492639E-05  3.58928545E-09 -8.43547178E-08 -3.44773693E-05
  2.54088117E-04 -1.72570685E-08  4.02293380E-07 -9.41648504E-03  7.62161505E-03
  4.89801528E-08 -9.21475571E-07 -5.99551506E-05 -3.04283075E-05 -3.04307216E-05
 -6.13645269E-10  1.65807250E-08 -4.46243756E-11 -2.93397945E-10 -1.67582341E-09
 -1.43396298E-09 -5.07841164E-05  5.88313470E-07  6.64041269E-09  1.32148942E-08
  1.73585504E-04 -2.01302116E-06 -3.88296355E-08 -1.27142038E-07  2.44202188E-04
 -2.82443050E-06  1.81343788E-09  9.53862921E-07 -9.56171537E-07 -1.30173244E-04
  1.50747908E-06 -5.93551085E-05  5.16293308E-10 -2.39743891E-09 -3.70146419E-06
  9.90773299E-01 -1.14716678E-02 -6.17988874E-10 -1.09338181E-07  2.96035203E-02
 -3.42763936E-04  1.11873764E-08  4.38350990E-08 -1.15560176E-02  1.33800516E-04
 -9.70960288E-08 -4.94308952E-08  5.13046097E-03 -5.94009146E-05 -1.10927538E-09
 -6.91956323E-08  6.85374792E-08  1.49618570E-04 -1.73232055E-06  4.27579959E-06
 -1.65023264E-06  9.36070015E-06 -5.84242502E-05 -2.30191086E-06 -1.95993982E-05
  1.32553145E-06 -1.01802368E-04  5.77813195E-04 -3.60732045E-03 -1.42123132E-04
 -7.82421744E-05 -3.37996186E-05  1.03450099E-04 -5.87160866E-04  3.66573080E-03
  1.44423481E-04 -7.93514000E-05  3.45253596E-05 -2.87962757E-10 -1.28961193E-09
  1.32998099E-09  5.87560716E-05 -6.80279085E-07  7.39822053E-08  5.03131686E-08
 -2.51003412E-04  2.90602800E-06  1.41711625E-07 -6.63380708E-08  1.01987608E-03
 -1.18051007E-05  2.39656389E-09 -3.10348183E-08  2.81240123E-08  1.81617794E-06
 -2.11178084E-08  1.84074074E-06  1.65349121E-09  6.46191933E-09 -6.19925654E-10
 -2.38672992E-05  2.76223102E-07 -7.84695769E-08  3.88071304E-08  1.44578093E-04
 -1.67328498E-06 -1.71033360E-08  1.77125220E-08 -3.55882925E-04  4.11776800E-06
 -8.26999417E-10 -3.99777232E-08  4.92677093E-08 -1.77399277E-05  2.05385957E-07
  2.77300667E-06  1.55043358E-08  8.04559232E-08  1.51246302E-08 -5.87892053E-07
 -5.08011994E-05 -4.08751046E-07 -2.18660659E-07  2.00839050E-06  1.73731452E-04
 -3.97970680E-08  2.33327619E-06  2.82413876E-06  2.43646910E-04 -2.17552106E-08
 -5.13843979E-05  5.14520884E-05 -1.50694045E-06 -1.30173066E-04 -1.10394593E-06
 -1.19009173E-08  5.24187518E-08  1.00600008E-04  1.14716680E-02  9.90773298E-01
  2.29678194E-08  2.99312373E-06  3.42764543E-04  2.96035031E-02 -1.84661490E-07
 -1.15569082E-06 -1.33801812E-04 -1.15559870E-02  1.96846200E-06  1.12138569E-06
  5.94054986E-05  5.13048999E-03  3.58981044E-08  3.73515766E-06 -3.74473055E-06
  1.73239709E-06  1.49618619E-04  8.01732518E-08  1.18540810E-04 -6.72450793E-04
  4.19891417E-03  1.65408862E-04 -4.19158827E-08 -9.85386041E-05 -6.06778333E-05
  3.44496828E-04 -2.14971198E-03 -8.47033485E-05 -3.51838966E-05 -3.98760019E-05
 -5.78222116E-05  3.28283922E-04 -2.04850946E-03 -8.07159195E-05  3.31739734E-05
 -3.87657739E-05  4.40126792E-09  1.85590356E-08 -2.58202210E-08  6.80200900E-07
  5.87444873E-05 -1.36928647E-06 -9.77255392E-07 -2.90626831E-06 -2.50986963E-04
 -2.72946986E-06  1.24655742E-06  1.18166291E-05  1.02026120E-03 -4.48302606E-08