 Entering Gaussian System, Link 0=g16
 Initial command:
 /usr/local/g16_AVX//g16/l1.exe "/scratch/alanqf/0102-54544.ixchel.mda.cinvestav.mx/Gau-23124.inp" -scrdir="/scratch/alanqf/0102-54544.ixchel.mda.cinvestav.mx/"
 Entering Link 1 = /usr/local/g16_AVX//g16/l1.exe PID=     23125.
  
 Copyright (c) 1988-2017, Gaussian, Inc.  All Rights Reserved.
  
 This is part of the Gaussian(R) 16 program.  It is based on
 the Gaussian(R) 09 system (copyright 2009, Gaussian, Inc.),
 the Gaussian(R) 03 system (copyright 2003, Gaussian, Inc.),
 the Gaussian(R) 98 system (copyright 1998, Gaussian, Inc.),
 the Gaussian(R) 94 system (copyright 1995, Gaussian, Inc.),
 the Gaussian 92(TM) system (copyright 1992, Gaussian, Inc.),
 the Gaussian 90(TM) system (copyright 1990, Gaussian, Inc.),
 the Gaussian 88(TM) system (copyright 1988, Gaussian, Inc.),
 the Gaussian 86(TM) system (copyright 1986, Carnegie Mellon
 University), and the Gaussian 82(TM) system (copyright 1983,
 Carnegie Mellon University). Gaussian is a federally registered
 trademark of Gaussian, Inc.
  
 This software contains proprietary and confidential information,
 including trade secrets, belonging to Gaussian, Inc.
  
 This software is provided under written license and may be
 used, copied, transmitted, or stored only in accord with that
 written license.
  
 The following legend is applicable only to US Government
 contracts under FAR:
  
                    RESTRICTED RIGHTS LEGEND
  
 Use, reproduction and disclosure by the US Government is
 subject to restrictions as set forth in subparagraphs (a)
 and (c) of the Commercial Computer Software - Restricted
 Rights clause in FAR 52.227-19.
  
 Gaussian, Inc.
 340 Quinnipiac St., Bldg. 40, Wallingford CT 06492
  
  
 ---------------------------------------------------------------
 Warning -- This program may not be used in any manner that
 competes with the business of Gaussian, Inc. or will provide
 assistance to any competitor of Gaussian, Inc.  The licensee
 of this program is prohibited from giving any competitor of
 Gaussian, Inc. access to this program.  By using this program,
 the user acknowledges that Gaussian, Inc. is engaged in the
 business of creating and licensing software in the field of
 computational chemistry and represents and warrants to the
 licensee that it is not a competitor of Gaussian, Inc. and that
 it will not use this program in any manner prohibited above.
 ---------------------------------------------------------------
  

 Cite this work as:
 Gaussian 16, Revision B.01,
 M. J. Frisch, G. W. Trucks, H. B. Schlegel, G. E. Scuseria, 
 M. A. Robb, J. R. Cheeseman, G. Scalmani, V. Barone, 
 G. A. Petersson, H. Nakatsuji, X. Li, M. Caricato, A. V. Marenich, 
 J. Bloino, B. G. Janesko, R. Gomperts, B. Mennucci, H. P. Hratchian, 
 J. V. Ortiz, A. F. Izmaylov, J. L. Sonnenberg, D. Williams-Young, 
 F. Ding, F. Lipparini, F. Egidi, J. Goings, B. Peng, A. Petrone, 
 T. Henderson, D. Ranasinghe, V. G. Zakrzewski, J. Gao, N. Rega, 
 G. Zheng, W. Liang, M. Hada, M. Ehara, K. Toyota, R. Fukuda, 
 J. Hasegawa, M. Ishida, T. Nakajima, Y. Honda, O. Kitao, H. Nakai, 
 T. Vreven, K. Throssell, J. A. Montgomery, Jr., J. E. Peralta, 
 F. Ogliaro, M. J. Bearpark, J. J. Heyd, E. N. Brothers, K. N. Kudin, 
 V. N. Staroverov, T. A. Keith, R. Kobayashi, J. Normand, 
 K. Raghavachari, A. P. Rendell, J. C. Burant, S. S. Iyengar, 
 J. Tomasi, M. Cossi, J. M. Millam, M. Klene, C. Adamo, R. Cammi, 
 J. W. Ochterski, R. L. Martin, K. Morokuma, O. Farkas, 
 J. B. Foresman, and D. J. Fox, Gaussian, Inc., Wallingford CT, 2016.
 
 ******************************************
 Gaussian 16:  ES64L-G16RevB.01 20-Dec-2017
                13-Oct-2024 
 ******************************************
 %NProcShared=26
 Will use up to   26 processors via shared memory.
 %MEM=20GB
 %chk=CHKfiles/0102.chk
 ---------------------------------------------------------------------
 #p b3lyp 6-31++g(d,p) scf=verytight NoSymm freq=noraman int=ultrafine
 ---------------------------------------------------------------------
 1/10=4,30=1,38=1/1,3;
 2/12=2,15=1,17=6,18=5,40=1/2;
 3/5=1,6=6,7=1111,11=2,25=1,30=1,71=2,74=-5,75=-5,140=1/1,2,3;
 4//1;
 5/5=2,17=3,38=5,98=1/2;
 8/6=4,10=90,11=11/1;
 11/6=1,8=1,9=11,15=111,16=1,31=1/1,2,10;
 10/6=1,31=1/2;
 6/7=2,8=2,9=2,10=2,28=1/1;
 7/8=1,10=1,25=1,30=1/1,2,3,16;
 1/10=4,30=1/3;
 99//99;
 Leave Link    1 at Sun Oct 13 09:50:40 2024, MaxMem=  2684354560 cpu:               1.4 elap:               0.1
 (Enter /usr/local/g16_AVX//g16/l101.exe)
 ------------------------
 RxCoord=0.10000 DE=55.29
 ------------------------
 Symbolic Z-matrix:
 Charge = -1 Multiplicity = 1
 C                    -0.00202   0.00001  -0.00015 
 Cl                   -2.20016  0.         0.00006 
 H                     0.10107   0.00251  -1.07143 
 H                     0.1012    0.92655   0.53761 
 H                     0.10121  -0.92904   0.53327 
 C                     2.31414   0.00001  -0.00024 
 N                     3.49108  -0.00001   0.00022 
 
 ITRead=  0  0  0  0  0  0  0
 MicOpt= -1 -1 -1 -1 -1 -1 -1
 NAtoms=      7 NQM=        7 NQMF=       0 NMMI=      0 NMMIF=      0
                NMic=       0 NMicF=      0.
                    Isotopes and Nuclear Properties:
 (Nuclear quadrupole moments (NQMom) in fm**2, nuclear magnetic moments (NMagM)
  in nuclear magnetons)

  Atom         1           2           3           4           5           6           7
 IAtWgt=          12          35           1           1           1          12          14
 AtmWgt=  12.0000000  34.9688527   1.0078250   1.0078250   1.0078250  12.0000000  14.0030740
 NucSpn=           0           3           1           1           1           0           2
 AtZEff=  -0.0000000  -0.0000000  -0.0000000  -0.0000000  -0.0000000  -0.0000000  -0.0000000
 NQMom=    0.0000000  -8.1650000   0.0000000   0.0000000   0.0000000   0.0000000   2.0440000
 NMagM=    0.0000000   0.8218740   2.7928460   2.7928460   2.7928460   0.0000000   0.4037610
 AtZNuc=   6.0000000  17.0000000   1.0000000   1.0000000   1.0000000   6.0000000   7.0000000
 Leave Link  101 at Sun Oct 13 09:50:40 2024, MaxMem=  2684354560 cpu:               2.9 elap:               0.1
 (Enter /usr/local/g16_AVX//g16/l103.exe)

 GradGradGradGradGradGradGradGradGradGradGradGradGradGradGradGradGradGrad
 Berny optimization.
 Initialization pass.
 Trust Radius=3.00D-01 FncErr=1.00D-07 GrdErr=1.00D-07 EigMax=2.50D+02 EigMin=1.00D-04
 Number of steps in this run=      2 maximum allowed number of steps=      2.
 GradGradGradGradGradGradGradGradGradGradGradGradGradGradGradGradGradGrad

 Leave Link  103 at Sun Oct 13 09:50:40 2024, MaxMem=  2684354560 cpu:               0.5 elap:               0.0
 (Enter /usr/local/g16_AVX//g16/l202.exe)
                          Input orientation:                          
 ---------------------------------------------------------------------
 Center     Atomic      Atomic             Coordinates (Angstroms)
 Number     Number       Type             X           Y           Z
 ---------------------------------------------------------------------
      1          6           0       -0.002022    0.000005   -0.000149
      2         17           0       -2.200163   -0.000002    0.000059
      3          1           0        0.101070    0.002508   -1.071432
      4          1           0        0.101202    0.926547    0.537606
      5          1           0        0.101210   -0.929037    0.533273
      6          6           0        2.314138    0.000009   -0.000238
      7          7           0        3.491085   -0.000008    0.000224
 ---------------------------------------------------------------------
                    Distance matrix (angstroms):
                    1          2          3          4          5
     1  C    0.000000
     2  Cl   2.198141   0.000000
     3  H    1.076235   2.538459   0.000000
     4  H    1.076251   2.538450   1.855492   0.000000
     5  H    1.076250   2.538452   1.855493   1.855589   0.000000
     6  C    2.316160   4.514301   2.458685   2.458625   2.458620
     7  N    3.493107   5.691248   3.555370   3.555080   3.555065
                    6          7
     6  C    0.000000
     7  N    1.176947   0.000000
 Symmetry turned off by external request.
 This structure is nearly, but not quite of a higher symmetry.
 Consider Symm=Loose if the higher symmetry is desired.
 Stoichiometry    C2H3ClN(1-)
 Framework group  C1[X(C2H3ClN)]
 Deg. of freedom    15
 Full point group                 C1      NOp   1
 Rotational constants (GHZ):         145.6459178           1.2448744           1.2448736
 Leave Link  202 at Sun Oct 13 09:50:40 2024, MaxMem=  2684354560 cpu:               0.2 elap:               0.0
 (Enter /usr/local/g16_AVX//g16/l301.exe)
 Standard basis: 6-31++G(d,p) (6D, 7F)
 Ernie: Thresh=  0.10000D-02 Tol=  0.10000D-05 Strict=F.
    98 basis functions,   176 primitive gaussians,    98 cartesian basis functions
    20 alpha electrons       20 beta electrons
       nuclear repulsion energy       108.3859555916 Hartrees.
 IExCor=  402 DFT=T Ex+Corr=B3LYP ExCW=0 ScaHFX=  0.200000
 ScaDFX=  0.800000  0.720000  1.000000  0.810000 ScalE2=  1.000000  1.000000
 IRadAn=      5 IRanWt=     -1 IRanGd=            0 ICorTp=0 IEmpDi=  4
 NAtoms=    7 NActive=    7 NUniq=    7 SFac= 1.00D+00 NAtFMM=   60 NAOKFM=F Big=F
 Integral buffers will be    131072 words long.
 Raffenetti 2 integral format.
 Two-electron integral symmetry is turned off.
 Leave Link  301 at Sun Oct 13 09:50:40 2024, MaxMem=  2684354560 cpu:               1.3 elap:               0.1
 (Enter /usr/local/g16_AVX//g16/l302.exe)
 NPDir=0 NMtPBC=     1 NCelOv=     1 NCel=       1 NClECP=     1 NCelD=      1
         NCelK=      1 NCelE2=     1 NClLst=     1 CellRange=     0.0.
 One-electron integrals computed using PRISM.
 NBasis=    98 RedAO= T EigKep=  1.12D-04  NBF=    98
 NBsUse=    98 1.00D-06 EigRej= -1.00D+00 NBFU=    98
 Precomputing XC quadrature grid using
 IXCGrd= 4 IRadAn=           5 IRanWt=          -1 IRanGd=           0 AccXCQ= 0.00D+00.
 Generated NRdTot=       0 NPtTot=           0 NUsed=           0 NTot=          32
 NSgBfM=    98    98    98    98    98 MxSgAt=     7 MxSgA2=     7.
 Leave Link  302 at Sun Oct 13 09:50:40 2024, MaxMem=  2684354560 cpu:               3.8 elap:               0.2
 (Enter /usr/local/g16_AVX//g16/l303.exe)
 DipDrv:  MaxL=1.
 Leave Link  303 at Sun Oct 13 09:50:41 2024, MaxMem=  2684354560 cpu:               0.8 elap:               0.1
 (Enter /usr/local/g16_AVX//g16/l401.exe)
 ExpMin= 3.60D-02 ExpMax= 2.52D+04 ExpMxC= 3.78D+03 IAcc=3 IRadAn=         5 AccDes= 0.00D+00
 Harris functional with IExCor=  402 and IRadAn=       5 diagonalized for initial guess.
 HarFok:  IExCor=  402 AccDes= 0.00D+00 IRadAn=         5 IDoV= 1 UseB2=F ITyADJ=14
 ICtDFT=  3500011 ScaDFX=  1.000000  1.000000  1.000000  1.000000
 FoFCou: FMM=F IPFlag=           0 FMFlag=      100000 FMFlg1=           0
         NFxFlg=           0 DoJE=T BraDBF=F KetDBF=T FulRan=T
         wScrn=  0.000000 ICntrl=       500 IOpCl=  0 I1Cent=   200000004 NGrid=           0
         NMat0=    1 NMatS0=      1 NMatT0=    0 NMatD0=    1 NMtDS0=    0 NMtDT0=    0
 Symmetry not used in FoFCou.
 Harris En= -593.041348620785    
 JPrj=0 DoOrth=F DoCkMO=F.
 Leave Link  401 at Sun Oct 13 09:50:41 2024, MaxMem=  2684354560 cpu:               5.8 elap:               0.3
 (Enter /usr/local/g16_AVX//g16/l502.exe)
 Keep R1 ints in memory in canonical form, NReq=35752921.
 FoFCou: FMM=F IPFlag=           0 FMFlag=           0 FMFlg1=           0
         NFxFlg=           0 DoJE=F BraDBF=F KetDBF=F FulRan=T
         wScrn=  0.000000 ICntrl=       600 IOpCl=  0 I1Cent=           0 NGrid=           0
         NMat0=    1 NMatS0=   4851 NMatT0=    0 NMatD0=    1 NMtDS0=    0 NMtDT0=    0
 Symmetry not used in FoFCou.
 Two-electron integral symmetry not used.
 Closed shell SCF:
 Using DIIS extrapolation, IDIIS=  1040.
 NGot=  2684354560 LenX=  2672563419 LenY=  2672553374
 Requested convergence on RMS density matrix=1.00D-08 within 128 cycles.
 Requested convergence on MAX density matrix=1.00D-06.
 Requested convergence on             energy=1.00D-06.
 No special actions if energy rises.

 Cycle   1  Pass 1  IDiag  1:
 E= -592.856281035879    
 DIIS: error= 2.85D-02 at cycle   1 NSaved=   1.
 NSaved= 1 IEnMin= 1 EnMin= -592.856281035879     IErMin= 1 ErrMin= 2.85D-02
 ErrMax= 2.85D-02  0.00D+00 EMaxC= 1.00D-01 BMatC= 1.12D-01 BMatP= 1.12D-01
 IDIUse=3 WtCom= 7.15D-01 WtEn= 2.85D-01
 Coeff-Com:  0.100D+01
 Coeff-En:   0.100D+01
 Coeff:      0.100D+01
 Gap=     0.360 Goal=   None    Shift=    0.000
 GapD=    0.360 DampG=1.000 DampE=0.500 DampFc=0.5000 IDamp=-1.
 Damping current iteration by 5.00D-01
 RMSDP=2.50D-02 MaxDP=6.84D-01              OVMax= 2.89D-01

 Cycle   2  Pass 1  IDiag  1:
 E= -592.895338305053     Delta-E=       -0.039057269174 Rises=F Damp=T
 DIIS: error= 1.11D-02 at cycle   2 NSaved=   2.
 NSaved= 2 IEnMin= 2 EnMin= -592.895338305053     IErMin= 2 ErrMin= 1.11D-02
 ErrMax= 1.11D-02  0.00D+00 EMaxC= 1.00D-01 BMatC= 1.47D-02 BMatP= 1.12D-01
 IDIUse=3 WtCom= 8.89D-01 WtEn= 1.11D-01
 Coeff-Com:  0.189D+00 0.811D+00
 Coeff-En:   0.322D+00 0.678D+00
 Coeff:      0.203D+00 0.797D+00
 Gap=     0.238 Goal=   None    Shift=    0.000
 RMSDP=1.03D-02 MaxDP=3.57D-01 DE=-3.91D-02 OVMax= 1.94D-01

 Cycle   3  Pass 1  IDiag  1:
 E= -592.973481523981     Delta-E=       -0.078143218928 Rises=F Damp=F
 DIIS: error= 1.74D-02 at cycle   3 NSaved=   3.
 NSaved= 3 IEnMin= 3 EnMin= -592.973481523981     IErMin= 2 ErrMin= 1.11D-02
 ErrMax= 1.74D-02  0.00D+00 EMaxC= 1.00D-01 BMatC= 1.43D-02 BMatP= 1.47D-02
 IDIUse=3 WtCom= 8.26D-01 WtEn= 1.74D-01
 Coeff-Com:  0.588D-01 0.495D+00 0.447D+00
 Coeff-En:   0.000D+00 0.000D+00 0.100D+01
 Coeff:      0.486D-01 0.409D+00 0.543D+00
 Gap=     0.219 Goal=   None    Shift=    0.000
 RMSDP=2.14D-03 MaxDP=3.70D-02 DE=-7.81D-02 OVMax= 6.58D-02

 Cycle   4  Pass 1  IDiag  1:
 E= -592.978309468200     Delta-E=       -0.004827944220 Rises=F Damp=F
 DIIS: error= 1.45D-02 at cycle   4 NSaved=   4.
 NSaved= 4 IEnMin= 4 EnMin= -592.978309468200     IErMin= 2 ErrMin= 1.11D-02
 ErrMax= 1.45D-02  0.00D+00 EMaxC= 1.00D-01 BMatC= 9.23D-03 BMatP= 1.43D-02
 IDIUse=3 WtCom= 8.55D-01 WtEn= 1.45D-01
 Coeff-Com: -0.191D-02 0.899D-01 0.434D+00 0.478D+00
 Coeff-En:   0.000D+00 0.000D+00 0.418D+00 0.582D+00
 Coeff:     -0.163D-02 0.769D-01 0.431D+00 0.493D+00
 Gap=     0.212 Goal=   None    Shift=    0.000
 RMSDP=1.15D-03 MaxDP=2.04D-02 DE=-4.83D-03 OVMax= 2.92D-02

 Cycle   5  Pass 1  IDiag  1:
 E= -592.986385606926     Delta-E=       -0.008076138725 Rises=F Damp=F
 DIIS: error= 1.79D-03 at cycle   5 NSaved=   5.
 NSaved= 5 IEnMin= 5 EnMin= -592.986385606926     IErMin= 5 ErrMin= 1.79D-03
 ErrMax= 1.79D-03  0.00D+00 EMaxC= 1.00D-01 BMatC= 4.15D-04 BMatP= 9.23D-03
 IDIUse=3 WtCom= 9.82D-01 WtEn= 1.79D-02
 Coeff-Com: -0.380D-02 0.136D-01 0.218D+00 0.298D+00 0.475D+00
 Coeff-En:   0.000D+00 0.000D+00 0.000D+00 0.000D+00 0.100D+01
 Coeff:     -0.373D-02 0.134D-01 0.214D+00 0.292D+00 0.484D+00
 Gap=     0.213 Goal=   None    Shift=    0.000
 RMSDP=4.16D-04 MaxDP=7.82D-03 DE=-8.08D-03 OVMax= 1.28D-02

 Cycle   6  Pass 1  IDiag  1:
 E= -592.986889227905     Delta-E=       -0.000503620979 Rises=F Damp=F
 DIIS: error= 3.06D-04 at cycle   6 NSaved=   6.
 NSaved= 6 IEnMin= 6 EnMin= -592.986889227905     IErMin= 6 ErrMin= 3.06D-04
 ErrMax= 3.06D-04  0.00D+00 EMaxC= 1.00D-01 BMatC= 8.39D-06 BMatP= 4.15D-04
 IDIUse=3 WtCom= 9.97D-01 WtEn= 3.06D-03
 Coeff-Com: -0.122D-02-0.127D-02 0.614D-01 0.871D-01 0.200D+00 0.654D+00
 Coeff-En:   0.000D+00 0.000D+00 0.000D+00 0.000D+00 0.000D+00 0.100D+01
 Coeff:     -0.122D-02-0.126D-02 0.612D-01 0.869D-01 0.200D+00 0.655D+00
 Gap=     0.212 Goal=   None    Shift=    0.000
 RMSDP=5.68D-05 MaxDP=1.11D-03 DE=-5.04D-04 OVMax= 1.32D-03

 Cycle   7  Pass 1  IDiag  1:
 E= -592.986897385045     Delta-E=       -0.000008157140 Rises=F Damp=F
 DIIS: error= 9.15D-05 at cycle   7 NSaved=   7.
 NSaved= 7 IEnMin= 7 EnMin= -592.986897385045     IErMin= 7 ErrMin= 9.15D-05
 ErrMax= 9.15D-05  0.00D+00 EMaxC= 1.00D-01 BMatC= 8.93D-07 BMatP= 8.39D-06
 IDIUse=1 WtCom= 1.00D+00 WtEn= 0.00D+00
 Coeff-Com: -0.152D-03-0.717D-03 0.676D-02 0.915D-02 0.435D-01 0.308D+00
 Coeff-Com:  0.634D+00
 Coeff:     -0.152D-03-0.717D-03 0.676D-02 0.915D-02 0.435D-01 0.308D+00
 Coeff:      0.634D+00
 Gap=     0.212 Goal=   None    Shift=    0.000
 RMSDP=1.74D-05 MaxDP=4.49D-04 DE=-8.16D-06 OVMax= 5.91D-04

 Cycle   8  Pass 1  IDiag  1:
 E= -592.986898437217     Delta-E=       -0.000001052173 Rises=F Damp=F
 DIIS: error= 2.45D-05 at cycle   8 NSaved=   8.
 NSaved= 8 IEnMin= 8 EnMin= -592.986898437217     IErMin= 8 ErrMin= 2.45D-05
 ErrMax= 2.45D-05  0.00D+00 EMaxC= 1.00D-01 BMatC= 7.53D-08 BMatP= 8.93D-07
 IDIUse=1 WtCom= 1.00D+00 WtEn= 0.00D+00
 Coeff-Com:  0.103D-03-0.552D-03-0.263D-02-0.355D-02 0.269D-02 0.795D-01
 Coeff-Com:  0.297D+00 0.628D+00
 Coeff:      0.103D-03-0.552D-03-0.263D-02-0.355D-02 0.269D-02 0.795D-01
 Coeff:      0.297D+00 0.628D+00
 Gap=     0.212 Goal=   None    Shift=    0.000
 RMSDP=3.52D-06 MaxDP=7.24D-05 DE=-1.05D-06 OVMax= 7.26D-05

 Cycle   9  Pass 1  IDiag  1:
 E= -592.986898522780     Delta-E=       -0.000000085563 Rises=F Damp=F
 DIIS: error= 3.80D-06 at cycle   9 NSaved=   9.
 NSaved= 9 IEnMin= 9 EnMin= -592.986898522780     IErMin= 9 ErrMin= 3.80D-06
 ErrMax= 3.80D-06  0.00D+00 EMaxC= 1.00D-01 BMatC= 7.69D-10 BMatP= 7.53D-08
 IDIUse=1 WtCom= 1.00D+00 WtEn= 0.00D+00
 Coeff-Com:  0.476D-04-0.111D-03-0.892D-03-0.107D-02-0.137D-02 0.114D-02
 Coeff-Com:  0.376D-01 0.116D+00 0.848D+00
 Coeff:      0.476D-04-0.111D-03-0.892D-03-0.107D-02-0.137D-02 0.114D-02
 Coeff:      0.376D-01 0.116D+00 0.848D+00
 Gap=     0.212 Goal=   None    Shift=    0.000
 RMSDP=1.47D-06 MaxDP=3.51D-05 DE=-8.56D-08 OVMax= 9.42D-06

 Cycle  10  Pass 1  IDiag  1:
 E= -592.986898523753     Delta-E=       -0.000000000973 Rises=F Damp=F
 DIIS: error= 2.68D-07 at cycle  10 NSaved=  10.
 NSaved=10 IEnMin=10 EnMin= -592.986898523753     IErMin=10 ErrMin= 2.68D-07
 ErrMax= 2.68D-07  0.00D+00 EMaxC= 1.00D-01 BMatC= 8.17D-12 BMatP= 7.69D-10
 IDIUse=1 WtCom= 1.00D+00 WtEn= 0.00D+00
 Coeff-Com:  0.543D-05-0.407D-05-0.564D-04-0.603D-04-0.205D-03-0.130D-02
 Coeff-Com: -0.229D-02 0.389D-02 0.100D+00 0.900D+00
 Coeff:      0.543D-05-0.407D-05-0.564D-04-0.603D-04-0.205D-03-0.130D-02
 Coeff:     -0.229D-02 0.389D-02 0.100D+00 0.900D+00
 Gap=     0.212 Goal=   None    Shift=    0.000
 RMSDP=5.82D-08 MaxDP=9.63D-07 DE=-9.73D-10 OVMax= 1.63D-06

 Cycle  11  Pass 1  IDiag  1:
 E= -592.986898523764     Delta-E=       -0.000000000011 Rises=F Damp=F
 DIIS: error= 4.97D-08 at cycle  11 NSaved=  11.
 NSaved=11 IEnMin=11 EnMin= -592.986898523764     IErMin=11 ErrMin= 4.97D-08
 ErrMax= 4.97D-08  0.00D+00 EMaxC= 1.00D-01 BMatC= 2.83D-13 BMatP= 8.17D-12
 IDIUse=1 WtCom= 1.00D+00 WtEn= 0.00D+00
 Coeff-Com: -0.421D-06 0.139D-05 0.394D-05 0.575D-05-0.129D-04-0.130D-03
 Coeff-Com: -0.889D-03-0.718D-03 0.356D-03 0.114D+00 0.888D+00
 Coeff:     -0.421D-06 0.139D-05 0.394D-05 0.575D-05-0.129D-04-0.130D-03
 Coeff:     -0.889D-03-0.718D-03 0.356D-03 0.114D+00 0.888D+00
 Gap=     0.212 Goal=   None    Shift=    0.000
 RMSDP=1.45D-08 MaxDP=3.30D-07 DE=-1.07D-11 OVMax= 2.19D-07

 Cycle  12  Pass 1  IDiag  1:
 E= -592.986898523764     Delta-E=       -0.000000000000 Rises=F Damp=F
 DIIS: error= 7.08D-09 at cycle  12 NSaved=  12.
 NSaved=12 IEnMin=12 EnMin= -592.986898523764     IErMin=12 ErrMin= 7.08D-09
 ErrMax= 7.08D-09  0.00D+00 EMaxC= 1.00D-01 BMatC= 5.38D-15 BMatP= 2.83D-13
 IDIUse=1 WtCom= 1.00D+00 WtEn= 0.00D+00
 Coeff-Com: -0.231D-06 0.434D-06 0.108D-05 0.136D-05 0.777D-07 0.119D-05
 Coeff-Com: -0.842D-04-0.174D-03-0.156D-02 0.312D-02 0.157D+00 0.841D+00
 Coeff:     -0.231D-06 0.434D-06 0.108D-05 0.136D-05 0.777D-07 0.119D-05
 Coeff:     -0.842D-04-0.174D-03-0.156D-02 0.312D-02 0.157D+00 0.841D+00
 Gap=     0.212 Goal=   None    Shift=    0.000
 RMSDP=2.30D-09 MaxDP=4.17D-08 DE=-2.27D-13 OVMax= 3.81D-08

 SCF Done:  E(RB3LYP) =  -592.986898524     A.U. after   12 cycles
            NFock= 12  Conv=0.23D-08     -V/T= 2.0047
 KE= 5.902124108550D+02 PE=-1.626931553959D+03 EE= 3.353462889884D+02
 Leave Link  502 at Sun Oct 13 09:50:42 2024, MaxMem=  2684354560 cpu:              35.2 elap:               1.6
 (Enter /usr/local/g16_AVX//g16/l801.exe)
 DoSCS=F DFT=T ScalE2(SS,OS)=  1.000000  1.000000
 Range of M.O.s used for correlation:     1    98
 NBasis=    98 NAE=    20 NBE=    20 NFC=     0 NFV=     0
 NROrb=     98 NOA=    20 NOB=    20 NVA=    78 NVB=    78

 **** Warning!!: The largest alpha MO coefficient is  0.32276551D+02

 Leave Link  801 at Sun Oct 13 09:50:43 2024, MaxMem=  2684354560 cpu:               0.6 elap:               0.0
 (Enter /usr/local/g16_AVX//g16/l1101.exe)
 Using compressed storage, NAtomX=     7.
 Will process      8 centers per pass.
 Leave Link 1101 at Sun Oct 13 09:50:43 2024, MaxMem=  2684354560 cpu:               3.5 elap:               0.2
 (Enter /usr/local/g16_AVX//g16/l1102.exe)
 Symmetrizing basis deriv contribution to polar:
 IMax=3 JMax=2 DiffMx= 0.00D+00
 Leave Link 1102 at Sun Oct 13 09:50:43 2024, MaxMem=  2684354560 cpu:               0.7 elap:               0.1
 (Enter /usr/local/g16_AVX//g16/l1110.exe)
 Forming Gx(P) for the SCF density, NAtomX=     7.
 Integral derivatives from FoFJK, PRISM(SPDF).
 Do as many integral derivatives as possible in FoFJK.
 G2DrvN: MDV=    2684353878.
 G2DrvN: will do     8 centers at a time, making    1 passes.
 Calling FoFCou, ICntrl=  3107 FMM=F I1Cent=   0 AccDes= 0.00D+00.
 FoFJK:  IHMeth= 1 ICntrl=    3107 DoSepK=F KAlg= 0 I1Cent=           0 FoldK=F
 IRaf=         0 NMat=       1 IRICut=       1 DoRegI=T DoRafI=F ISym2E= 0 IDoP0=0 IntGTp=1.
 FoFCou: FMM=F IPFlag=           0 FMFlag=      100000 FMFlg1=           0
         NFxFlg=           0 DoJE=F BraDBF=F KetDBF=F FulRan=T
         wScrn=  0.000000 ICntrl=      3107 IOpCl=  0 I1Cent=           0 NGrid=           0
         NMat0=    1 NMatS0=      1 NMatT0=    0 NMatD0=    1 NMtDS0=    0 NMtDT0=    0
 Symmetry not used in FoFCou.
 End of G2Drv F.D. properties file   721 does not exist.
 End of G2Drv F.D. properties file   722 does not exist.
 End of G2Drv F.D. properties file   788 does not exist.
 Leave Link 1110 at Sun Oct 13 09:50:44 2024, MaxMem=  2684354560 cpu:              38.8 elap:               1.5
 (Enter /usr/local/g16_AVX//g16/l1002.exe)
 Minotr:  Closed shell wavefunction.
          IDoAtm=1111111
          Direct CPHF calculation.
          Differentiating once with respect to electric field.
                with respect to dipole field.
          Differentiating once with respect to nuclear coordinates.
          Requested convergence is 1.0D-08 RMS, and 1.0D-07 maximum.
          Secondary convergence is 1.0D-12 RMS, and 1.0D-12 maximum.
          NewPWx=T KeepS1=F KeepF1=F KeepIn=T MapXYZ=F SortEE=F KeepMc=T.
         2136 words used for storage of precomputed grid.
 Keep R1 ints in memory in canonical form, NReq=35668383.
 FoFCou: FMM=F IPFlag=           0 FMFlag=           0 FMFlg1=           0
         NFxFlg=           0 DoJE=F BraDBF=F KetDBF=F FulRan=T
         wScrn=  0.000000 ICntrl=       600 IOpCl=  0 I1Cent=           0 NGrid=           0
         NMat0=    1 NMatS0=   4851 NMatT0=    0 NMatD0=    1 NMtDS0=    0 NMtDT0=    0
 Symmetry not used in FoFCou.
 Two-electron integral symmetry not used.
          MDV=    2684354560 using IRadAn=       1.
          Solving linear equations simultaneously, MaxMat=       0.
          There are    24 degrees of freedom in the 1st order CPHF.  IDoFFX=6 NUNeed=     3.
     21 vectors produced by pass  0 Test12= 6.50D-15 4.17D-09 XBig12= 1.51D+02 8.29D+00.
 AX will form    21 AO Fock derivatives at one time.
     21 vectors produced by pass  1 Test12= 6.50D-15 4.17D-09 XBig12= 4.62D+01 2.13D+00.
     21 vectors produced by pass  2 Test12= 6.50D-15 4.17D-09 XBig12= 8.80D-01 3.02D-01.
     21 vectors produced by pass  3 Test12= 6.50D-15 4.17D-09 XBig12= 2.93D-03 1.47D-02.
     21 vectors produced by pass  4 Test12= 6.50D-15 4.17D-09 XBig12= 1.05D-05 6.50D-04.
     17 vectors produced by pass  5 Test12= 6.50D-15 4.17D-09 XBig12= 1.61D-08 2.97D-05.
      6 vectors produced by pass  6 Test12= 6.50D-15 4.17D-09 XBig12= 2.19D-11 1.16D-06.
      1 vectors produced by pass  7 Test12= 6.50D-15 4.17D-09 XBig12= 2.33D-14 3.37D-08.
 InvSVY:  IOpt=1 It=  1 EMax= 5.48D-15
 Solved reduced A of dimension   129 with    24 vectors.
 FullF1:  Do perturbations      1 to       3.
 Isotropic polarizability for W=    0.000000       67.37 Bohr**3.
 End of Minotr F.D. properties file   721 does not exist.
 End of Minotr F.D. properties file   722 does not exist.
 End of Minotr F.D. properties file   788 does not exist.
 Leave Link 1002 at Sun Oct 13 09:50:47 2024, MaxMem=  2684354560 cpu:              54.3 elap:               2.2
 (Enter /usr/local/g16_AVX//g16/l601.exe)
 Copying SCF densities to generalized density rwf, IOpCl= 0 IROHF=0.

 **********************************************************************

            Population analysis using the SCF Density.

 **********************************************************************

 Alpha  occ. eigenvalues -- -101.34360 -14.13514 -10.11278 -10.00675  -9.25837
 Alpha  occ. eigenvalues --   -7.01932  -7.01430  -7.01430  -0.68968  -0.62451
 Alpha  occ. eigenvalues --   -0.54295  -0.30766  -0.30765  -0.23644  -0.18359
 Alpha  occ. eigenvalues --   -0.13711  -0.13711  -0.12858  -0.12858  -0.10046
 Alpha virt. eigenvalues --    0.11146   0.12555   0.14872   0.14872   0.15899
 Alpha virt. eigenvalues --    0.19136   0.20113   0.20114   0.22430   0.22430
 Alpha virt. eigenvalues --    0.24472   0.24472   0.25123   0.25636   0.25636
 Alpha virt. eigenvalues --    0.25640   0.30885   0.34205   0.34205   0.37021
 Alpha virt. eigenvalues --    0.37022   0.37141   0.38363   0.45372   0.46788
 Alpha virt. eigenvalues --    0.74311   0.77481   0.77482   0.77739   0.80424
 Alpha virt. eigenvalues --    0.80425   0.86675   0.86675   0.89381   0.96568
 Alpha virt. eigenvalues --    0.99319   1.04912   1.04913   1.08725   1.08725
 Alpha virt. eigenvalues --    1.10211   1.10212   1.13131   1.16600   1.16600
 Alpha virt. eigenvalues --    1.24136   1.31334   1.40419   1.51543   1.60477
 Alpha virt. eigenvalues --    1.60479   1.74031   1.74031   1.76098   1.76098
 Alpha virt. eigenvalues --    1.82842   2.12513   2.13439   2.13446   2.16321
 Alpha virt. eigenvalues --    2.16322   2.17507   2.54441   2.65421   2.65425
 Alpha virt. eigenvalues --    2.79443   2.79443   2.83130   2.89560   2.89569
 Alpha virt. eigenvalues --    3.24531   3.46137   3.58533   3.58541   4.19139
 Alpha virt. eigenvalues --    4.45632   4.50123   4.59390
          Condensed to atoms (all electrons):
               1          2          3          4          5          6
     1  C    5.374151  -0.154688   0.431545   0.431550   0.431550  -0.143579
     2  Cl  -0.154688  17.743991  -0.048787  -0.048788  -0.048788   0.092335
     3  H    0.431545  -0.048787   0.495123  -0.019611  -0.019611  -0.049951
     4  H    0.431550  -0.048788  -0.019611   0.495111  -0.019599  -0.049939
     5  H    0.431550  -0.048788  -0.019611  -0.019599   0.495110  -0.049939
     6  C   -0.143579   0.092335  -0.049951  -0.049939  -0.049939   5.685983
     7  N   -0.028670  -0.001675  -0.002155  -0.002160  -0.002160   0.713945
               7
     1  C   -0.028670
     2  Cl  -0.001675
     3  H   -0.002155
     4  H   -0.002160
     5  H   -0.002160
     6  C    0.713945
     7  N    6.888880
 Mulliken charges:
               1
     1  C   -0.341859
     2  Cl  -0.533600
     3  H    0.213447
     4  H    0.213436
     5  H    0.213436
     6  C   -0.198855
     7  N   -0.566004
 Sum of Mulliken charges =  -1.00000
 Mulliken charges with hydrogens summed into heavy atoms:
               1
     1  C    0.298459
     2  Cl  -0.533600
     6  C   -0.198855
     7  N   -0.566004
 APT charges:
               1
     1  C    1.199301
     2  Cl  -1.033964
     3  H   -0.018561
     4  H   -0.018561
     5  H   -0.018561
     6  C   -0.470530
     7  N   -0.639123
 Sum of APT charges =  -1.00000
 APT charges with hydrogens summed into heavy atoms:
               1
     1  C    1.143618
     2  Cl  -1.033964
     6  C   -0.470530
     7  N   -0.639123
 Electronic spatial extent (au):  <R**2>=            843.3281
 Charge=             -1.0000 electrons
 Dipole moment (field-independent basis, Debye):
    X=             -4.3020    Y=              0.0000    Z=             -0.0005  Tot=              4.3020
 Quadrupole moment (field-independent basis, Debye-Ang):
   XX=            -87.7543   YY=            -35.2431   ZZ=            -35.2436
   XY=              0.0000   XZ=             -0.0009   YZ=             -0.0000
 Traceless Quadrupole moment (field-independent basis, Debye-Ang):
   XX=            -35.0073   YY=             17.5039   ZZ=             17.5035
   XY=              0.0000   XZ=             -0.0009   YZ=             -0.0000
 Octapole moment (field-independent basis, Debye-Ang**2):
  XXX=           -119.9917  YYY=             -0.0076  ZZZ=             -1.0706  XYY=             -6.1519
  XXY=              0.0003  XXZ=             -0.0075  XZZ=             -6.1521  YZZ=              0.0075
  YYZ=              1.0720  XYZ=             -0.0000
 Hexadecapole moment (field-independent basis, Debye-Ang**3):
 XXXX=          -1741.6048 YYYY=            -55.3609 ZZZZ=            -55.3602 XXXY=              0.0011
 XXXZ=             -0.0320 YYYX=             -0.0011 YYYZ=              0.0000 ZZZX=             -0.1379
 ZZZY=             -0.0000 XXYY=           -215.2872 XXZZ=           -215.2871 YYZZ=            -18.4541
 XXYZ=             -0.0000 YYXZ=              0.1402 ZZXY=              0.0010
 N-N= 1.083859555916D+02 E-N=-1.626931553353D+03  KE= 5.902124108550D+02
  Exact polarizability: 124.578  -0.000  38.772   0.002  -0.000  38.772
 Approx polarizability: 161.594  -0.000  48.593   0.004  -0.000  48.592
 No NMR shielding tensors so no spin-rotation constants.
 Leave Link  601 at Sun Oct 13 09:50:47 2024, MaxMem=  2684354560 cpu:               2.6 elap:               0.1
 (Enter /usr/local/g16_AVX//g16/l701.exe)
 ... and contract with generalized density number  0.
 Compute integral second derivatives.
 Leave Link  701 at Sun Oct 13 09:50:47 2024, MaxMem=  2684354560 cpu:               4.6 elap:               0.2
 (Enter /usr/local/g16_AVX//g16/l702.exe)
 L702 exits ... SP integral derivatives will be done elsewhere.
 Leave Link  702 at Sun Oct 13 09:50:47 2024, MaxMem=  2684354560 cpu:               0.6 elap:               0.0
 (Enter /usr/local/g16_AVX//g16/l703.exe)
 Integral derivatives from FoFJK, PRISM(SPDF).
 Compute integral second derivatives, UseDBF=F ICtDFT=           0.
 Calling FoFJK, ICntrl=    100127 FMM=F ISym2X=0 I1Cent= 0 IOpClX= 0 NMat=1 NMatS=1 NMatT=0.
 FoFJK:  IHMeth= 1 ICntrl=  100127 DoSepK=F KAlg= 0 I1Cent=           0 FoldK=F
 IRaf=         0 NMat=       1 IRICut=       1 DoRegI=T DoRafI=F ISym2E= 0 IDoP0=0 IntGTp=1.
 FoFCou: FMM=F IPFlag=           0 FMFlag=      100000 FMFlg1=         800
         NFxFlg=           0 DoJE=F BraDBF=F KetDBF=F FulRan=T
         wScrn=  0.000000 ICntrl=    100127 IOpCl=  0 I1Cent=           0 NGrid=           0
         NMat0=    1 NMatS0=      1 NMatT0=    0 NMatD0=    1 NMtDS0=    0 NMtDT0=    0
 Symmetry not used in FoFCou.
 Leave Link  703 at Sun Oct 13 09:50:50 2024, MaxMem=  2684354560 cpu:              66.4 elap:               2.6
 (Enter /usr/local/g16_AVX//g16/l716.exe)
 Dipole        =-1.69254176D+00 5.85160068D-06-1.85006271D-04
 Polarizability= 1.24578437D+02-4.85085155D-05 3.87718688D+01
                 1.79764155D-03-3.54474832D-06 3.87722117D+01
 Full mass-weighted force constant matrix:
 Low frequencies --- -408.8019   -8.3715   -8.2566   -0.0038   -0.0033    0.0001
 Low frequencies ---   78.4945   78.5247  113.6201
 ******    1 imaginary frequencies (negative Signs) ****** 
 Diagonal vibrational polarizability:
      194.7779568      28.1164033      28.0916948
 Harmonic frequencies (cm**-1), IR intensities (KM/Mole), Raman scattering
 activities (A**4/AMU), depolarization ratios for plane and unpolarized
 incident light, reduced masses (AMU), force constants (mDyne/A),
 and normal coordinates:
                      1                      2                      3
                      A                      A                      A
 Frequencies --   -408.8019                78.4944                78.5244
 Red. masses --     12.2860                 7.7729                 7.7738
 Frc consts  --      1.2097                 0.0282                 0.0282
 IR Inten    --   1180.5078                 5.4720                 5.4706
  Atom  AN      X      Y      Z        X      Y      Z        X      Y      Z
     1   6     0.92   0.00  -0.00    -0.00  -0.35  -0.01     0.00   0.01  -0.35
     2  17    -0.14  -0.00   0.00    -0.00   0.12   0.00     0.00  -0.00   0.12
     3   1     0.06   0.00  -0.07    -0.00  -0.37  -0.01    -0.18   0.01  -0.36
     4   1     0.06   0.06   0.03     0.16  -0.37  -0.00     0.09   0.01  -0.37
     5   1     0.06  -0.06   0.03    -0.16  -0.37  -0.01     0.09   0.00  -0.37
     6   6    -0.24  -0.00   0.00     0.00  -0.45  -0.01     0.00   0.01  -0.45
     7   7    -0.25   0.00  -0.00     0.00   0.46   0.01    -0.00  -0.01   0.46
                      4                      5                      6
                      A                      A                      A
 Frequencies --    230.4326               272.4141               272.4264
 Red. masses --     18.3597                 5.3164                 5.3162
 Frc consts  --      0.5744                 0.2324                 0.2325
 IR Inten    --      4.9099                11.4542                11.4550
  Atom  AN      X      Y      Z        X      Y      Z        X      Y      Z
     1   6    -0.13  -0.00   0.00     0.00   0.44   0.02     0.00  -0.02   0.44
     2  17     0.50   0.00  -0.00    -0.00  -0.09  -0.00    -0.00   0.00  -0.09
     3   1     0.02  -0.00   0.02    -0.00   0.45   0.03    -0.04  -0.02   0.46
     4   1     0.02  -0.01  -0.01     0.03   0.46   0.03     0.02  -0.02   0.45
     5   1     0.02   0.01  -0.01    -0.03   0.46   0.02     0.02  -0.03   0.45
     6   6    -0.60   0.00  -0.00     0.00  -0.40  -0.02     0.00   0.02  -0.40
     7   7    -0.61   0.00  -0.00     0.00   0.09   0.00     0.00  -0.00   0.09
                      7                      8                      9
                      A                      A                      A
 Frequencies --    981.4091               981.4729              1068.0879
 Red. masses --      1.0244                 1.0244                 1.0483
 Frc consts  --      0.5813                 0.5814                 0.7046
 IR Inten    --      0.0292                 0.0293                92.5830
  Atom  AN      X      Y      Z        X      Y      Z        X      Y      Z
     1   6    -0.00  -0.00  -0.02     0.00  -0.02   0.00    -0.03  -0.00   0.00
     2  17     0.00   0.00   0.01     0.00   0.01  -0.00    -0.02  -0.00   0.00
     3   1     0.81   0.00   0.05    -0.02   0.07  -0.00     0.57  -0.00   0.05
     4   1    -0.42  -0.00   0.06    -0.69   0.06  -0.01     0.57  -0.04  -0.02
     5   1    -0.39   0.01   0.06     0.71   0.06   0.00     0.57   0.04  -0.02
     6   6     0.00  -0.00  -0.02    -0.00  -0.02   0.00    -0.02  -0.00   0.00
     7   7    -0.00   0.00   0.00     0.00   0.00  -0.00    -0.03   0.00  -0.00
                     10                     11                     12
                      A                      A                      A
 Frequencies --   1409.4880              1409.5292              2176.0676
 Red. masses --      1.1009                 1.1009                12.7401
 Frc consts  --      1.2886                 1.2886                35.5442
 IR Inten    --      4.2313                 4.2305                 1.2541
  Atom  AN      X      Y      Z        X      Y      Z        X      Y      Z
     1   6    -0.00  -0.00  -0.09     0.00  -0.09   0.00     0.00   0.00  -0.00
     2  17    -0.00   0.00   0.00     0.00   0.00  -0.00    -0.00  -0.00   0.00
     3   1    -0.08   0.02  -0.09     0.00   0.80   0.00    -0.05   0.00  -0.00
     4   1     0.04  -0.38   0.57     0.07   0.15  -0.40    -0.05   0.00   0.00
     5   1     0.04   0.39   0.59    -0.07   0.12   0.37    -0.05  -0.00   0.00
     6   6    -0.00   0.00   0.00     0.00   0.00  -0.00     0.76  -0.00   0.00
     7   7    -0.00  -0.00  -0.00     0.00  -0.00   0.00    -0.64   0.00  -0.00
                     13                     14                     15
                      A                      A                      A
 Frequencies --   3189.0105              3383.2660              3383.3593
 Red. masses --      1.0093                 1.1230                 1.1230
 Frc consts  --      6.0475                 7.5736                 7.5740
 IR Inten    --      0.4094                 1.8221                 1.8198
  Atom  AN      X      Y      Z        X      Y      Z        X      Y      Z
     1   6     0.01   0.00   0.00     0.00  -0.10  -0.00    -0.00   0.00  -0.10
     2  17    -0.00  -0.00  -0.00    -0.00   0.00   0.00    -0.00  -0.00   0.00
     3   1    -0.05  -0.00   0.58    -0.00  -0.01   0.02    -0.08  -0.00   0.81
     4   1    -0.05  -0.50  -0.29     0.07   0.61   0.36     0.04   0.34   0.18
     5   1    -0.05   0.50  -0.29    -0.06   0.60  -0.35     0.04  -0.37   0.20
     6   6     0.00  -0.00  -0.00     0.00   0.00   0.00     0.00  -0.00   0.00
     7   7     0.00  -0.00   0.00     0.00  -0.00  -0.00     0.00   0.00  -0.00

 -------------------
 - Thermochemistry -
 -------------------
 Temperature   298.150 Kelvin.  Pressure   1.00000 Atm.
 Atom     1 has atomic number  6 and mass  12.00000
 Atom     2 has atomic number 17 and mass  34.96885
 Atom     3 has atomic number  1 and mass   1.00783
 Atom     4 has atomic number  1 and mass   1.00783
 Atom     5 has atomic number  1 and mass   1.00783
 Atom     6 has atomic number  6 and mass  12.00000
 Atom     7 has atomic number  7 and mass  14.00307
 Molecular mass:    75.99540 amu.
 Principal axes and moments of inertia in atomic units:
                           1         2         3
     Eigenvalues --    12.391291449.737621449.73847
           X            1.00000  -0.00000   0.00000
           Y            0.00000   1.00000   0.00142
           Z           -0.00000  -0.00142   1.00000
 This molecule is an asymmetric top.
 Rotational symmetry number  1.
 Rotational temperatures (Kelvin)      6.98990     0.05974     0.05974
 Rotational constants (GHZ):         145.64592     1.24487     1.24487
    1 imaginary frequencies ignored.
 Zero-point vibrational energy     113130.7 (Joules/Mol)
                                   27.03890 (Kcal/Mol)
 Warning -- explicit consideration of   5 degrees of freedom as
           vibrations may cause significant error
 Vibrational temperatures:    112.94   112.98   331.54   391.94   391.96
          (Kelvin)           1412.03  1412.12  1536.74  2027.94  2028.00
                             3130.88  4588.27  4867.77  4867.90
 
 Zero-point correction=                           0.043089 (Hartree/Particle)
 Thermal correction to Energy=                    0.049023
 Thermal correction to Enthalpy=                  0.049967
 Thermal correction to Gibbs Free Energy=         0.013444
 Sum of electronic and zero-point Energies=           -592.943809
 Sum of electronic and thermal Energies=              -592.937875
 Sum of electronic and thermal Enthalpies=            -592.936931
 Sum of electronic and thermal Free Energies=         -592.973454
 
                     E (Thermal)             CV                S
                      KCal/Mol        Cal/Mol-Kelvin    Cal/Mol-Kelvin
 Total                   30.762             16.447             76.869
 Electronic               0.000              0.000              0.000
 Translational            0.889              2.981             38.900
 Rotational               0.889              2.981             24.769
 Vibrational             28.985             10.485             13.201
 Vibration     1          0.600              1.964              3.928
 Vibration     2          0.600              1.964              3.927
 Vibration     3          0.652              1.794              1.876
 Vibration     4          0.675              1.724              1.581
 Vibration     5          0.675              1.724              1.581
                       Q            Log10(Q)             Ln(Q)
 Total Bot       0.654776D-06         -6.183907        -14.238972
 Total V=0       0.432257D+14         13.635742         31.397456
 Vib (Bot)       0.435276D-18        -18.361235        -42.278307
 Vib (Bot)    1  0.262428D+01          0.419010          0.964805
 Vib (Bot)    2  0.262326D+01          0.418841          0.964418
 Vib (Bot)    3  0.854570D+00         -0.068252         -0.157156
 Vib (Bot)    4  0.708563D+00         -0.149621         -0.344516
 Vib (Bot)    5  0.708527D+00         -0.149644         -0.344568
 Vib (V=0)       0.287352D+02          1.458414          3.358122
 Vib (V=0)    1  0.317148D+01          0.501263          1.154200
 Vib (V=0)    2  0.317048D+01          0.501126          1.153884
 Vib (V=0)    3  0.149010D+01          0.173214          0.398841
 Vib (V=0)    4  0.136722D+01          0.135837          0.312776
 Vib (V=0)    5  0.136719D+01          0.135827          0.312754
 Electronic      0.100000D+01          0.000000          0.000000
 Translational   0.260396D+08          7.415635         17.075130
 Rotational      0.577688D+05          4.761693         10.964204
 
                                                       RxCoord=0.10000 DE=55.29
                                                             IR Spectrum
 
      3      3                                     2                            1           1                                        
      3      1                                     1                            4           0   9                         2 2        
      8      8                                     7                            0           6   8                         7 3     7  
      3      9                                     6                            9           8   1                         2 0     8  
 
      X      X                                     X                            X           X   X                         X X     X  
                                                                                X           X                             X       X  
                                                                                            X                             X          
                                                                                            X                             X          
                                                                                            X                             X          
                                                                                            X                                        
                                                                                            X                                        
                                                                                            X                                        
                                                                                            X                                        
                                                                                            X                                        
                                                                                            X                                        
                                                                                            X                                        
                                                                                            X                                        
                                                                                            X                                        
                                                                                            X                                        
                                                                                            X                                        
                                                                                            X                                        
                                                                                            X                                        
                                                                                            X                                        
                                                                                            X                                        
 
 -------------------------------------------------------------------
 Center     Atomic                   Forces (Hartrees/Bohr)
 Number     Number              X              Y              Z
 -------------------------------------------------------------------
      1        6           0.000295130    0.000000432    0.000001737
      2       17          -0.001182030   -0.000000047    0.000001159
      3        1           0.000240321   -0.000002389    0.000986761
      4        1           0.000240573   -0.000870252   -0.000497107
      5        1           0.000240408    0.000872258   -0.000492960
      6        6          -0.000244057   -0.000000062    0.000001962
      7        7           0.000409654    0.000000060   -0.000001552
 -------------------------------------------------------------------
 Cartesian Forces:  Max     0.001182030 RMS     0.000481422
 Z-matrix is all fixed cartesians, so copy forces.
 Force constants in Cartesian coordinates: 
                1             2             3             4             5 
      1 -0.488445D-01
      2 -0.316526D-05  0.683582D+00
      3  0.590732D-04 -0.142220D-05  0.683569D+00
      4  0.363810D-01  0.000000D+00 -0.427018D-05  0.495915D-01
      5  0.000000D+00 -0.195976D-01  0.000000D+00  0.000000D+00  0.101272D-01
      6 -0.831329D-05  0.000000D+00 -0.195961D-01  0.188572D-05  0.000000D+00
      7 -0.116030D-01 -0.786136D-04  0.337102D-01 -0.195382D-01 -0.234568D-04
      8 -0.704159D-04 -0.537531D-01  0.759424D-03  0.814260D-05  0.276243D-03
      9  0.301684D-01  0.759334D-03 -0.378752D+00 -0.352610D-02 -0.879168D-05
     10 -0.116077D-01 -0.291898D-01 -0.169467D-01 -0.195426D-01 -0.864421D-02
     11 -0.261255D-01 -0.296828D+00 -0.141080D+00  0.304917D-02  0.310305D-02
     12 -0.151672D-01 -0.141075D+00 -0.135637D+00  0.177015D-02  0.164061D-02
     13 -0.116083D-01  0.292712D-01 -0.168113D-01 -0.195426D-01  0.866750D-02
     14  0.261987D-01 -0.298142D+00  0.140322D+00 -0.305751D-02  0.311823D-02
     15 -0.150461D-01  0.140317D+00 -0.134324D+00  0.175592D-02 -0.163171D-02
     16  0.246865D-01  0.000000D+00 -0.202817D-05 -0.172251D-01  0.000000D+00
     17  0.000000D+00 -0.193614D-01  0.000000D+00  0.000000D+00  0.358201D-02
     18 -0.198893D-04  0.000000D+00 -0.193615D-01  0.878054D-05  0.000000D+00
     19  0.225960D-01  0.000000D+00 -0.493016D-05 -0.101240D-01  0.000000D+00
     20  0.000000D+00  0.410016D-02  0.000000D+00  0.000000D+00 -0.609124D-03
     21  0.140530D-04  0.000000D+00  0.410077D-02 -0.637019D-05  0.000000D+00
                6             7             8             9            10 
      6  0.101313D-01
      7  0.999446D-02  0.411364D-01
      8 -0.866933D-05  0.718453D-04  0.453873D-01
      9  0.405248D-02 -0.307401D-01 -0.794235D-03  0.385314D+00
     10 -0.501577D-02  0.139935D-02  0.191713D-02  0.194514D-02  0.411469D-01
     11  0.164024D-02 -0.713153D-03  0.450492D-02  0.398971D-02  0.266209D-01
     12  0.122738D-02 -0.263805D-02 -0.233204D-01 -0.677528D-02  0.154507D-01
     13 -0.497537D-02  0.139925D-02 -0.192617D-02  0.193616D-02  0.139727D-02
     14 -0.163144D-02  0.725437D-03  0.441439D-02 -0.393744D-02  0.264303D-02
     15  0.121205D-02 -0.263478D-02  0.233724D-01 -0.668459D-02  0.704078D-03
     16  0.170143D-05 -0.108726D-01  0.000000D+00 -0.416571D-03 -0.108727D-01
     17  0.000000D+00  0.207752D-04 -0.114068D-02 -0.115374D-04  0.772128D-02
     18  0.358198D-02 -0.892543D-02 -0.115420D-04  0.380699D-02  0.448426D-02
     19  0.140919D-05 -0.192129D-02 -0.147636D-05  0.633104D-03 -0.192051D-02
     20  0.000000D+00 -0.283410D-05  0.310942D-03  0.295731D-05 -0.106827D-02
     21 -0.609116D-03  0.123376D-02  0.297291D-05 -0.961576D-03 -0.621629D-03
               11            12            13            14            15 
     11  0.299621D+00
     12  0.147560D+00  0.131034D+00
     13 -0.264617D-02  0.691612D-03  0.411476D-01
     14 -0.123201D-01  0.136006D-01 -0.266952D-01  0.300995D+00
     15 -0.137050D-01  0.100547D-01  0.153272D-01 -0.146767D+00  0.129660D+00
     16  0.361355D-03  0.210225D-03 -0.108728D-01 -0.362450D-03  0.208529D-03
     17  0.256040D-02  0.214672D-02 -0.774238D-02  0.258036D-02 -0.213512D-02
     18  0.214771D-02  0.106449D-03  0.444830D-02 -0.213610D-02  0.864342D-04
     19 -0.546620D-03 -0.317408D-03 -0.192048D-02  0.548063D-03 -0.314833D-03
     20 -0.640959D-03 -0.552407D-03  0.107127D-02 -0.646127D-03  0.549441D-03
     21 -0.552666D-03 -0.102083D-04 -0.616632D-03  0.549682D-03 -0.506480D-05
               16            17            18            19            20 
     16  0.117669D+01
     17 -0.164042D-04  0.163194D-01
     18  0.446935D-03  0.000000D+00  0.163200D-01
     19 -0.115154D+01  0.163006D-04 -0.442957D-03  0.114483D+01
     20  0.165117D-04 -0.454006D-02  0.000000D+00 -0.163977D-04  0.202517D-02
     21 -0.448792D-03  0.000000D+00 -0.454035D-02  0.445615D-03  0.000000D+00
               21 
     21  0.202555D-02
 Leave Link  716 at Sun Oct 13 09:50:50 2024, MaxMem=  2684354560 cpu:               0.9 elap:               0.1
 (Enter /usr/local/g16_AVX//g16/l103.exe)

 GradGradGradGradGradGradGradGradGradGradGradGradGradGradGradGradGradGrad
 Berny optimization.
 Search for a local minimum.
 Step number   1 out of a maximum of    2
 All quantities printed in internal units (Hartrees-Bohrs-Radians)
 Second derivative matrix not updated -- analytic derivatives used.
 ITU=  0
     Eigenvalues ---   -0.08153   0.00220   0.00220   0.02067   0.02067
     Eigenvalues ---    0.03672   0.04271   0.04271   0.07226   0.10700
     Eigenvalues ---    0.10700   0.39341   0.99590   0.99591   2.31149
 Eigenvalue     1 is  -8.15D-02 should be greater than     0.000000 Eigenvector:
                          X1        X2        X7        X6        Z3
   1                    0.90119  -0.25715  -0.23573  -0.23414  -0.05919
                          Y5        Y4        Z4        Z5        X3
   1                   -0.05133   0.05119   0.02970   0.02946   0.01669
 Angle between quadratic step and forces=  46.16 degrees.
 Linear search not attempted -- first point.
 B after Tr=    -0.002271    0.000004   -0.000049
         Rot=    1.000000    0.000000    0.000002    0.000000 Ang=   0.00 deg.
 Variable       Old X    -DE/DX   Delta X   Delta X   Delta X     New X
                                 (Linear)    (Quad)   (Total)
    X1       -0.00382   0.00030   0.00000   0.00473   0.00246  -0.00136
    Y1        0.00001   0.00000   0.00000  -0.00001  -0.00000   0.00001
    Z1       -0.00028   0.00000   0.00000   0.00007   0.00002  -0.00026
    X2       -4.15771  -0.00118   0.00000  -0.01380  -0.01607  -4.17377
    Y2       -0.00000  -0.00000   0.00000   0.00001   0.00001   0.00001
    Z2        0.00011   0.00000   0.00000  -0.00010  -0.00017  -0.00006
    X3        0.19099   0.00024   0.00000   0.00404   0.00178   0.19277
    Y3        0.00474  -0.00000   0.00000  -0.00002  -0.00001   0.00473
    Z3       -2.02471   0.00099   0.00000   0.00253   0.00248  -2.02223
    X4        0.19124   0.00024   0.00000   0.00391   0.00164   0.19288
    Y4        1.75092  -0.00087   0.00000  -0.00221  -0.00221   1.74871
    Z4        1.01593  -0.00050   0.00000  -0.00108  -0.00113   1.01480
    X5        0.19126   0.00024   0.00000   0.00389   0.00162   0.19288
    Y5       -1.75563   0.00087   0.00000   0.00220   0.00220  -1.75342
    Z5        1.00774  -0.00049   0.00000  -0.00107  -0.00112   1.00662
    X6        4.37309  -0.00024   0.00000   0.00637   0.00410   4.37719
    Y6        0.00002  -0.00000   0.00000  -0.00002  -0.00001   0.00000
    Z6       -0.00045   0.00000   0.00000   0.00026   0.00022  -0.00023
    X7        6.59719   0.00041   0.00000   0.00675   0.00448   6.60167
    Y7       -0.00002   0.00000   0.00000   0.00002   0.00002   0.00001
    Z7        0.00042  -0.00000   0.00000  -0.00028  -0.00031   0.00012
         Item               Value     Threshold  Converged?
 Maximum Force            0.001182     0.000450     NO 
 RMS     Force            0.000481     0.000300     NO 
 Maximum Displacement     0.016068     0.001800     NO 
 RMS     Displacement     0.003953     0.001200     NO 
 Predicted change in Energy=-1.622141D-05
 GradGradGradGradGradGradGradGradGradGradGradGradGradGradGradGradGradGrad

 Leave Link  103 at Sun Oct 13 09:50:50 2024, MaxMem=  2684354560 cpu:               0.7 elap:               0.1
 (Enter /usr/local/g16_AVX//g16/l9999.exe)

 ----------------------------------------------------------------------

 Electric dipole moment (input orientation):
 (Debye = 10**-18 statcoulomb cm , SI units = C m)
                  (au)            (Debye)         (10**-30 SI)
   Tot        0.169254D+01      0.430201D+01      0.143500D+02
   x         -0.169254D+01     -0.430201D+01     -0.143500D+02
   y          0.000000D+00      0.000000D+00      0.000000D+00
   z         -0.185006D-03     -0.470239D-03     -0.156855D-02

 Dipole polarizability, Alpha (input orientation).
 (esu units = cm**3 , SI units = C**2 m**2 J**-1)
 Alpha(0;0):
               (au)            (10**-24 esu)      (10**-40 SI)
   iso        0.673742D+02      0.998382D+01      0.111085D+02
   aniso      0.858064D+02      0.127152D+02      0.141476D+02
   xx         0.124578D+03      0.184606D+02      0.205402D+02
   yx        -0.485085D-04     -0.718822D-05     -0.799797D-05
   yy         0.387719D+02      0.574540D+01      0.639262D+01
   zx         0.179764D-02      0.266383D-03      0.296391D-03
   zy         0.000000D+00      0.000000D+00      0.000000D+00
   zz         0.387722D+02      0.574545D+01      0.639267D+01

 ----------------------------------------------------------------------

 Dipole orientation:
     6         -0.00028115          0.00000944          0.00382106
    17          0.00056596         -0.00001816          4.15770546
     1         -2.02473389          0.00474709         -0.19077329
     1          1.01591325          1.75091722         -0.19134906
     1          1.00771294         -1.75562831         -0.19137540
     6         -0.00092776          0.00003213         -4.37308696
     7         -0.00029782          0.00000769         -6.59719453

 Electric dipole moment (dipole orientation):
 (Debye = 10**-18 statcoulomb cm , SI units = C m)
                  (au)            (Debye)         (10**-30 SI)
   Tot        0.169254D+01      0.430201D+01      0.143500D+02
   x          0.000000D+00      0.000000D+00      0.000000D+00
   y          0.000000D+00      0.000000D+00      0.000000D+00
   z          0.169254D+01      0.430201D+01      0.143500D+02

 Dipole polarizability, Alpha (dipole orientation).
 (esu units = cm**3 , SI units = C**2 m**2 J**-1)
 Alpha(0;0):
               (au)            (10**-24 esu)      (10**-40 SI)
   iso        0.673742D+02      0.998382D+01      0.111085D+02
   aniso      0.858064D+02      0.127152D+02      0.141476D+02
   xx         0.387722D+02      0.574545D+01      0.639267D+01
   yx         0.000000D+00      0.000000D+00      0.000000D+00
   yy         0.387719D+02      0.574540D+01      0.639262D+01
   zx         0.758156D-02      0.112347D-02      0.125003D-02
   zy        -0.248175D-03     -0.367758D-04     -0.409186D-04
   zz         0.124578D+03      0.184606D+02      0.205402D+02

 ----------------------------------------------------------------------
 1\1\GINC-NODO7\Freq\RB3LYP\6-31++G(d,p)\C2H3Cl1N1(1-)\ALANQF\13-Oct-20
 24\0\\#p b3lyp 6-31++g(d,p) scf=verytight NoSymm freq=noraman int=ultr
 afine\\RxCoord=0.10000 DE=55.29\\-1,1\C,-0.002022,0.000005,-0.000149\C
 l,-2.200163,-0.000002,0.000059\H,0.10107,0.002508,-1.071432\H,0.101202
 ,0.926547,0.537606\H,0.10121,-0.929037,0.533273\C,2.314138,0.000009,-0
 .000238\N,3.491085,-0.000008,0.000224\\Version=ES64L-G16RevB.01\HF=-59
 2.9868985\RMSD=2.302e-09\RMSF=4.814e-04\ZeroPoint=0.0430892\Thermal=0.
 0490231\Dipole=-1.6338632,0.0000064,-0.0001997\DipoleDeriv=3.430652,0.
 0000072,-0.0001846,0.000011,0.0836152,0.0000005,-0.0002691,0.0000003,0
 .0836365,-2.0045287,-0.0000025,0.0000692,-0.000004,-0.5486815,0.,0.000
 1181,0.,-0.5486816,-0.1705159,0.0000062,-0.0029343,0.0000557,0.068665,
 0.0000525,-0.0243416,0.0000524,0.0461667,-0.1705337,0.0025495,0.001496
 4,0.021052,0.051853,-0.0097644,0.0122442,-0.0097555,0.0629973,-0.17053
 37,-0.0025575,0.0014847,-0.0211105,0.0517623,0.0097114,0.0121454,0.009
 7029,0.0630883,-0.8107656,-0.0000035,0.000079,-0.0000195,-0.3004159,0.
 ,0.0005177,0.,-0.3004095,-1.1037744,0.0000006,-0.0000104,0.0000153,-0.
 4067981,0.,-0.0004147,0.,-0.4067977\Polar=124.5784372,-0.0000485,38.77
 18688,0.0017976,-0.0000035,38.7722117\Quadrupole=-26.0270876,13.013699
 8,13.0133877,0.0000214,-0.0006913,-0.0000009\PG=C01 [X(C2H3Cl1N1)]\NIm
 ag=1\\-0.04884447,-0.00000317,0.68358187,0.00005907,-0.00000142,0.6835
 6942,0.03638100,0.00000016,-0.00000427,0.04959148,0.00000014,-0.019597
 62,0.00000001,0.00000012,0.01012720,-0.00000831,0.,-0.01959610,0.00000
 189,-0.00000012,0.01013133,-0.01160301,-0.00007861,0.03371018,-0.01953
 817,-0.00002346,0.00999446,0.04113643,-0.00007042,-0.05375311,0.000759
 42,0.00000814,0.00027624,-0.00000867,0.00007185,0.04538729,0.03016841,
 0.00075933,-0.37875232,-0.00352610,-0.00000879,0.00405248,-0.03074015,
 -0.00079423,0.38531429,-0.01160773,-0.02918984,-0.01694673,-0.01954264
 ,-0.00864421,-0.00501577,0.00139935,0.00191713,0.00194514,0.04114693,-
 0.02612545,-0.29682816,-0.14108017,0.00304917,0.00310305,0.00164024,-0
 .00071315,0.00450492,0.00398971,0.02662087,0.29962085,-0.01516719,-0.1
 4107537,-0.13563663,0.00177015,0.00164061,0.00122738,-0.00263805,-0.02
 332035,-0.00677528,0.01545066,0.14756021,0.13103361,-0.01160826,0.0292
 7119,-0.01681129,-0.01954258,0.00866750,-0.00497537,0.00139925,-0.0019
 2617,0.00193616,0.00139727,-0.00264617,0.00069161,0.04114756,0.0261986
 6,-0.29814173,0.14032215,-0.00305751,0.00311823,-0.00163144,0.00072544
 ,0.00441439,-0.00393744,0.00264303,-0.01232011,0.01360059,-0.02669523,
 0.30099498,-0.01504614,0.14031747,-0.13432368,0.00175592,-0.00163171,0
 .00121205,-0.00263478,0.02337240,-0.00668459,0.00070408,-0.01370503,0.
 01005468,0.01532722,-0.14676745,0.12966017,0.02468648,0.00000009,-0.00
 000203,-0.01722513,-0.00000005,0.00000170,-0.01087255,0.00000095,-0.00
 041657,-0.01087267,0.00036135,0.00021022,-0.01087275,-0.00036245,0.000
 20853,1.17669265,0.00000074,-0.01936141,0.,-0.00000032,0.00358201,0.,0
 .00002078,-0.00114068,-0.00001154,0.00772128,0.00256040,0.00214672,-0.
 00774238,0.00258036,-0.00213512,-0.00001640,0.01631938,-0.00001989,-0.
 00000002,-0.01936145,0.00000878,0.,0.00358198,-0.00892543,-0.00001154,
 0.00380699,0.00448426,0.00214771,0.00010645,0.00444830,-0.00213610,0.0
 0008643,0.00044694,-0.00000006,0.01631995,0.02259600,0.00000018,-0.000
 00493,-0.01012396,-0.00000005,0.00000141,-0.00192129,-0.00000148,0.000
 63310,-0.00192051,-0.00054662,-0.00031741,-0.00192048,0.00054806,-0.00
 031483,-1.15153602,0.00001630,-0.00044296,1.14482626,-0.00000051,0.004
 10016,0.,0.00000023,-0.00060912,0.,-0.00000283,0.00031094,0.00000296,-
 0.00106827,-0.00064096,-0.00055241,0.00107127,-0.00064613,0.00054944,0
 .00001651,-0.00454006,0.,-0.00001640,0.00202517,0.00001405,0.,0.004100
 77,-0.00000637,0.,-0.00060912,0.00123376,0.00000297,-0.00096158,-0.000
 62163,-0.00055267,-0.00001021,-0.00061663,0.00054968,-0.00000506,-0.00
 044879,0.,-0.00454035,0.00044562,0.,0.00202555\\-0.00029513,-0.0000004
 3,-0.00000174,0.00118203,0.00000005,-0.00000116,-0.00024032,0.00000239
 ,-0.00098676,-0.00024057,0.00087025,0.00049711,-0.00024041,-0.00087226
 ,0.00049296,0.00024406,0.00000006,-0.00000196,-0.00040965,-0.00000006,
 0.00000155\\\@


 PERICLES, SOPHOCLES,
 PELOPONESIAN WAR,
 FRENCH VERBS, LATIN VERBS
 H2SO4.
 Job cpu time:       0 days  0 hours  3 minutes 47.0 seconds.
 Elapsed time:       0 days  0 hours  0 minutes  9.7 seconds.
 File lengths (MBytes):  RWF=     88 Int=      0 D2E=      0 Chk=      2 Scr=      2
 Normal termination of Gaussian 16 at Sun Oct 13 09:50:50 2024.
