RxCoord=0.10000 DE=55.29                                                
Freq      RB3LYP                                                      6-31++G(d,p)        
Number of atoms                            I                7
Info1-9                                    I   N=           9
          16          16           0           0           0         100
           6          18        -502
Full Title                                 C   N=           2
RxCoord=0.10000 DE=55.29
Route                                      C   N=           6
#p b3lyp 6-31++g(d,p) scf=verytight NoSymm freq=noraman int=
ultrafine   
Charge                                     I               -1
Multiplicity                               I                1
Number of electrons                        I               40
Number of alpha electrons                  I               20
Number of beta electrons                   I               20
Number of basis functions                  I               98
Number of independent functions            I               98
Number of point charges in /Mol/           I                0
Number of translation vectors              I                0
Atomic numbers                             I   N=           7
           6          17           1           1           1           6
           7
Nuclear charges                            R   N=           7
  6.00000000E+00  1.70000000E+01  1.00000000E+00  1.00000000E+00  1.00000000E+00
  6.00000000E+00  7.00000000E+00
Current cartesian coordinates              R   N=          21
 -3.82102622E-03  9.44863062E-06 -2.81569193E-04 -4.15770550E+00 -3.77945225E-06
  1.11493841E-04  1.90994619E-01  4.73943312E-03 -2.02471304E+00  1.91244063E-01
  1.75092007E+00  1.01592810E+00  1.91259181E-01 -1.75562549E+00  1.00773992E+00
  4.37308703E+00  1.70075351E-05 -4.49754818E-04  6.59719453E+00 -1.51178090E-05
  4.23298652E-04
Number of symbols in /Mol/                 I                0
Force Field                                I                0
Atom Types                                 C   N=           7
                                                            
                        
Int Atom Types                             I   N=           7
           0           0           0           0           0           0
           0
MM charges                                 R   N=           7
  0.00000000E+00  0.00000000E+00  0.00000000E+00  0.00000000E+00  0.00000000E+00
  0.00000000E+00  0.00000000E+00
Integer atomic weights                     I   N=           7
          12          35           1           1           1          12
          14
Real atomic weights                        R   N=           7
  1.20000000E+01  3.49688527E+01  1.00782504E+00  1.00782504E+00  1.00782504E+00
  1.20000000E+01  1.40030740E+01
Atom fragment info                         I   N=           7
           0           0           0           0           0           0
           0
Atom residue num                           I   N=           7
           0           0           0           0           0           0
           0
Nuclear spins                              I   N=           7
           0           3           1           1           1           0
           2
Nuclear ZEff                               R   N=           7
 -3.60000000E+00 -1.42400000E+01 -1.00000000E+00 -1.00000000E+00 -1.00000000E+00
 -3.60000000E+00 -4.55000000E+00
Nuclear ZNuc                               R   N=           7
  6.00000000E+00  1.70000000E+01  1.00000000E+00  1.00000000E+00  1.00000000E+00
  6.00000000E+00  7.00000000E+00
Nuclear QMom                               R   N=           7
  0.00000000E+00 -8.16500000E+00  0.00000000E+00  0.00000000E+00  0.00000000E+00
  0.00000000E+00  2.04400000E+00
Nuclear GFac                               R   N=           7
  0.00000000E+00  8.21874000E-01  2.79284600E+00  2.79284600E+00  2.79284600E+00
  0.00000000E+00  4.03761000E-01
MicOpt                                     I   N=           7
          -1          -1          -1          -1          -1          -1
          -1
Number of residues                         I                0
Number of secondary structures             I                0
Number of contracted shells                I               33
Number of primitive shells                 I               72
Pure/Cartesian d shells                    I                1
Pure/Cartesian f shells                    I                0
Highest angular momentum                   I                2
Largest degree of contraction              I                6
Shell types                                I   N=          33
           0          -1          -1          -1           2           0
          -1          -1          -1          -1           2           0
           0           0           1           0           0           0
           1           0           0           0           1           0
          -1          -1          -1           2           0          -1
          -1          -1           2
Number of primitives per shell             I   N=          33
           6           3           1           1           1           6
           6           3           1           1           1           3
           1           1           1           3           1           1
           1           3           1           1           1           6
           3           1           1           1           6           3
           1           1           1
Shell to atom map                          I   N=          33
           1           1           1           1           1           2
           2           2           2           2           2           3
           3           3           3           4           4           4
           4           5           5           5           5           6
           6           6           6           6           7           7
           7           7           7
Primitive exponents                        R   N=          72
  3.04752488E+03  4.57369518E+02  1.03948685E+02  2.92101553E+01  9.28666296E+00
  3.16392696E+00  7.86827235E+00  1.88128854E+00  5.44249258E-01  1.68714478E-01
  4.38000000E-02  8.00000000E-01  2.51801000E+04  3.78035000E+03  8.60474000E+02
  2.42145000E+02  7.73349000E+01  2.62470000E+01  4.91765000E+02  1.16984000E+02
  3.74153000E+01  1.37834000E+01  5.45215000E+00  2.22588000E+00  3.18649000E+00
  1.14427000E+00  4.20377000E-01  1.42657000E-01  4.83000000E-02  7.50000000E-01
  1.87311370E+01  2.82539436E+00  6.40121692E-01  1.61277759E-01  3.60000000E-02
  1.10000000E+00  1.87311370E+01  2.82539436E+00  6.40121692E-01  1.61277759E-01
  3.60000000E-02  1.10000000E+00  1.87311370E+01  2.82539436E+00  6.40121692E-01
  1.61277759E-01  3.60000000E-02  1.10000000E+00  3.04752488E+03  4.57369518E+02
  1.03948685E+02  2.92101553E+01  9.28666296E+00  3.16392696E+00  7.86827235E+00
  1.88128854E+00  5.44249258E-01  1.68714478E-01  4.38000000E-02  8.00000000E-01
  4.17351146E+03  6.27457911E+02  1.42902093E+02  4.02343293E+01  1.28202129E+01
  4.39043701E+00  1.16263619E+01  2.71627981E+00  7.72218397E-01  2.12031498E-01
  6.39000000E-02  8.00000000E-01
Contraction coefficients                   R   N=          72
  1.83473713E-03  1.40373228E-02  6.88426223E-02  2.32184443E-01  4.67941348E-01
  3.62311985E-01 -1.19332420E-01 -1.60854152E-01  1.14345644E+00  1.00000000E+00
  1.00000000E+00  1.00000000E+00  1.83295985E-03  1.40341988E-02  6.90973943E-02
  2.37451980E-01  4.83033960E-01  3.39855972E-01 -2.29739142E-03 -3.07137189E-02
 -1.12528069E-01  4.50163278E-02  5.89353363E-01  4.65206287E-01 -2.51828028E-01
  6.15892514E-02  1.06018433E+00  1.00000000E+00  1.00000000E+00  1.00000000E+00
  3.34946043E-02  2.34726953E-01  8.13757326E-01  1.00000000E+00  1.00000000E+00
  1.00000000E+00  3.34946043E-02  2.34726953E-01  8.13757326E-01  1.00000000E+00
  1.00000000E+00  1.00000000E+00  3.34946043E-02  2.34726953E-01  8.13757326E-01
  1.00000000E+00  1.00000000E+00  1.00000000E+00  1.83473713E-03  1.40373228E-02
  6.88426223E-02  2.32184443E-01  4.67941348E-01  3.62311985E-01 -1.19332420E-01
 -1.60854152E-01  1.14345644E+00  1.00000000E+00  1.00000000E+00  1.00000000E+00
  1.83477216E-03  1.39946270E-02  6.85865518E-02  2.32240873E-01  4.69069948E-01
  3.60455199E-01 -1.14961182E-01 -1.69117479E-01  1.14585195E+00  1.00000000E+00
  1.00000000E+00  1.00000000E+00
P(S=P) Contraction coefficients            R   N=          72
  0.00000000E+00  0.00000000E+00  0.00000000E+00  0.00000000E+00  0.00000000E+00
  0.00000000E+00  6.89990666E-02  3.16423961E-01  7.44308291E-01  1.00000000E+00
  1.00000000E+00  0.00000000E+00  0.00000000E+00  0.00000000E+00  0.00000000E+00
  0.00000000E+00  0.00000000E+00  0.00000000E+00  3.98940088E-03  3.03177067E-02
  1.29880029E-01  3.27951072E-01  4.53527100E-01  2.52154056E-01 -1.42993147E-02
  3.23572333E-01  7.43507765E-01  1.00000000E+00  1.00000000E+00  0.00000000E+00
  0.00000000E+00  0.00000000E+00  0.00000000E+00  0.00000000E+00  0.00000000E+00
  0.00000000E+00  0.00000000E+00  0.00000000E+00  0.00000000E+00  0.00000000E+00
  0.00000000E+00  0.00000000E+00  0.00000000E+00  0.00000000E+00  0.00000000E+00
  0.00000000E+00  0.00000000E+00  0.00000000E+00  0.00000000E+00  0.00000000E+00
  0.00000000E+00  0.00000000E+00  0.00000000E+00  0.00000000E+00  6.89990666E-02
  3.16423961E-01  7.44308291E-01  1.00000000E+00  1.00000000E+00  0.00000000E+00
  0.00000000E+00  0.00000000E+00  0.00000000E+00  0.00000000E+00  0.00000000E+00
  0.00000000E+00  6.75797439E-02  3.23907296E-01  7.40895140E-01  1.00000000E+00
  1.00000000E+00  0.00000000E+00
Coordinates of each shell                  R   N=          99
 -3.82102622E-03  9.44863062E-06 -2.81569193E-04 -3.82102622E-03  9.44863062E-06
 -2.81569193E-04 -3.82102622E-03  9.44863062E-06 -2.81569193E-04 -3.82102622E-03
  9.44863062E-06 -2.81569193E-04 -3.82102622E-03  9.44863062E-06 -2.81569193E-04
 -4.15770550E+00 -3.77945225E-06  1.11493841E-04 -4.15770550E+00 -3.77945225E-06
  1.11493841E-04 -4.15770550E+00 -3.77945225E-06  1.11493841E-04 -4.15770550E+00
 -3.77945225E-06  1.11493841E-04 -4.15770550E+00 -3.77945225E-06  1.11493841E-04
 -4.15770550E+00 -3.77945225E-06  1.11493841E-04  1.90994619E-01  4.73943312E-03
 -2.02471304E+00  1.90994619E-01  4.73943312E-03 -2.02471304E+00  1.90994619E-01
  4.73943312E-03 -2.02471304E+00  1.90994619E-01  4.73943312E-03 -2.02471304E+00
  1.91244063E-01  1.75092007E+00  1.01592810E+00  1.91244063E-01  1.75092007E+00
  1.01592810E+00  1.91244063E-01  1.75092007E+00  1.01592810E+00  1.91244063E-01
  1.75092007E+00  1.01592810E+00  1.91259181E-01 -1.75562549E+00  1.00773992E+00
  1.91259181E-01 -1.75562549E+00  1.00773992E+00  1.91259181E-01 -1.75562549E+00
  1.00773992E+00  1.91259181E-01 -1.75562549E+00  1.00773992E+00  4.37308703E+00
  1.70075351E-05 -4.49754818E-04  4.37308703E+00  1.70075351E-05 -4.49754818E-04
  4.37308703E+00  1.70075351E-05 -4.49754818E-04  4.37308703E+00  1.70075351E-05
 -4.49754818E-04  4.37308703E+00  1.70075351E-05 -4.49754818E-04  6.59719453E+00
 -1.51178090E-05  4.23298652E-04  6.59719453E+00 -1.51178090E-05  4.23298652E-04
  6.59719453E+00 -1.51178090E-05  4.23298652E-04  6.59719453E+00 -1.51178090E-05
  4.23298652E-04  6.59719453E+00 -1.51178090E-05  4.23298652E-04
Num ILSW                                   I              100
ILSW                                       I   N=         100
           0           1           0           0           2           0
           0           0           0           0         402          -1
           5           0           0           0           2           0
           0           0           0           0           1           0
           1           1           0           0           0           0
           0           0      100000           0          -1           0
           0           0           0           0           0           0
           0           0           0           1           0           0
           0 -2000000000           1           0           0           0
           0           0           4          52           0           0
           0           0           5           0           0           0
           0           0           0           7           0           1
           0           0           0           0           0           0
           0           0           0           0           0           0
           0           0           0           0           0           0
           0           0           0           0           0           0
           0           0           0           0
Num RLSW                                   I               52
RLSW                                       R   N=          52
  8.00000000E-01  7.20000000E-01  1.00000000E+00  8.10000000E-01  2.00000000E-01
  0.00000000E+00  0.00000000E+00  1.00000000E+00  0.00000000E+00  0.00000000E+00
  0.00000000E+00  0.00000000E+00  1.00000000E+00  0.00000000E+00  0.00000000E+00
  0.00000000E+00  0.00000000E+00  1.00000000E+00  0.00000000E+00  0.00000000E+00
  0.00000000E+00  0.00000000E+00  1.00000000E+00  0.00000000E+00  0.00000000E+00
  0.00000000E+00  0.00000000E+00  1.00000000E+00  0.00000000E+00  0.00000000E+00
  0.00000000E+00  0.00000000E+00  1.00000000E+00  0.00000000E+00  0.00000000E+00
  0.00000000E+00  0.00000000E+00  0.00000000E+00  1.00000000E+00  1.00000000E+00
  0.00000000E+00  1.00000000E+00  0.00000000E+00  0.00000000E+00  0.00000000E+00
  0.00000000E+00  0.00000000E+00  0.00000000E+00  0.00000000E+00  0.00000000E+00
  0.00000000E+00  0.00000000E+00
MxBond                                     I                3
NBond                                      I   N=           7
           3           0           1           1           1           1
           1
IBond                                      I   N=          21
           3           4           5           0           0           0
           1           0           0           1           0           0
           1           0           0           7           0           0
           6           0           0
RBond                                      R   N=          21
  1.00000000E+00  1.00000000E+00  1.00000000E+00  0.00000000E+00  0.00000000E+00
  0.00000000E+00  1.00000000E+00  0.00000000E+00  0.00000000E+00  1.00000000E+00
  0.00000000E+00  0.00000000E+00  1.00000000E+00  0.00000000E+00  0.00000000E+00
  3.00000000E+00  0.00000000E+00  0.00000000E+00  3.00000000E+00  0.00000000E+00
  0.00000000E+00
Virial Ratio                               R      2.004700829087488E+00
SCF Energy                                 R     -5.929868985237640E+02
Total Energy                               R     -5.929868985237640E+02
RMS Force                                  R      4.814222571923355E-04
RMS Density                                R      2.302118984563814E-09
NImag                                      I                1
Job Status                                 I                1
Nuclear derivative order                   I                2
External E-field                           R   N=          35
  0.00000000E+00  0.00000000E+00  0.00000000E+00  0.00000000E+00  0.00000000E+00
  0.00000000E+00  0.00000000E+00  0.00000000E+00  0.00000000E+00  0.00000000E+00
  0.00000000E+00  0.00000000E+00  0.00000000E+00  0.00000000E+00  0.00000000E+00
  0.00000000E+00  0.00000000E+00  0.00000000E+00  0.00000000E+00  0.00000000E+00
  0.00000000E+00  0.00000000E+00  0.00000000E+00  0.00000000E+00  0.00000000E+00
  0.00000000E+00  0.00000000E+00  0.00000000E+00  0.00000000E+00  0.00000000E+00
  0.00000000E+00  0.00000000E+00  0.00000000E+00  0.00000000E+00  0.00000000E+00
IOpCl                                      I                0
IROHF                                      I                0
Alpha Orbital Energies                     R   N=          98
 -1.01343600E+02 -1.41351369E+01 -1.01127831E+01 -1.00067453E+01 -9.25836889E+00
 -7.01931539E+00 -7.01429585E+00 -7.01429581E+00 -6.89681252E-01 -6.24511372E-01
 -5.42947019E-01 -3.07660336E-01 -3.07646320E-01 -2.36443220E-01 -1.83589971E-01
 -1.37113668E-01 -1.37113445E-01 -1.28579143E-01 -1.28578795E-01 -1.00463284E-01
  1.11459001E-01  1.25548389E-01  1.48717788E-01  1.48719230E-01  1.58986497E-01
  1.91356191E-01  2.01132590E-01  2.01138230E-01  2.24295182E-01  2.24296288E-01
  2.44721440E-01  2.44723918E-01  2.51232370E-01  2.56355961E-01  2.56361578E-01
  2.56401984E-01  3.08850202E-01  3.42049459E-01  3.42052974E-01  3.70209854E-01
  3.70215130E-01  3.71412081E-01  3.83632898E-01  4.53715257E-01  4.67880177E-01
  7.43113910E-01  7.74811482E-01  7.74820057E-01  7.77390362E-01  8.04244275E-01
  8.04253517E-01  8.66753769E-01  8.66754510E-01  8.93814090E-01  9.65684007E-01
  9.93190670E-01  1.04911940E+00  1.04912760E+00  1.08724863E+00  1.08724880E+00
  1.10211150E+00  1.10212096E+00  1.13130854E+00  1.16599917E+00  1.16600165E+00
  1.24136026E+00  1.31333704E+00  1.40419368E+00  1.51543168E+00  1.60476977E+00
  1.60478597E+00  1.74031155E+00  1.74031274E+00  1.76097922E+00  1.76098165E+00
  1.82842271E+00  2.12512640E+00  2.13438656E+00  2.13445782E+00  2.16321068E+00
  2.16321717E+00  2.17507046E+00  2.54441316E+00  2.65420750E+00  2.65425235E+00
  2.79442582E+00  2.79442642E+00  2.83129696E+00  2.89560470E+00  2.89569422E+00
  3.24530745E+00  3.46137068E+00  3.58532566E+00  3.58540941E+00  4.19138768E+00
  4.45632446E+00  4.50122570E+00  4.59390099E+00
Alpha MO coefficients                      R   N=        9604
 -1.68543800E-06 -7.80187085E-05 -2.97198901E-06  1.13067841E-11 -2.77990176E-10
  2.53467928E-05 -1.32726090E-04 -3.72611683E-10  1.21533793E-08 -1.44463921E-04
  1.38884645E-04 -2.13170310E-11 -2.55381755E-09  8.26088489E-05  9.38513192E-06
  9.38276911E-06  2.14459144E-10 -6.72351818E-09  3.66008757E-12  9.95997604E-01
  1.51499986E-02  1.81759155E-05  5.89304117E-11 -2.04455355E-09 -2.10578911E-02
 -7.04475728E-06 -4.69804183E-11  1.23217720E-09  1.86115987E-03 -5.82107950E-05
 -1.37797977E-10  4.68826649E-09 -1.81542509E-04  4.42240417E-05  2.55246443E-10
 -7.71290490E-09  7.50377471E-03  7.52720764E-03  7.52720772E-03 -7.72415042E-11
  2.26762251E-09  1.08585442E-12 -5.10716951E-06 -1.86456906E-05  6.05520892E-05
  2.46538621E-05  1.16752390E-09 -4.69004738E-07 -5.11122089E-06 -1.86403613E-05
  6.05504284E-05  2.46545398E-05  4.03892215E-07  2.32028867E-07 -5.11115025E-06
 -1.86401947E-05  6.05500897E-05  2.46545325E-05 -4.04796235E-07  2.30122516E-07
 -1.52146337E-06 -5.58768813E-06  2.92944523E-06  1.31959242E-10 -3.45628208E-09
 -1.43102276E-04 -1.78985566E-04  1.27838525E-09 -3.58259680E-08 -2.18058944E-04
 -2.02266798E-05  3.57703075E-10 -8.22294627E-09 -7.61147610E-06 -1.24669813E-06
 -1.24667633E-06  2.89735871E-10 -7.66121800E-09 -2.94582851E-13 -2.92156081E-06
 -1.31104699E-05 -3.87289414E-07 -9.53286026E-11  2.46420736E-09  1.89704775E-04
 -9.12665515E-05  1.83600230E-09 -4.93276297E-08  1.56407175E-04 -1.34434159E-05
  7.50914349E-10 -2.07278413E-08  2.71043089E-06 -7.22966175E-06 -7.22964033E-06
 -2.53108839E-10  6.82534026E-09 -2.16039811E-14 -7.09368903E-06 -5.40161576E-06
 -3.37914835E-05 -1.24339074E-10  2.83089143E-09  1.30358810E-04  7.62918665E-05
  6.07509548E-10 -2.53918132E-08  1.60180506E-03  8.07615907E-04  6.68191834E-09
 -1.86866132E-07 -3.09177448E-05 -1.40816583E-05 -1.40794998E-05 -1.78561522E-10
  3.26521632E-09  2.68124956E-11  1.42288721E-07  1.44204259E-06  7.56211200E-07
  1.36102043E-11 -2.80716793E-10  5.36055315E-06 -4.47022207E-06 -7.82456078E-11
  1.57071554E-09 -5.18312171E-05  1.53796725E-05  2.77818494E-10 -5.23163630E-09
  3.83964251E-04  7.72615500E-05 -1.93256914E-09  4.89614157E-08  5.73710048E-06
  8.06645588E-07  8.06593668E-07 -2.72074016E-11  1.08582824E-09  2.61754827E-12
  4.75269716E-07 -1.09646538E-04 -1.40159226E-04 -9.18036948E-06  1.32413685E-08
 -5.69710915E-06  4.71938199E-07 -1.09584253E-04 -1.40292361E-04 -9.17472464E-06
  4.92378171E-06  2.86029110E-06  4.71685153E-07 -1.09582283E-04 -1.40299079E-04
 -9.17449983E-06 -4.93706226E-06  2.83717488E-06  8.34092844E-05  2.08021785E-04
 -3.42822364E-04  4.58542673E-09 -1.24619247E-07 -1.46101382E-04 -2.88194836E-04
  6.30949568E-09 -1.70889914E-07  3.52697217E-04  1.60599176E-03 -1.39187759E-08
  3.80842169E-07 -8.20772298E-04 -7.68550489E-06 -7.68575227E-06  1.34160627E-08
 -3.64628518E-07  3.83500413E-13  9.92708060E-01  3.44645563E-02 -1.53168737E-03
  2.22888728E-08 -6.05825824E-07  5.04697594E-03  2.18030562E-04 -3.49842212E-09
  9.52279731E-08 -3.04094886E-03 -9.33069033E-05 -1.94659082E-09  5.23085544E-08
 -7.65247782E-03 -8.41276743E-03 -8.41276760E-03 -1.25396689E-08  3.40796635E-07
 -1.05514302E-11  9.93108042E-01  4.92273698E-02 -1.55634926E-05  3.10659775E-10
 -5.82583912E-08 -1.64709662E-02 -9.19411326E-04 -9.10511875E-09  4.81357159E-07
  3.48843281E-03 -1.63270649E-03 -1.42039920E-08  4.76979452E-07 -9.29022399E-03
 -8.45346418E-03 -8.45356939E-03 -4.42343983E-09  9.71184071E-08 -9.98949496E-10
 -6.85786801E-06 -4.69086126E-05 -3.28374460E-05 -1.04392682E-10  1.28323347E-09
 -3.11107302E-04  1.57346721E-04  5.11151737E-10 -2.98858658E-09  1.39697394E-03
  8.99939102E-04  2.83933262E-09 -1.36999284E-07 -2.28228285E-03 -1.05672426E-03
 -1.32189460E-09  5.37663547E-08  2.31873300E-04 -9.16791171E-05 -9.16777930E-05
  1.26518575E-09 -4.88672067E-08 -6.12542299E-11 -1.89181506E-04  3.05222340E-03
 -7.82931231E-04  6.55241663E-05  4.99352102E-07 -2.13560979E-04 -1.89271985E-04
  3.05184349E-03 -7.83398512E-04  6.55715561E-05  1.84739435E-04  1.07211342E-04
 -1.89275686E-04  3.05184330E-03 -7.83408777E-04  6.55731181E-05 -1.85237499E-04
  1.06347618E-04  3.83245008E-06 -2.33830167E-04  4.87927990E-05  7.35524228E-10
 -2.86733081E-08 -2.24402258E-03 -3.89166129E-03  2.83286332E-08 -7.45533073E-07
  5.18234920E-04  2.73960700E-04  9.83629563E-09 -2.19933416E-07  5.61352574E-05
 -4.28113430E-05 -4.28060915E-05  4.33202366E-09 -1.15973307E-07  1.59441531E-10
 -8.12196227E-05 -3.54524837E-04  3.01110087E-05 -3.43800371E-09  9.45809681E-08
  4.28772857E-03 -1.65476896E-03  3.84388456E-08 -1.05220175E-06  5.21590141E-04
 -3.24202176E-04 -6.70491329E-09  1.42397532E-07 -6.90828684E-05 -1.72807503E-04
 -1.72807655E-04 -2.56340443E-09  7.28427529E-08 -2.73388897E-12 -7.19926416E-05
 -2.24712371E-04 -3.44799262E-05  3.40704237E-10 -4.13601751E-09  7.36019476E-04
  8.66015046E-04  1.95178396E-10 -3.79325487E-08  4.61482511E-03  1.35569690E-02
  3.44869082E-08 -9.49797599E-07  1.30549604E-04 -4.38296088E-05 -4.38400318E-05
  3.70851923E-10 -6.27803628E-09 -1.04057331E-10  2.03348600E-07  8.63895662E-06
  1.25199967E-05  9.31369420E-11 -2.57903727E-09  1.49161814E-05 -8.55516392E-05
 -5.94097691E-10  1.62964705E-08 -3.87141356E-04  5.59208211E-04  2.79824454E-09
 -7.56718133E-08  1.04255225E-02  2.90839503E-03  1.24575106E-08 -3.95798394E-07
  7.17991693E-05 -3.76962511E-06 -3.76826128E-06  4.92261950E-10 -1.37991301E-08
  3.44713461E-11 -2.83114487E-05 -4.55440859E-04  3.52158969E-04 -1.76056627E-05
 -3.96423818E-08  1.69580009E-05 -2.83237596E-05 -4.55394506E-04  3.52866867E-04
 -1.75880152E-05 -1.46657603E-05 -8.50878515E-06 -2.83243418E-05 -4.55394652E-04
  3.52894250E-04 -1.75867817E-05  1.47054157E-05 -8.44028097E-06  9.92838020E-01
  4.94683441E-02  1.54089595E-03 -2.80563858E-08  7.58681660E-07 -1.02967265E-02
  5.75663400E-04  1.59130934E-08 -4.19977890E-07 -1.99544292E-02  5.17575135E-03
  5.62805859E-08 -1.38402135E-06 -8.48711185E-03 -9.71703352E-03 -9.71703354E-03
 -2.09732416E-08  5.70050962E-07 -2.01433625E-11 -4.65841364E-04  1.80322351E-04
  3.51546060E-04 -4.89514569E-09  1.31567778E-07 -2.60145308E-03  1.13313113E-03
 -2.04944832E-08  5.62165296E-07  9.43965673E-03 -4.56424742E-03  2.56743347E-08
 -7.60834012E-07 -1.53456968E-04  2.31308328E-04  2.31308873E-04  7.84541312E-09
 -2.12235847E-07  1.46656495E-11 -2.75980193E-05 -1.81216475E-05  1.40616236E-04
  6.63756484E-10 -1.78041927E-08  1.01796710E-03 -1.97974690E-03 -8.70158788E-09
  1.31259272E-07 -1.96741639E-03  2.67989241E-02  7.36156408E-08 -2.04914736E-06
 -5.32167752E-05 -1.44169741E-05 -1.44159334E-05 -2.46299810E-10  9.32521679E-09
 -4.90532509E-10 -2.84623317E-01  1.02274914E+00  2.14996959E-03  6.83367045E-09
 -2.47698634E-07  7.56581926E-02  4.96008954E-04  1.60542304E-09 -4.82040003E-08
 -2.41591315E-02 -1.69830251E-03 -4.99836855E-09  1.51320159E-07  3.54302843E-02
  1.11696840E-02  4.04121931E-08 -1.20150132E-06 -1.54655143E-02 -1.55285018E-02
 -1.55285059E-02  3.69093678E-10 -1.14579091E-08  3.06619867E-11 -3.58844280E-05
 -4.29237470E-04 -8.31206269E-04 -4.00237233E-05 -5.37186280E-08  2.29871675E-05
 -3.59062952E-05 -4.29073741E-04 -8.31007902E-04 -4.00263283E-05 -1.98888438E-05
 -1.15367308E-05 -3.59076424E-05 -4.29074949E-04 -8.30990502E-04 -4.00247982E-05
  1.99419423E-05 -1.14434248E-05  1.09835671E-05  3.02488814E-05  2.42305255E-05
 -2.56712152E-09  6.92021601E-08 -9.58647936E-04 -7.15957139E-04  1.32445497E-08
 -3.62916035E-07 -2.21764815E-02  1.02002352E-02  2.91867661E-08 -5.21050920E-07
  9.90794523E-05  1.49860157E-05  1.49861141E-05  4.49521455E-10 -1.20661293E-08
 -1.83589524E-11 -4.12154936E-05 -1.42138229E-04 -3.11549257E-06 -2.56574802E-09
  6.52430318E-08  1.32303891E-03 -1.54338838E-04  1.26460176E-08 -3.21909445E-07
 -3.89412785E-04 -1.83216186E-03 -2.49284845E-08  5.62107102E-07 -1.10697556E-04
 -8.81741904E-05 -8.81745254E-05  3.94349108E-10 -1.10770975E-08  2.36310572E-12
  8.98774107E-05  4.55235403E-04 -5.56863386E-04 -2.74265289E-09  5.08505548E-08
 -6.25918813E-04  3.37657685E-04  1.47399405E-09 -1.34819687E-08 -1.15957883E-02
 -6.17966895E-02 -1.33641560E-07  3.58381868E-06 -2.95918769E-05  2.59209002E-04
  2.59248373E-04  4.19771971E-10  1.51032277E-09 -6.07749266E-10  6.51381907E-04
 -2.39872209E-03  9.90533048E-01  2.59640910E-06 -9.51821498E-05  1.35731214E-04
  3.08879391E-02  8.23059327E-08 -2.98601747E-06  1.47008568E-03 -1.39048372E-02
 -3.93979439E-08  1.36958952E-06 -4.70251446E-02 -9.10084061E-03 -5.39085205E-08
  1.59125740E-06  1.89589366E-04 -4.07561567E-05 -4.07588073E-05  9.22014586E-11
 -6.55299078E-09 -1.03596797E-10 -1.55855897E-04  1.57662117E-03 -4.72547958E-03
 -2.74703845E-04 -1.23218731E-07  5.23982371E-05 -1.55818206E-04  1.57658553E-03
 -4.72691765E-03 -2.74751246E-04 -4.53111364E-05 -2.62723981E-05 -1.55820571E-04
  1.57658690E-03 -4.72698961E-03 -2.74750897E-04  4.54306675E-05 -2.60599169E-05
 -6.32158219E-05 -2.84587101E-04 -7.27814755E-05  7.83112796E-09 -2.09651225E-07
  2.78295181E-03  7.78752740E-04 -4.18981998E-08  1.13988843E-06  7.46536500E-02
 -2.85841953E-02 -1.55299196E-07  3.44446074E-06 -2.86926586E-05 -1.02410364E-04
 -1.02410648E-04 -2.74157308E-09  7.52977111E-08  7.19663452E-12 -1.96480191E-05
 -6.96078970E-05  3.55226169E-05  3.56645317E-09 -8.61962249E-08 -7.84728136E-05
  2.83434548E-04 -1.75777344E-08  4.23303527E-07 -9.46731778E-03  7.60297843E-03
  4.75000637E-08 -9.56281452E-07 -6.26053157E-05 -3.00355404E-05 -3.00380271E-05
 -5.47890515E-10  1.48332045E-08 -4.44676881E-11 -2.34546917E-10 -1.39351045E-09
 -1.40793309E-09 -5.15021004E-05  5.22963114E-07  4.71119351E-09  1.26213295E-08
  1.89310390E-04 -1.92393191E-06 -3.43219876E-08 -1.28892682E-07  2.43827755E-04
 -2.47278393E-06  1.77815189E-09  9.12299114E-07 -9.14409195E-07 -1.28333865E-04
  1.30280242E-06 -6.14930841E-05  5.11995395E-10 -2.37538605E-09 -3.56400115E-06
  9.90789895E-01 -1.00563496E-02 -5.90618134E-10 -1.05166946E-07  2.96004615E-02
 -3.00439339E-04  1.11799635E-08  4.21823526E-08 -1.15576403E-02  1.17307425E-04
 -9.97223023E-08 -4.93374643E-08  5.13087522E-03 -5.20756323E-05 -1.07205022E-09
 -6.52187026E-08  6.45516386E-08  1.54221107E-04 -1.56528419E-06  4.36886048E-06
 -1.44340076E-06  8.22416667E-06 -5.24442759E-05 -2.09095970E-06 -2.08077741E-05
  1.18626999E-06 -9.93169195E-05  5.66145825E-04 -3.61154895E-03 -1.43981065E-04
 -7.88587109E-05 -3.34697064E-05  1.00758108E-04 -5.74355772E-04  3.66397758E-03
  1.46070360E-04 -7.98591549E-05  3.41052971E-05 -2.95192916E-10 -1.32216349E-09
  1.28901559E-09  5.86369326E-05 -5.95144699E-07  7.11050610E-08  4.76792464E-08
 -2.49864856E-04  2.53588828E-06  1.41472682E-07 -6.67431093E-08  1.01995279E-03
 -1.03485055E-05  2.28929116E-09 -3.06974860E-08  2.78381771E-08  1.74281527E-06
 -1.77732789E-08  1.97444299E-06  1.57663442E-09  6.15117956E-09 -5.93680810E-10
 -2.38299949E-05  2.41714533E-07 -7.47258922E-08  3.70375637E-08  1.44224856E-04
 -1.46300960E-06 -1.67103703E-08  1.79174941E-08 -3.56708532E-04  3.61725749E-06
 -8.05714362E-10 -3.63898043E-08  4.52777981E-08 -1.76526963E-05  1.79162183E-07
  2.74935477E-06  1.28063923E-08  6.82638478E-08  1.88665849E-08 -5.22666158E-07
 -5.15172810E-05 -3.28429003E-07 -2.27192214E-07  1.92012459E-06  1.89420474E-04
  3.43602660E-08  2.58434380E-06  2.47134127E-06  2.43285443E-04 -2.56931526E-08
 -5.32440545E-05  5.33049611E-05 -1.30229263E-06 -1.28330034E-04 -1.05584421E-06
 -1.18356309E-08  5.25450150E-08  9.51874579E-05  1.00563497E-02  9.90789894E-01
  2.22651809E-08  2.82606075E-06  3.00439847E-04  2.96004460E-02 -1.99462801E-07
 -1.09409429E-06 -1.17308498E-04 -1.15576147E-02  2.15408817E-06  1.14937920E-06
  5.20798627E-05  5.13092111E-03  3.31376349E-08  3.81658596E-06 -3.82391557E-06
  1.56535637E-06  1.54221528E-04  7.56744069E-08  1.15542808E-04 -6.58399775E-04
  4.20040179E-03  1.67442360E-04 -2.81749953E-08 -9.88891956E-05 -5.90013150E-05
  3.36421269E-04 -2.14526836E-03 -8.55307326E-05 -3.47019561E-05 -4.08151677E-05
 -5.65036529E-05  3.22178377E-04 -2.05442637E-03 -8.19089857E-05  3.29077595E-05
 -3.98136711E-05  5.03029234E-09  2.16681312E-08 -2.57948976E-08  5.95047165E-07
  5.86253209E-05 -1.38297520E-06 -9.65119866E-07 -2.53610593E-06 -2.49847268E-04
 -2.96082164E-06  1.36060558E-06  1.03601038E-05  1.02033814E-03 -4.49024036E-08