RxCoord=0.19996 DE=55.21                                                
Freq      RB3LYP                                                      6-31++G(d,p)        
Number of atoms                            I                7
Info1-9                                    I   N=           9
          16          16           0           0           0         100
           6          18        -502
Full Title                                 C   N=           2
RxCoord=0.19996 DE=55.21
Route                                      C   N=           6
#p b3lyp 6-31++g(d,p) scf=verytight NoSymm freq=noraman int=
ultrafine   
Charge                                     I               -1
Multiplicity                               I                1
Number of electrons                        I               40
Number of alpha electrons                  I               20
Number of beta electrons                   I               20
Number of basis functions                  I               98
Number of independent functions            I               98
Number of point charges in /Mol/           I                0
Number of translation vectors              I                0
Atomic numbers                             I   N=           7
           6          17           1           1           1           6
           7
Nuclear charges                            R   N=           7
  6.00000000E+00  1.70000000E+01  1.00000000E+00  1.00000000E+00  1.00000000E+00
  6.00000000E+00  7.00000000E+00
Current cartesian coordinates              R   N=          21
 -2.99616077E-02  1.13383567E-05 -2.72120562E-04 -4.15344984E+00 -3.77945225E-06
  1.09604115E-04  1.88730728E-01  4.73187422E-03 -2.02277418E+00  1.89059540E-01
  1.74925144E+00  1.01496434E+00  1.89053871E-01 -1.75395119E+00  1.00678372E+00
  4.37968785E+00  1.51178090E-05 -4.49754818E-04  6.60379156E+00 -1.51178090E-05
  4.19519200E-04
Number of symbols in /Mol/                 I                0
Force Field                                I                0
Atom Types                                 C   N=           7
                                                            
                        
Int Atom Types                             I   N=           7
           0           0           0           0           0           0
           0
MM charges                                 R   N=           7
  0.00000000E+00  0.00000000E+00  0.00000000E+00  0.00000000E+00  0.00000000E+00
  0.00000000E+00  0.00000000E+00
Integer atomic weights                     I   N=           7
          12          35           1           1           1          12
          14
Real atomic weights                        R   N=           7
  1.20000000E+01  3.49688527E+01  1.00782504E+00  1.00782504E+00  1.00782504E+00
  1.20000000E+01  1.40030740E+01
Atom fragment info                         I   N=           7
           0           0           0           0           0           0
           0
Atom residue num                           I   N=           7
           0           0           0           0           0           0
           0
Nuclear spins                              I   N=           7
           0           3           1           1           1           0
           2
Nuclear ZEff                               R   N=           7
 -3.60000000E+00 -1.42400000E+01 -1.00000000E+00 -1.00000000E+00 -1.00000000E+00
 -3.60000000E+00 -4.55000000E+00
Nuclear ZNuc                               R   N=           7
  6.00000000E+00  1.70000000E+01  1.00000000E+00  1.00000000E+00  1.00000000E+00
  6.00000000E+00  7.00000000E+00
Nuclear QMom                               R   N=           7
  0.00000000E+00 -8.16500000E+00  0.00000000E+00  0.00000000E+00  0.00000000E+00
  0.00000000E+00  2.04400000E+00
Nuclear GFac                               R   N=           7
  0.00000000E+00  8.21874000E-01  2.79284600E+00  2.79284600E+00  2.79284600E+00
  0.00000000E+00  4.03761000E-01
MicOpt                                     I   N=           7
          -1          -1          -1          -1          -1          -1
          -1
Number of residues                         I                0
Number of secondary structures             I                0
Number of contracted shells                I               33
Number of primitive shells                 I               72
Pure/Cartesian d shells                    I                1
Pure/Cartesian f shells                    I                0
Highest angular momentum                   I                2
Largest degree of contraction              I                6
Shell types                                I   N=          33
           0          -1          -1          -1           2           0
          -1          -1          -1          -1           2           0
           0           0           1           0           0           0
           1           0           0           0           1           0
          -1          -1          -1           2           0          -1
          -1          -1           2
Number of primitives per shell             I   N=          33
           6           3           1           1           1           6
           6           3           1           1           1           3
           1           1           1           3           1           1
           1           3           1           1           1           6
           3           1           1           1           6           3
           1           1           1
Shell to atom map                          I   N=          33
           1           1           1           1           1           2
           2           2           2           2           2           3
           3           3           3           4           4           4
           4           5           5           5           5           6
           6           6           6           6           7           7
           7           7           7
Primitive exponents                        R   N=          72
  3.04752488E+03  4.57369518E+02  1.03948685E+02  2.92101553E+01  9.28666296E+00
  3.16392696E+00  7.86827235E+00  1.88128854E+00  5.44249258E-01  1.68714478E-01
  4.38000000E-02  8.00000000E-01  2.51801000E+04  3.78035000E+03  8.60474000E+02
  2.42145000E+02  7.73349000E+01  2.62470000E+01  4.91765000E+02  1.16984000E+02
  3.74153000E+01  1.37834000E+01  5.45215000E+00  2.22588000E+00  3.18649000E+00
  1.14427000E+00  4.20377000E-01  1.42657000E-01  4.83000000E-02  7.50000000E-01
  1.87311370E+01  2.82539436E+00  6.40121692E-01  1.61277759E-01  3.60000000E-02
  1.10000000E+00  1.87311370E+01  2.82539436E+00  6.40121692E-01  1.61277759E-01
  3.60000000E-02  1.10000000E+00  1.87311370E+01  2.82539436E+00  6.40121692E-01
  1.61277759E-01  3.60000000E-02  1.10000000E+00  3.04752488E+03  4.57369518E+02
  1.03948685E+02  2.92101553E+01  9.28666296E+00  3.16392696E+00  7.86827235E+00
  1.88128854E+00  5.44249258E-01  1.68714478E-01  4.38000000E-02  8.00000000E-01
  4.17351146E+03  6.27457911E+02  1.42902093E+02  4.02343293E+01  1.28202129E+01
  4.39043701E+00  1.16263619E+01  2.71627981E+00  7.72218397E-01  2.12031498E-01
  6.39000000E-02  8.00000000E-01
Contraction coefficients                   R   N=          72
  1.83473713E-03  1.40373228E-02  6.88426223E-02  2.32184443E-01  4.67941348E-01
  3.62311985E-01 -1.19332420E-01 -1.60854152E-01  1.14345644E+00  1.00000000E+00
  1.00000000E+00  1.00000000E+00  1.83295985E-03  1.40341988E-02  6.90973943E-02
  2.37451980E-01  4.83033960E-01  3.39855972E-01 -2.29739142E-03 -3.07137189E-02
 -1.12528069E-01  4.50163278E-02  5.89353363E-01  4.65206287E-01 -2.51828028E-01
  6.15892514E-02  1.06018433E+00  1.00000000E+00  1.00000000E+00  1.00000000E+00
  3.34946043E-02  2.34726953E-01  8.13757326E-01  1.00000000E+00  1.00000000E+00
  1.00000000E+00  3.34946043E-02  2.34726953E-01  8.13757326E-01  1.00000000E+00
  1.00000000E+00  1.00000000E+00  3.34946043E-02  2.34726953E-01  8.13757326E-01
  1.00000000E+00  1.00000000E+00  1.00000000E+00  1.83473713E-03  1.40373228E-02
  6.88426223E-02  2.32184443E-01  4.67941348E-01  3.62311985E-01 -1.19332420E-01
 -1.60854152E-01  1.14345644E+00  1.00000000E+00  1.00000000E+00  1.00000000E+00
  1.83477216E-03  1.39946270E-02  6.85865518E-02  2.32240873E-01  4.69069948E-01
  3.60455199E-01 -1.14961182E-01 -1.69117479E-01  1.14585195E+00  1.00000000E+00
  1.00000000E+00  1.00000000E+00
P(S=P) Contraction coefficients            R   N=          72
  0.00000000E+00  0.00000000E+00  0.00000000E+00  0.00000000E+00  0.00000000E+00
  0.00000000E+00  6.89990666E-02  3.16423961E-01  7.44308291E-01  1.00000000E+00
  1.00000000E+00  0.00000000E+00  0.00000000E+00  0.00000000E+00  0.00000000E+00
  0.00000000E+00  0.00000000E+00  0.00000000E+00  3.98940088E-03  3.03177067E-02
  1.29880029E-01  3.27951072E-01  4.53527100E-01  2.52154056E-01 -1.42993147E-02
  3.23572333E-01  7.43507765E-01  1.00000000E+00  1.00000000E+00  0.00000000E+00
  0.00000000E+00  0.00000000E+00  0.00000000E+00  0.00000000E+00  0.00000000E+00
  0.00000000E+00  0.00000000E+00  0.00000000E+00  0.00000000E+00  0.00000000E+00
  0.00000000E+00  0.00000000E+00  0.00000000E+00  0.00000000E+00  0.00000000E+00
  0.00000000E+00  0.00000000E+00  0.00000000E+00  0.00000000E+00  0.00000000E+00
  0.00000000E+00  0.00000000E+00  0.00000000E+00  0.00000000E+00  6.89990666E-02
  3.16423961E-01  7.44308291E-01  1.00000000E+00  1.00000000E+00  0.00000000E+00
  0.00000000E+00  0.00000000E+00  0.00000000E+00  0.00000000E+00  0.00000000E+00
  0.00000000E+00  6.75797439E-02  3.23907296E-01  7.40895140E-01  1.00000000E+00
  1.00000000E+00  0.00000000E+00
Coordinates of each shell                  R   N=          99
 -2.99616077E-02  1.13383567E-05 -2.72120562E-04 -2.99616077E-02  1.13383567E-05
 -2.72120562E-04 -2.99616077E-02  1.13383567E-05 -2.72120562E-04 -2.99616077E-02
  1.13383567E-05 -2.72120562E-04 -2.99616077E-02  1.13383567E-05 -2.72120562E-04
 -4.15344984E+00 -3.77945225E-06  1.09604115E-04 -4.15344984E+00 -3.77945225E-06
  1.09604115E-04 -4.15344984E+00 -3.77945225E-06  1.09604115E-04 -4.15344984E+00
 -3.77945225E-06  1.09604115E-04 -4.15344984E+00 -3.77945225E-06  1.09604115E-04
 -4.15344984E+00 -3.77945225E-06  1.09604115E-04  1.88730728E-01  4.73187422E-03
 -2.02277418E+00  1.88730728E-01  4.73187422E-03 -2.02277418E+00  1.88730728E-01
  4.73187422E-03 -2.02277418E+00  1.88730728E-01  4.73187422E-03 -2.02277418E+00
  1.89059540E-01  1.74925144E+00  1.01496434E+00  1.89059540E-01  1.74925144E+00
  1.01496434E+00  1.89059540E-01  1.74925144E+00  1.01496434E+00  1.89059540E-01
  1.74925144E+00  1.01496434E+00  1.89053871E-01 -1.75395119E+00  1.00678372E+00
  1.89053871E-01 -1.75395119E+00  1.00678372E+00  1.89053871E-01 -1.75395119E+00
  1.00678372E+00  1.89053871E-01 -1.75395119E+00  1.00678372E+00  4.37968785E+00
  1.51178090E-05 -4.49754818E-04  4.37968785E+00  1.51178090E-05 -4.49754818E-04
  4.37968785E+00  1.51178090E-05 -4.49754818E-04  4.37968785E+00  1.51178090E-05
 -4.49754818E-04  4.37968785E+00  1.51178090E-05 -4.49754818E-04  6.60379156E+00
 -1.51178090E-05  4.19519200E-04  6.60379156E+00 -1.51178090E-05  4.19519200E-04
  6.60379156E+00 -1.51178090E-05  4.19519200E-04  6.60379156E+00 -1.51178090E-05
  4.19519200E-04  6.60379156E+00 -1.51178090E-05  4.19519200E-04
Num ILSW                                   I              100
ILSW                                       I   N=         100
           0           1           0           0           2           0
           0           0           0           0         402          -1
           5           0           0           0           2           0
           0           0           0           0           1           0
           1           1           0           0           0           0
           0           0      100000           0          -1           0
           0           0           0           0           0           0
           0           0           0           1           0           0
           0 -2000000000           1           0           0           0
           0           0           4          52           0           0
           0           0           5           0           0           0
           0           0           0           7           0           1
           0           0           0           0           0           0
           0           0           0           0           0           0
           0           0           0           0           0           0
           0           0           0           0           0           0
           0           0           0           0
Num RLSW                                   I               52
RLSW                                       R   N=          52
  8.00000000E-01  7.20000000E-01  1.00000000E+00  8.10000000E-01  2.00000000E-01
  0.00000000E+00  0.00000000E+00  1.00000000E+00  0.00000000E+00  0.00000000E+00
  0.00000000E+00  0.00000000E+00  1.00000000E+00  0.00000000E+00  0.00000000E+00
  0.00000000E+00  0.00000000E+00  1.00000000E+00  0.00000000E+00  0.00000000E+00
  0.00000000E+00  0.00000000E+00  1.00000000E+00  0.00000000E+00  0.00000000E+00
  0.00000000E+00  0.00000000E+00  1.00000000E+00  0.00000000E+00  0.00000000E+00
  0.00000000E+00  0.00000000E+00  1.00000000E+00  0.00000000E+00  0.00000000E+00
  0.00000000E+00  0.00000000E+00  0.00000000E+00  1.00000000E+00  1.00000000E+00
  0.00000000E+00  1.00000000E+00  0.00000000E+00  0.00000000E+00  0.00000000E+00
  0.00000000E+00  0.00000000E+00  0.00000000E+00  0.00000000E+00  0.00000000E+00
  0.00000000E+00  0.00000000E+00
MxBond                                     I                3
NBond                                      I   N=           7
           3           0           1           1           1           1
           1
IBond                                      I   N=          21
           3           4           5           0           0           0
           1           0           0           1           0           0
           1           0           0           7           0           0
           6           0           0
RBond                                      R   N=          21
  1.00000000E+00  1.00000000E+00  1.00000000E+00  0.00000000E+00  0.00000000E+00
  0.00000000E+00  1.00000000E+00  0.00000000E+00  0.00000000E+00  1.00000000E+00
  0.00000000E+00  0.00000000E+00  1.00000000E+00  0.00000000E+00  0.00000000E+00
  3.00000000E+00  0.00000000E+00  0.00000000E+00  3.00000000E+00  0.00000000E+00
  0.00000000E+00
Virial Ratio                               R      2.004693540707148E+00
SCF Energy                                 R     -5.929869219220199E+02
Total Energy                               R     -5.929869219220199E+02
RMS Force                                  R      5.926267922467635E-04
RMS Density                                R      2.429672203937296E-09
NImag                                      I                1
Job Status                                 I                1
Nuclear derivative order                   I                2
External E-field                           R   N=          35
  0.00000000E+00  0.00000000E+00  0.00000000E+00  0.00000000E+00  0.00000000E+00
  0.00000000E+00  0.00000000E+00  0.00000000E+00  0.00000000E+00  0.00000000E+00
  0.00000000E+00  0.00000000E+00  0.00000000E+00  0.00000000E+00  0.00000000E+00
  0.00000000E+00  0.00000000E+00  0.00000000E+00  0.00000000E+00  0.00000000E+00
  0.00000000E+00  0.00000000E+00  0.00000000E+00  0.00000000E+00  0.00000000E+00
  0.00000000E+00  0.00000000E+00  0.00000000E+00  0.00000000E+00  0.00000000E+00
  0.00000000E+00  0.00000000E+00  0.00000000E+00  0.00000000E+00  0.00000000E+00
IOpCl                                      I                0
IROHF                                      I                0
Alpha Orbital Energies                     R   N=          98
 -1.01346741E+02 -1.41327628E+01 -1.01122660E+01 -1.00037957E+01 -9.26153428E+00
 -7.02259503E+00 -7.01739771E+00 -7.01739766E+00 -6.87338037E-01 -6.27702176E-01
 -5.42804017E-01 -3.07172654E-01 -3.07159769E-01 -2.34949533E-01 -1.84965582E-01
 -1.35688064E-01 -1.35687655E-01 -1.30251242E-01 -1.30250933E-01 -9.93650658E-02
  1.11604101E-01  1.25328251E-01  1.48734188E-01  1.48735546E-01  1.59255778E-01
  1.91186281E-01  2.01859050E-01  2.01864051E-01  2.23997218E-01  2.23998386E-01
  2.45510336E-01  2.45512070E-01  2.51166182E-01  2.56796477E-01  2.56801986E-01
  2.57046746E-01  3.09063584E-01  3.42129345E-01  3.42132297E-01  3.71190187E-01
  3.71195518E-01  3.72101737E-01  3.83057411E-01  4.54595993E-01  4.68392262E-01
  7.41172831E-01  7.73120814E-01  7.73127707E-01  7.75629810E-01  8.03609628E-01
  8.03620849E-01  8.68114683E-01  8.68115283E-01  8.92496102E-01  9.69284007E-01
  9.94032787E-01  1.04753903E+00  1.04754786E+00  1.08586277E+00  1.08586405E+00
  1.10102208E+00  1.10103034E+00  1.13068967E+00  1.16735702E+00  1.16735852E+00
  1.24183327E+00  1.31587244E+00  1.40107342E+00  1.51499034E+00  1.60395561E+00
  1.60397181E+00  1.74267140E+00  1.74267280E+00  1.76353798E+00  1.76354021E+00
  1.82914896E+00  2.12619581E+00  2.13740038E+00  2.13747407E+00  2.16556218E+00
  2.16556877E+00  2.17452260E+00  2.54917969E+00  2.64666061E+00  2.64670256E+00
  2.79678969E+00  2.79679063E+00  2.83084029E+00  2.90131246E+00  2.90140166E+00
  3.24662360E+00  3.45917327E+00  3.58336591E+00  3.58345153E+00  4.19283440E+00
  4.45737066E+00  4.49886084E+00  4.59078007E+00
Alpha MO coefficients                      R   N=        9604
 -1.61066622E-06 -7.79240452E-05 -5.62154773E-06  4.47466915E-11  1.24516300E-10
  2.22037982E-05 -1.30712952E-04 -8.77742329E-10  9.87394561E-09 -1.52847296E-04
  1.20605591E-04  5.76410640E-10  9.47002268E-10  8.49398921E-05  1.06124556E-05
  1.06106490E-05  4.20225145E-10 -6.13345796E-09 -5.30675646E-11  9.95997592E-01
  1.51500974E-02  1.90116393E-05  1.03479858E-10 -1.96879142E-09 -2.10578881E-02
 -7.39938277E-06 -2.05239635E-11  1.33324205E-09  1.86023746E-03 -5.91150348E-05
 -2.38686420E-10  4.46954580E-09 -1.91601434E-04  4.14323559E-05  3.26775639E-10
 -6.94899979E-09  7.50360445E-03  7.52741717E-03  7.52741725E-03 -7.61045990E-11
  2.33275378E-09  9.48290422E-13 -5.21432824E-06 -1.68851309E-05  5.91455145E-05
  2.42926513E-05  1.50173022E-09 -5.88820661E-07 -5.21503804E-06 -1.68797441E-05
  5.91373228E-05  2.42925622E-05  5.07514981E-07  2.92389149E-07 -5.21580708E-06
 -1.68796043E-05  5.91384217E-05  2.42927518E-05 -5.08663960E-07  2.90041400E-07
 -1.52848573E-06 -5.58684498E-06  2.90988748E-06  1.14753522E-10 -3.57361216E-09
 -1.42984651E-04 -1.77296746E-04  1.29619591E-09 -3.49747507E-08 -1.93687382E-04
 -2.87592954E-05  2.25030644E-10 -7.15690862E-09 -7.64910955E-06 -1.28632189E-06
 -1.28631504E-06  2.46645341E-10 -7.70331266E-09  2.53102151E-12 -2.94913236E-06
 -1.31860734E-05 -3.50951799E-07 -7.57022469E-11  2.46211146E-09  1.89389398E-04
 -9.11514419E-05  1.66241173E-09 -4.88954367E-08  1.52593224E-04 -1.09691580E-05
  7.07634881E-10 -2.09476089E-08  2.67835292E-06 -7.31696026E-06 -7.31694186E-06
 -2.32750860E-10  6.78369988E-09  1.35201324E-13 -6.51051127E-06 -3.18198347E-06
 -3.27939198E-05  1.51762023E-11  2.88686941E-09  1.20101091E-04  7.15827559E-05
  8.83057050E-11 -2.44862326E-08  1.55025591E-03  7.73009791E-04  5.26137695E-09
 -1.83932260E-07 -3.06742570E-05 -1.26541745E-05 -1.26527559E-05 -4.48253583E-11
  3.75159993E-09  9.38631988E-11  1.44374877E-07  1.48381541E-06  6.92502431E-07
  6.00289209E-12 -3.13434378E-10  5.42358721E-06 -4.12530505E-06 -3.24204219E-11
  1.77406015E-09 -5.20081807E-05  1.39558573E-05  1.34673163E-10 -5.87592077E-09
  3.68465638E-04  7.21099336E-05 -1.54371737E-09  5.05228587E-08  5.74818069E-06
  9.40832472E-07  9.40864410E-07 -4.41209458E-11  9.48284067E-10 -1.08437897E-11
  5.98278819E-07 -1.07345445E-04 -1.42016308E-04 -8.78067734E-06  1.36228319E-08
 -5.84855017E-06  5.92995923E-07 -1.07282241E-04 -1.42157398E-04 -8.77505111E-06
  5.05532854E-06  2.93650501E-06  5.93114930E-07 -1.07281212E-04 -1.42162597E-04
 -8.77483809E-06 -5.06884589E-06  2.91274932E-06  8.35024459E-05  2.07472174E-04
 -3.39695122E-04  4.26343035E-09 -1.23423234E-07 -1.54531830E-04 -2.99445919E-04
  6.08030088E-09 -1.71021522E-07  4.22843044E-04  1.57219031E-03 -1.32210383E-08
  3.80792559E-07 -8.17376882E-04 -7.93075992E-06 -7.93110136E-06  1.25699945E-08
 -3.61856389E-07  1.29239742E-11  9.92707134E-01  3.44645062E-02 -1.52401526E-03
  2.09544137E-08 -5.98846563E-07  5.06142269E-03  2.09757514E-04 -3.25810133E-09
  9.01155420E-08 -3.03914788E-03 -8.52674281E-05 -1.78109268E-09  5.06935800E-08
 -7.65580965E-03 -8.41412771E-03 -8.41412789E-03 -1.17688269E-08  3.38659679E-07
 -8.40426077E-12  9.93104030E-01  4.92271121E-02 -4.46505353E-05 -1.32191471E-09
 -6.40870790E-08 -1.64197480E-02 -8.30694905E-04  6.25517746E-09  4.97430394E-07
  3.61690491E-03 -1.90998599E-03 -4.13622436E-09  5.07873503E-07 -9.28730563E-03
 -8.46715610E-03 -8.46725010E-03 -6.33585280E-10  1.07196459E-07  5.97423275E-10
 -7.00444844E-06 -4.85430310E-05 -3.33156151E-05  1.11324539E-10  2.30900241E-09
 -3.14186302E-04  1.65196005E-04 -8.29478891E-10 -9.93777532E-09  1.47190309E-03
  9.32719130E-04  7.79248900E-09 -1.17547643E-07 -2.57958698E-03 -1.14478875E-03
 -6.18293890E-09  5.02644821E-08  2.29941094E-04 -9.47659992E-05 -9.47672540E-05
  2.14958763E-09 -4.45044621E-08  3.03537883E-10 -1.88259593E-04  3.05052259E-03
 -8.05472601E-04  6.58547808E-05  4.87225551E-07 -2.08866629E-04 -1.88340039E-04
  3.05009702E-03 -8.05917021E-04  6.58994073E-05  1.80678757E-04  1.04851986E-04
 -1.88341645E-04  3.05011269E-03 -8.05923635E-04  6.59011050E-05 -1.81165986E-04
  1.04006399E-04  1.58303778E-06 -2.28165208E-04  4.92688128E-05  1.83094908E-09
 -2.35413121E-08 -2.17355663E-03 -3.72901864E-03  2.10522877E-08 -7.35968743E-07
  8.06370565E-04  2.21177290E-04 -5.48749365E-11 -2.38019800E-07  5.60100445E-05
 -4.25864325E-05 -4.25794160E-05  4.06571772E-09 -1.10974341E-07 -1.25559397E-10
 -7.96600897E-05 -3.46515762E-04  3.04049994E-05 -3.35855267E-09  9.08023088E-08
  4.14904645E-03 -1.59696242E-03  3.61260612E-08 -1.00142190E-06  4.07857372E-04
 -2.98208282E-04 -6.19591776E-10  1.73388375E-07 -6.90335611E-05 -1.70102844E-04
 -1.70103125E-04 -2.67234811E-09  6.65704897E-08  1.81145127E-11 -6.79843686E-05
 -2.21636683E-04 -3.92177257E-05  3.30187634E-10 -3.90509486E-09  7.09805943E-04
  8.53475745E-04 -2.93065679E-09 -4.98305897E-08  3.98435056E-03  1.31787050E-02
  3.16734886E-08 -9.18162557E-07  1.27689354E-04 -4.35204995E-05 -4.35294189E-05
 -3.12791563E-10 -8.31083409E-09 -2.85499529E-10  2.08474338E-07  8.89408207E-06
  1.21907601E-05  7.49929541E-11 -2.65067778E-09  1.54930137E-05 -8.31168036E-05
 -4.84702195E-10  1.66780560E-08 -3.84054982E-04  5.52201904E-04  2.53962771E-09
 -7.67239075E-08  1.03672465E-02  2.87450645E-03  1.69542694E-08 -3.72757307E-07
  7.15303535E-05 -3.00836450E-06 -3.00664356E-06  5.58177182E-10 -1.35480114E-08
 -2.04766901E-11 -2.85076095E-05 -4.54882666E-04  3.42832053E-04 -1.81529736E-05
 -3.75072618E-08  1.61196353E-05 -2.85214387E-05 -4.54816513E-04  3.43483106E-04
 -1.81253621E-05 -1.39439235E-05 -8.08932400E-06 -2.85220944E-05 -4.54819958E-04
  3.43512553E-04 -1.81264309E-05  1.39809756E-05 -8.02364841E-06  9.92837316E-01
  4.94665008E-02  1.56477898E-03 -2.60643253E-08  7.61988851E-07 -1.03184603E-02
  5.02638656E-04  1.42914713E-08 -4.25861618E-07 -1.92297761E-02  4.88832036E-03
  4.02457265E-08 -1.37475917E-06 -8.48458156E-03 -9.71906112E-03 -9.71906152E-03
 -1.98498175E-08  5.68141700E-07  4.78008782E-11 -4.67700767E-04  1.73777513E-04
  3.57237034E-04 -4.55806156E-09  1.33360623E-07 -2.53099421E-03  1.10810786E-03
 -1.93608136E-08  5.45879556E-07  9.42104213E-03 -4.51054916E-03  2.98240147E-08
 -7.65256614E-07 -1.61533036E-04  2.28788284E-04  2.28788816E-04  7.37600909E-09
 -2.12644395E-07  8.45781792E-12 -3.02009037E-05 -8.82065341E-06  1.41295805E-04
  9.98944262E-10 -1.61369199E-08  1.11399797E-03 -1.95421092E-03 -5.59286311E-10
  1.57219497E-07 -2.92297555E-03  2.74450397E-02  6.28076652E-08 -2.11419546E-06
 -8.35193482E-05 -1.69814626E-05 -1.69926821E-05 -1.04001737E-09  9.02094475E-09
  1.44155267E-09 -2.84622824E-01  1.02275041E+00  2.24931009E-03  1.31416127E-08
 -2.34683016E-07  7.56733655E-02  4.93827973E-04  1.44526167E-09 -4.82550944E-08
 -2.42490877E-02 -1.69493839E-03 -5.14749380E-09  1.49543525E-07  3.64830204E-02
  1.14449327E-02  4.71114530E-08 -1.21444484E-06 -1.54596102E-02 -1.55298396E-02
 -1.55298434E-02  6.20947903E-10 -1.17260936E-08  3.85750647E-11 -3.76701711E-05
 -4.49886872E-04 -7.56412478E-04 -4.13593999E-05 -4.74178139E-08  2.01665316E-05
 -3.76984151E-05 -4.49782156E-04 -7.56008284E-04 -4.13373670E-05 -1.74397338E-05
 -1.01159258E-05 -3.76977322E-05 -4.49768193E-04 -7.56043771E-04 -4.13420961E-05
  1.74884208E-05 -1.00357051E-05  1.16794249E-05  3.53334721E-05  2.54651072E-05
 -2.67429813E-09  7.11363475E-08 -9.24737883E-04 -6.48195765E-04  1.37132903E-08
 -3.53242257E-07 -2.24795664E-02  1.03896252E-02  3.07780337E-09 -6.23547878E-07
  9.77274732E-05  1.53668452E-05  1.53664386E-05  3.76453529E-10 -1.05869527E-08
  6.02222477E-11 -3.90675129E-05 -1.33424360E-04 -4.27744970E-06 -1.92106249E-09
  6.54910542E-08  1.22959881E-03 -1.20654638E-04  8.85307690E-09 -3.10445029E-07
 -3.13349700E-04 -1.91405889E-03 -1.30555152E-08  6.03929505E-07 -1.08098602E-04
 -8.36187969E-05 -8.36189397E-05  5.51726249E-10 -1.27775489E-08 -2.10015904E-11
  9.20781409E-05  5.07673458E-04 -5.46327921E-04 -1.04435062E-09  5.50732660E-08
 -6.17213590E-04  3.98182327E-04  1.76302042E-08  5.17626187E-08 -9.01213590E-03
 -6.19220447E-02 -1.36601598E-07  3.55774841E-06 -9.72070024E-05  2.70068485E-04
  2.70075099E-04 -2.81731294E-09 -1.22311991E-09  3.88215081E-09  6.79276777E-04
 -2.50926632E-03  9.90527914E-01  5.11461972E-06 -8.58957546E-05  1.20623562E-04
  3.09027430E-02  1.57763256E-07 -2.70907324E-06  1.61280318E-03 -1.38829845E-02
 -6.72991427E-08  1.26342772E-06 -4.83199394E-02 -9.41168915E-03 -6.38983252E-08
  1.59641846E-06  1.92591410E-04 -5.81832528E-05 -5.81870216E-05  2.45955646E-10
 -8.36500514E-09  3.80309583E-11 -1.64415394E-04  1.57599813E-03 -4.79479740E-03
 -2.77595136E-04 -1.01267119E-07  4.27237705E-05 -1.64443496E-04  1.57590841E-03
 -4.79618737E-03 -2.77602598E-04 -3.69214636E-05 -2.14058759E-05 -1.64428090E-04
  1.57591714E-03 -4.79625295E-03 -2.77612104E-04  3.70232219E-05 -2.12362482E-05
 -6.16984515E-05 -2.77699653E-04 -7.44483935E-05  7.06920439E-09 -2.05670416E-07
  2.79838059E-03  8.43948462E-04 -4.02685126E-08  1.13439608E-06  7.35155724E-02
 -2.82147251E-02 -8.01623568E-08  3.57745046E-06 -2.56306462E-05 -1.00301144E-04
 -1.00300996E-04 -2.49680740E-09  7.85292788E-08 -8.52586134E-11 -1.93671806E-05
 -6.70833992E-05  3.50824910E-05  2.36347554E-09 -8.87038599E-08 -1.26016598E-04
  3.14395878E-04 -1.21435458E-08  4.48443505E-07 -9.51494407E-03  7.58009991E-03
  1.66302524E-08 -1.00187497E-06 -6.52729086E-05 -2.94266618E-05 -2.94292676E-05
 -4.58056513E-10  1.24997853E-08 -1.16521942E-11 -1.22206555E-09 -5.66054553E-09
  1.01343653E-09 -5.21885854E-05 -9.60454833E-07  3.35601786E-08 -2.53546962E-09
  2.04001518E-04  3.75959908E-06  5.43403039E-08  1.22348920E-07  2.44085994E-04
  4.47805971E-06 -1.49521144E-09 -6.29218158E-07  6.26029709E-07 -1.25806078E-04
 -2.31425023E-06 -6.36617061E-05  9.82600964E-11 -2.87861156E-10 -3.53422839E-06
  9.90674505E-01  1.82223481E-02  2.37721395E-10 -1.07631580E-07  2.95936905E-02
  5.44342433E-04 -4.45727413E-09  4.15708542E-08 -1.15580052E-02 -2.12595827E-04
  7.58668658E-08  5.89148938E-09  5.13091535E-03  9.43775566E-05 -2.11092208E-09
  4.56802709E-08 -4.48021672E-08  1.58934665E-04  2.92332363E-06  4.45893304E-06
  1.80643292E-06 -1.03734527E-05  6.75032145E-05  2.72607371E-06 -2.18985266E-05
 -1.64386742E-06 -9.82880905E-05  5.63978425E-04 -3.67435862E-03 -1.48338240E-04
 -8.03033421E-05 -3.42823183E-05  9.64792311E-05 -5.53656171E-04  3.60687262E-03
  1.45618045E-04 -7.93858265E-05  3.25870086E-05  1.50108788E-10  8.02791365E-10
  6.19503454E-10  5.84908908E-05  1.07562348E-06  1.08852281E-08  1.25739761E-08
 -2.48569187E-04 -4.57231961E-06 -1.39530994E-07  5.65569591E-08  1.02004722E-03
  1.87764668E-05  5.97896742E-10  2.11637838E-08 -2.12370199E-08  1.64087326E-06
  3.00622796E-08  2.10236623E-06  4.37915721E-10  1.76017236E-09 -3.79297132E-10
 -2.37777810E-05 -4.38175971E-07 -1.97502391E-08  1.01932749E-08  1.43805238E-04
  2.64901533E-06  1.21154697E-08 -1.34717519E-08 -3.57595034E-04 -6.59186162E-06
 -2.50926583E-10  2.82386994E-08 -2.58009025E-08 -1.75591221E-05 -3.22900172E-07
  2.72690786E-06  7.35063452E-09  4.30999062E-08  2.39986491E-08  9.59668595E-07
 -5.22006748E-05 -1.67540755E-07 -2.39842159E-07 -3.74589056E-06  2.04041515E-04
  2.95116862E-07  3.18426632E-06 -4.49199429E-06  2.43580385E-04 -3.38648766E-08
 -5.51380528E-05  5.51867044E-05  2.31368099E-06 -1.25795599E-04  7.25623775E-07
 -1.20216009E-08  5.41901891E-08  8.60141391E-05 -1.82223476E-02  9.90674505E-01
  2.21441095E-08  2.54170927E-06 -5.44342927E-04  2.95936786E-02 -2.33374480E-07
 -9.88229721E-07  2.12596985E-04 -1.15579885E-02  2.56936999E-06  1.22679660E-06
 -9.43786911E-05  5.13098997E-03  2.75495279E-08  3.89625286E-06 -3.89853460E-06
 -2.92355587E-06  1.58936243E-04 -4.98335688E-08  1.12459862E-04 -6.45353653E-04
  4.20381505E-03  1.69715982E-04  5.83407004E-07 -9.91813842E-05 -5.46521951E-05
  3.13661093E-04 -2.04307612E-03 -8.24836452E-05 -3.20741652E-05 -4.07458888E-05
 -5.77772862E-05  3.31619908E-04 -2.16000992E-03 -8.72060378E-05  3.48318380E-05
 -4.16632362E-05  6.37293708E-09  2.80561791E-08 -2.55644805E-08 -1.07591375E-06
  5.84793599E-05 -1.40612227E-06 -9.38754453E-07  4.57163197E-06 -2.48549868E-04
 -3.56884647E-06  1.65162776E-06 -1.87558157E-05  1.02042982E-03 -4.41502800E-08