RxCoord=0.29992 DE=55.06                                                
Freq      RB3LYP                                                      6-31++G(d,p)        
Number of atoms                            I                7
Info1-9                                    I   N=           9
          16          16           0           0           0         100
           6          18        -502
Full Title                                 C   N=           2
RxCoord=0.29992 DE=55.06
Route                                      C   N=           6
#p b3lyp 6-31++g(d,p) scf=verytight NoSymm freq=noraman int=
ultrafine   
Charge                                     I               -1
Multiplicity                               I                1
Number of electrons                        I               40
Number of alpha electrons                  I               20
Number of beta electrons                   I               20
Number of basis functions                  I               98
Number of independent functions            I               98
Number of point charges in /Mol/           I                0
Number of translation vectors              I                0
Atomic numbers                             I   N=           7
           6          17           1           1           1           6
           7
Nuclear charges                            R   N=           7
  6.00000000E+00  1.70000000E+01  1.00000000E+00  1.00000000E+00  1.00000000E+00
  6.00000000E+00  7.00000000E+00
Current cartesian coordinates              R   N=          21
 -5.60776227E-02  1.13383567E-05 -2.66451384E-04 -4.14912614E+00 -3.77945225E-06
  1.05824663E-04  1.85984955E-01  4.72431531E-03 -2.02053864E+00  1.86351562E-01
  1.74732392E+00  1.01383240E+00  1.86344003E-01 -1.75201611E+00  1.00566500E+00
  4.38622819E+00  1.32280829E-05 -4.45975365E-04  6.61036025E+00 -1.51178090E-05
  4.19519200E-04
Number of symbols in /Mol/                 I                0
Force Field                                I                0
Atom Types                                 C   N=           7
                                                            
                        
Int Atom Types                             I   N=           7
           0           0           0           0           0           0
           0
MM charges                                 R   N=           7
  0.00000000E+00  0.00000000E+00  0.00000000E+00  0.00000000E+00  0.00000000E+00
  0.00000000E+00  0.00000000E+00
Integer atomic weights                     I   N=           7
          12          35           1           1           1          12
          14
Real atomic weights                        R   N=           7
  1.20000000E+01  3.49688527E+01  1.00782504E+00  1.00782504E+00  1.00782504E+00
  1.20000000E+01  1.40030740E+01
Atom fragment info                         I   N=           7
           0           0           0           0           0           0
           0
Atom residue num                           I   N=           7
           0           0           0           0           0           0
           0
Nuclear spins                              I   N=           7
           0           3           1           1           1           0
           2
Nuclear ZEff                               R   N=           7
 -3.60000000E+00 -1.42400000E+01 -1.00000000E+00 -1.00000000E+00 -1.00000000E+00
 -3.60000000E+00 -4.55000000E+00
Nuclear ZNuc                               R   N=           7
  6.00000000E+00  1.70000000E+01  1.00000000E+00  1.00000000E+00  1.00000000E+00
  6.00000000E+00  7.00000000E+00
Nuclear QMom                               R   N=           7
  0.00000000E+00 -8.16500000E+00  0.00000000E+00  0.00000000E+00  0.00000000E+00
  0.00000000E+00  2.04400000E+00
Nuclear GFac                               R   N=           7
  0.00000000E+00  8.21874000E-01  2.79284600E+00  2.79284600E+00  2.79284600E+00
  0.00000000E+00  4.03761000E-01
MicOpt                                     I   N=           7
          -1          -1          -1          -1          -1          -1
          -1
Number of residues                         I                0
Number of secondary structures             I                0
Number of contracted shells                I               33
Number of primitive shells                 I               72
Pure/Cartesian d shells                    I                1
Pure/Cartesian f shells                    I                0
Highest angular momentum                   I                2
Largest degree of contraction              I                6
Shell types                                I   N=          33
           0          -1          -1          -1           2           0
          -1          -1          -1          -1           2           0
           0           0           1           0           0           0
           1           0           0           0           1           0
          -1          -1          -1           2           0          -1
          -1          -1           2
Number of primitives per shell             I   N=          33
           6           3           1           1           1           6
           6           3           1           1           1           3
           1           1           1           3           1           1
           1           3           1           1           1           6
           3           1           1           1           6           3
           1           1           1
Shell to atom map                          I   N=          33
           1           1           1           1           1           2
           2           2           2           2           2           3
           3           3           3           4           4           4
           4           5           5           5           5           6
           6           6           6           6           7           7
           7           7           7
Primitive exponents                        R   N=          72
  3.04752488E+03  4.57369518E+02  1.03948685E+02  2.92101553E+01  9.28666296E+00
  3.16392696E+00  7.86827235E+00  1.88128854E+00  5.44249258E-01  1.68714478E-01
  4.38000000E-02  8.00000000E-01  2.51801000E+04  3.78035000E+03  8.60474000E+02
  2.42145000E+02  7.73349000E+01  2.62470000E+01  4.91765000E+02  1.16984000E+02
  3.74153000E+01  1.37834000E+01  5.45215000E+00  2.22588000E+00  3.18649000E+00
  1.14427000E+00  4.20377000E-01  1.42657000E-01  4.83000000E-02  7.50000000E-01
  1.87311370E+01  2.82539436E+00  6.40121692E-01  1.61277759E-01  3.60000000E-02
  1.10000000E+00  1.87311370E+01  2.82539436E+00  6.40121692E-01  1.61277759E-01
  3.60000000E-02  1.10000000E+00  1.87311370E+01  2.82539436E+00  6.40121692E-01
  1.61277759E-01  3.60000000E-02  1.10000000E+00  3.04752488E+03  4.57369518E+02
  1.03948685E+02  2.92101553E+01  9.28666296E+00  3.16392696E+00  7.86827235E+00
  1.88128854E+00  5.44249258E-01  1.68714478E-01  4.38000000E-02  8.00000000E-01
  4.17351146E+03  6.27457911E+02  1.42902093E+02  4.02343293E+01  1.28202129E+01
  4.39043701E+00  1.16263619E+01  2.71627981E+00  7.72218397E-01  2.12031498E-01
  6.39000000E-02  8.00000000E-01
Contraction coefficients                   R   N=          72
  1.83473713E-03  1.40373228E-02  6.88426223E-02  2.32184443E-01  4.67941348E-01
  3.62311985E-01 -1.19332420E-01 -1.60854152E-01  1.14345644E+00  1.00000000E+00
  1.00000000E+00  1.00000000E+00  1.83295985E-03  1.40341988E-02  6.90973943E-02
  2.37451980E-01  4.83033960E-01  3.39855972E-01 -2.29739142E-03 -3.07137189E-02
 -1.12528069E-01  4.50163278E-02  5.89353363E-01  4.65206287E-01 -2.51828028E-01
  6.15892514E-02  1.06018433E+00  1.00000000E+00  1.00000000E+00  1.00000000E+00
  3.34946043E-02  2.34726953E-01  8.13757326E-01  1.00000000E+00  1.00000000E+00
  1.00000000E+00  3.34946043E-02  2.34726953E-01  8.13757326E-01  1.00000000E+00
  1.00000000E+00  1.00000000E+00  3.34946043E-02  2.34726953E-01  8.13757326E-01
  1.00000000E+00  1.00000000E+00  1.00000000E+00  1.83473713E-03  1.40373228E-02
  6.88426223E-02  2.32184443E-01  4.67941348E-01  3.62311985E-01 -1.19332420E-01
 -1.60854152E-01  1.14345644E+00  1.00000000E+00  1.00000000E+00  1.00000000E+00
  1.83477216E-03  1.39946270E-02  6.85865518E-02  2.32240873E-01  4.69069948E-01
  3.60455199E-01 -1.14961182E-01 -1.69117479E-01  1.14585195E+00  1.00000000E+00
  1.00000000E+00  1.00000000E+00
P(S=P) Contraction coefficients            R   N=          72
  0.00000000E+00  0.00000000E+00  0.00000000E+00  0.00000000E+00  0.00000000E+00
  0.00000000E+00  6.89990666E-02  3.16423961E-01  7.44308291E-01  1.00000000E+00
  1.00000000E+00  0.00000000E+00  0.00000000E+00  0.00000000E+00  0.00000000E+00
  0.00000000E+00  0.00000000E+00  0.00000000E+00  3.98940088E-03  3.03177067E-02
  1.29880029E-01  3.27951072E-01  4.53527100E-01  2.52154056E-01 -1.42993147E-02
  3.23572333E-01  7.43507765E-01  1.00000000E+00  1.00000000E+00  0.00000000E+00
  0.00000000E+00  0.00000000E+00  0.00000000E+00  0.00000000E+00  0.00000000E+00
  0.00000000E+00  0.00000000E+00  0.00000000E+00  0.00000000E+00  0.00000000E+00
  0.00000000E+00  0.00000000E+00  0.00000000E+00  0.00000000E+00  0.00000000E+00
  0.00000000E+00  0.00000000E+00  0.00000000E+00  0.00000000E+00  0.00000000E+00
  0.00000000E+00  0.00000000E+00  0.00000000E+00  0.00000000E+00  6.89990666E-02
  3.16423961E-01  7.44308291E-01  1.00000000E+00  1.00000000E+00  0.00000000E+00
  0.00000000E+00  0.00000000E+00  0.00000000E+00  0.00000000E+00  0.00000000E+00
  0.00000000E+00  6.75797439E-02  3.23907296E-01  7.40895140E-01  1.00000000E+00
  1.00000000E+00  0.00000000E+00
Coordinates of each shell                  R   N=          99
 -5.60776227E-02  1.13383567E-05 -2.66451384E-04 -5.60776227E-02  1.13383567E-05
 -2.66451384E-04 -5.60776227E-02  1.13383567E-05 -2.66451384E-04 -5.60776227E-02
  1.13383567E-05 -2.66451384E-04 -5.60776227E-02  1.13383567E-05 -2.66451384E-04
 -4.14912614E+00 -3.77945225E-06  1.05824663E-04 -4.14912614E+00 -3.77945225E-06
  1.05824663E-04 -4.14912614E+00 -3.77945225E-06  1.05824663E-04 -4.14912614E+00
 -3.77945225E-06  1.05824663E-04 -4.14912614E+00 -3.77945225E-06  1.05824663E-04
 -4.14912614E+00 -3.77945225E-06  1.05824663E-04  1.85984955E-01  4.72431531E-03
 -2.02053864E+00  1.85984955E-01  4.72431531E-03 -2.02053864E+00  1.85984955E-01
  4.72431531E-03 -2.02053864E+00  1.85984955E-01  4.72431531E-03 -2.02053864E+00
  1.86351562E-01  1.74732392E+00  1.01383240E+00  1.86351562E-01  1.74732392E+00
  1.01383240E+00  1.86351562E-01  1.74732392E+00  1.01383240E+00  1.86351562E-01
  1.74732392E+00  1.01383240E+00  1.86344003E-01 -1.75201611E+00  1.00566500E+00
  1.86344003E-01 -1.75201611E+00  1.00566500E+00  1.86344003E-01 -1.75201611E+00
  1.00566500E+00  1.86344003E-01 -1.75201611E+00  1.00566500E+00  4.38622819E+00
  1.32280829E-05 -4.45975365E-04  4.38622819E+00  1.32280829E-05 -4.45975365E-04
  4.38622819E+00  1.32280829E-05 -4.45975365E-04  4.38622819E+00  1.32280829E-05
 -4.45975365E-04  4.38622819E+00  1.32280829E-05 -4.45975365E-04  6.61036025E+00
 -1.51178090E-05  4.19519200E-04  6.61036025E+00 -1.51178090E-05  4.19519200E-04
  6.61036025E+00 -1.51178090E-05  4.19519200E-04  6.61036025E+00 -1.51178090E-05
  4.19519200E-04  6.61036025E+00 -1.51178090E-05  4.19519200E-04
Num ILSW                                   I              100
ILSW                                       I   N=         100
           0           1           0           0           2           0
           0           0           0           0         402          -1
           5           0           0           0           2           0
           0           0           0           0           1           0
           1           1           0           0           0           0
           0           0      100000           0          -1           0
           0           0           0           0           0           0
           0           0           0           1           0           0
           0 -2000000000           1           0           0           0
           0           0           4          52           0           0
           0           0           5           0           0           0
           0           0           0           7           0           1
           0           0           0           0           0           0
           0           0           0           0           0           0
           0           0           0           0           0           0
           0           0           0           0           0           0
           0           0           0           0
Num RLSW                                   I               52
RLSW                                       R   N=          52
  8.00000000E-01  7.20000000E-01  1.00000000E+00  8.10000000E-01  2.00000000E-01
  0.00000000E+00  0.00000000E+00  1.00000000E+00  0.00000000E+00  0.00000000E+00
  0.00000000E+00  0.00000000E+00  1.00000000E+00  0.00000000E+00  0.00000000E+00
  0.00000000E+00  0.00000000E+00  1.00000000E+00  0.00000000E+00  0.00000000E+00
  0.00000000E+00  0.00000000E+00  1.00000000E+00  0.00000000E+00  0.00000000E+00
  0.00000000E+00  0.00000000E+00  1.00000000E+00  0.00000000E+00  0.00000000E+00
  0.00000000E+00  0.00000000E+00  1.00000000E+00  0.00000000E+00  0.00000000E+00
  0.00000000E+00  0.00000000E+00  0.00000000E+00  1.00000000E+00  1.00000000E+00
  0.00000000E+00  1.00000000E+00  0.00000000E+00  0.00000000E+00  0.00000000E+00
  0.00000000E+00  0.00000000E+00  0.00000000E+00  0.00000000E+00  0.00000000E+00
  0.00000000E+00  0.00000000E+00
MxBond                                     I                3
NBond                                      I   N=           7
           3           0           1           1           1           1
           1
IBond                                      I   N=          21
           3           4           5           0           0           0
           1           0           0           1           0           0
           1           0           0           7           0           0
           6           0           0
RBond                                      R   N=          21
  1.00000000E+00  1.00000000E+00  1.00000000E+00  0.00000000E+00  0.00000000E+00
  0.00000000E+00  1.00000000E+00  0.00000000E+00  0.00000000E+00  1.00000000E+00
  0.00000000E+00  0.00000000E+00  1.00000000E+00  0.00000000E+00  0.00000000E+00
  3.00000000E+00  0.00000000E+00  0.00000000E+00  3.00000000E+00  0.00000000E+00
  0.00000000E+00
Virial Ratio                               R      2.004685962221329E+00
SCF Energy                                 R     -5.929870047693927E+02
Total Energy                               R     -5.929870047693927E+02
RMS Force                                  R      9.365282688098189E-04
RMS Density                                R      2.532830766632291E-09
NImag                                      I                1
Job Status                                 I                1
Nuclear derivative order                   I                2
External E-field                           R   N=          35
  0.00000000E+00  0.00000000E+00  0.00000000E+00  0.00000000E+00  0.00000000E+00
  0.00000000E+00  0.00000000E+00  0.00000000E+00  0.00000000E+00  0.00000000E+00
  0.00000000E+00  0.00000000E+00  0.00000000E+00  0.00000000E+00  0.00000000E+00
  0.00000000E+00  0.00000000E+00  0.00000000E+00  0.00000000E+00  0.00000000E+00
  0.00000000E+00  0.00000000E+00  0.00000000E+00  0.00000000E+00  0.00000000E+00
  0.00000000E+00  0.00000000E+00  0.00000000E+00  0.00000000E+00  0.00000000E+00
  0.00000000E+00  0.00000000E+00  0.00000000E+00  0.00000000E+00  0.00000000E+00
IOpCl                                      I                0
IROHF                                      I                0
Alpha Orbital Energies                     R   N=          98
 -1.01349861E+02 -1.41304472E+01 -1.01116926E+01 -1.00009275E+01 -9.26468172E+00
 -7.02585482E+00 -7.02048222E+00 -7.02048217E+00 -6.85043276E-01 -6.30971649E-01
 -5.42630370E-01 -3.06680174E-01 -3.06666013E-01 -2.33706975E-01 -1.86385185E-01
 -1.35801848E-01 -1.35801065E-01 -1.30400735E-01 -1.30400595E-01 -9.81382742E-02
  1.11750024E-01  1.25188480E-01  1.48744831E-01  1.48745952E-01  1.59528966E-01
  1.91075120E-01  2.02525630E-01  2.02530102E-01  2.23700067E-01  2.23701732E-01
  2.46231019E-01  2.46232160E-01  2.51026494E-01  2.57321206E-01  2.57326730E-01
  2.57760882E-01  3.09300319E-01  3.42221822E-01  3.42225890E-01  3.72156519E-01
  3.72161513E-01  3.72754970E-01  3.82478352E-01  4.55500387E-01  4.68932992E-01
  7.39050883E-01  7.71485434E-01  7.71491773E-01  7.73883062E-01  8.02843353E-01
  8.02855669E-01  8.69537266E-01  8.69537459E-01  8.91243296E-01  9.72875452E-01
  9.95063462E-01  1.04584404E+00  1.04585412E+00  1.08451887E+00  1.08452137E+00
  1.10003713E+00  1.10004678E+00  1.13006985E+00  1.16871806E+00  1.16871929E+00
  1.24245053E+00  1.31834057E+00  1.39767586E+00  1.51441423E+00  1.60313513E+00
  1.60315359E+00  1.74498095E+00  1.74498249E+00  1.76606866E+00  1.76607077E+00
  1.82972897E+00  2.12736457E+00  2.14074432E+00  2.14082252E+00  2.16785192E+00
  2.16785862E+00  2.17426159E+00  2.55437952E+00  2.63887698E+00  2.63892474E+00
  2.79917914E+00  2.79918047E+00  2.83057462E+00  2.90713291E+00  2.90722887E+00
  3.24791322E+00  3.45687929E+00  3.58149683E+00  3.58158762E+00  4.19428731E+00
  4.45825394E+00  4.49656745E+00  4.58752779E+00
Alpha MO coefficients                      R   N=        9604
 -1.56905875E-06 -7.74306869E-05 -8.30555673E-06  3.71408197E-11  5.08206229E-10
  1.94578165E-05 -1.28672335E-04 -8.55710230E-10  8.18386264E-09 -1.59647426E-04
  1.02286225E-04  5.92226531E-10  3.60621756E-09  8.67882342E-05  1.18016318E-05
  1.17998888E-05  4.47296717E-10 -5.79103873E-09 -4.92799692E-11  9.95997579E-01
  1.51501893E-02  1.98719293E-05  1.13678749E-10 -1.95005520E-09 -2.10578503E-02
 -7.79848843E-06 -1.90233838E-11  1.39330314E-09  1.85942995E-03 -5.99678310E-05
 -2.54892461E-10  4.39941884E-09 -2.02422403E-04  3.84420085E-05  3.09815862E-10
 -6.30472270E-09  7.50337005E-03  7.52759413E-03  7.52759421E-03 -7.94622328E-11
  2.39972297E-09  1.08078012E-12 -5.41104764E-06 -1.52695212E-05  5.77307716E-05
  2.39452004E-05  1.94177111E-09 -7.77774169E-07 -5.41019675E-06 -1.52639774E-05
  5.77189931E-05  2.39447968E-05  6.70998534E-07  3.87487053E-07 -5.41099561E-06
 -1.52638510E-05  5.77202234E-05  2.39449809E-05 -6.72574961E-07  3.84368214E-07
 -1.53854045E-06 -5.55506402E-06  2.89028134E-06  1.06537846E-10 -3.66880387E-09
 -1.42987248E-04 -1.75722543E-04  1.23493174E-09 -3.44042645E-08 -1.70161098E-04
 -3.70261838E-05  1.59072448E-10 -5.86275167E-09 -7.75105136E-06 -1.33223225E-06
 -1.33223003E-06  2.25614526E-10 -7.70315721E-09  2.52343108E-12 -2.97930714E-06
 -1.32650864E-05 -3.30447367E-07 -6.65446843E-11  2.42603172E-09  1.89232488E-04
 -9.11137344E-05  1.53329667E-09 -4.83854842E-08  1.48832511E-04 -8.53560566E-06
  6.68505961E-10 -2.11836916E-08  2.66138756E-06 -7.41642972E-06 -7.41641288E-06
 -2.16351358E-10  6.74881751E-09  2.07997531E-13 -5.93323267E-06 -1.11750123E-06
 -3.17306304E-05  3.51434951E-11  2.78125270E-09  1.10137920E-04  6.69953333E-05
  8.01039714E-12 -2.44281714E-08  1.50233728E-03  7.38365184E-04  4.58220108E-09
 -1.81334471E-07 -3.02546954E-05 -1.12631181E-05 -1.12622311E-05 -2.75019431E-11
  3.93218640E-09  7.99067797E-11  1.45798178E-07  1.52390086E-06  6.27002104E-07
  5.31763333E-12 -3.23234608E-10  5.45642700E-06 -3.77293489E-06 -2.85115229E-11
  1.83595296E-09 -5.21111693E-05  1.25285218E-05  1.18327587E-10 -5.97078072E-09
  3.51804698E-04  6.66599103E-05 -1.36930430E-09  5.16049036E-08  5.77149042E-06
  1.07585565E-06  1.07592472E-06 -3.92312438E-11  9.02629675E-10 -1.21284550E-11
  7.49955427E-07 -1.05013128E-04 -1.43950058E-04 -8.38811630E-06  1.38929489E-08
 -5.96316406E-06  7.43620373E-07 -1.04948780E-04 -1.44094185E-04 -8.38259331E-06
  5.15465154E-06  2.99403590E-06  7.43724572E-07 -1.04947892E-04 -1.44098896E-04
 -8.38239972E-06 -5.16843488E-06  2.96984207E-06  8.35898773E-05  2.06994576E-04
 -3.36587866E-04  3.97931130E-09 -1.22196553E-07 -1.62487019E-04 -3.09992030E-04
  5.69450528E-09 -1.71030917E-07  4.90804877E-04  1.53927808E-03 -1.26726071E-08
  3.80881028E-07 -8.14010552E-04 -8.17634649E-06 -8.17674629E-06  1.17468706E-08
 -3.59065347E-07  1.23974466E-11  9.92706257E-01  3.44643559E-02 -1.51648222E-03
  1.95139359E-08 -5.92241842E-07  5.07502094E-03  2.01909466E-04 -2.92001265E-09
  8.54532680E-08 -3.03762463E-03 -7.73308008E-05 -1.53411402E-09  4.91603185E-08
 -7.65907893E-03 -8.41539005E-03 -8.41539022E-03 -1.10126816E-08  3.36486661E-07
 -7.54239169E-12  9.93099846E-01  4.92297077E-02 -7.41561720E-05 -1.25286206E-09
 -6.84816218E-08 -1.63757838E-02 -7.43028980E-04  7.80336797E-09  5.28226090E-07
  3.76224691E-03 -2.16050987E-03 -4.39447946E-09  5.50430890E-07 -9.28504804E-03
 -8.48160474E-03 -8.48170493E-03 -1.46411944E-10  1.11486009E-07  6.15960849E-10
 -7.13201871E-06 -5.00877554E-05 -3.36729110E-05  1.16790230E-10  2.82200615E-09
 -3.15815739E-04  1.72834979E-04 -8.51174588E-10 -1.35820545E-08  1.54701237E-03
  9.66211051E-04  8.16703837E-09 -1.11344836E-07 -2.86419836E-03 -1.22785604E-03
 -7.01881593E-09  4.97661923E-08  2.26887310E-04 -9.78529296E-05 -9.78554724E-05
  2.18152436E-09 -4.27632899E-08  3.40763719E-10 -1.87261112E-04  3.04963487E-03
 -8.26186607E-04  6.59578496E-05  4.75257238E-07 -2.03913292E-04 -1.87343369E-04
  3.04916822E-03 -8.26658618E-04  6.60019033E-05  1.76395467E-04  1.02363663E-04
 -1.87344407E-04  3.04918417E-03 -8.26666222E-04  6.60033713E-05 -1.76870915E-04
  1.01538353E-04 -3.98242166E-07 -2.22148669E-04  4.95932070E-05  1.70887614E-09
 -2.02102862E-08 -2.10051979E-03 -3.56878540E-03  1.92976254E-08 -7.20836177E-07
  1.05686412E-03  1.80998642E-04 -7.08665342E-10 -2.41209307E-07  5.54110759E-05
 -4.23685270E-05 -4.23603567E-05  3.56992967E-09 -1.05784578E-07 -1.30529752E-10
 -7.80089070E-05 -3.38121865E-04  3.04609569E-05 -3.01854305E-09  8.71589463E-08
  4.00944803E-03 -1.53860425E-03  3.23404926E-08 -9.52719900E-07  2.98756361E-04
 -2.75354668E-04 -4.97958025E-10  1.92633679E-07 -6.87959963E-05 -1.67186432E-04
 -1.67186861E-04 -2.37363722E-09  6.12152993E-08  1.68396969E-11 -6.43024300E-05
 -2.18243912E-04 -4.38577338E-05  3.03026534E-10 -3.04926307E-09  6.85732631E-04
  8.41633223E-04 -2.61120283E-09 -6.33527267E-08  3.38536250E-03  1.28036757E-02
  2.82633535E-08 -8.82371045E-07  1.24224760E-04 -4.31619183E-05 -4.31700316E-05
 -4.17743783E-10 -9.38268803E-09 -2.23973930E-10  2.14025003E-07  9.11011342E-06
  1.18691166E-05  7.85984066E-11 -2.67631658E-09  1.60725105E-05 -8.07206369E-05
 -5.00855587E-10  1.67495501E-08 -3.80236239E-04  5.45283501E-04  2.55849750E-09
 -7.63277360E-08  1.03019243E-02  2.83858975E-03  1.74963919E-08 -3.56076414E-07
  7.11524458E-05 -2.33891824E-06 -2.33700412E-06  5.73826405E-10 -1.31234197E-08
 -2.59195903E-11 -2.88179578E-05 -4.54584562E-04  3.33172105E-04 -1.86935104E-05
 -3.53232027E-08  1.51774833E-05 -2.88321555E-05 -4.54500360E-04  3.33782567E-04
 -1.86607506E-05 -1.31315564E-05 -7.61687492E-06 -2.88327207E-05 -4.54502870E-04
  3.33808386E-04 -1.86617771E-05  1.31664634E-05 -7.55510774E-06  9.92836700E-01
  4.94643557E-02  1.58784229E-03 -2.44338261E-08  7.63785451E-07 -1.03408546E-02
  4.31609931E-04  1.29891946E-08 -4.29223654E-07 -1.85290125E-02  4.60731066E-03
  3.11736975E-08 -1.34256533E-06 -8.48217685E-03 -9.72084654E-03 -9.72084724E-03
 -1.86076480E-08  5.66213297E-07  4.96217739E-11 -4.69450232E-04  1.67364109E-04
  3.62762003E-04 -4.29451882E-09  1.34873958E-07 -2.46163657E-03  1.08323260E-03
 -1.78947807E-08  5.30626726E-07  9.40241714E-03 -4.45706242E-03  3.10569000E-08
 -7.78676999E-07 -1.69367236E-04  2.26297851E-04  2.26298375E-04  6.91114551E-09
 -2.12878110E-07  6.64553474E-12 -3.28579306E-05  9.13460595E-07  1.42842143E-04
  9.92150627E-10 -1.44041413E-08  1.21039344E-03 -1.92893775E-03  8.03045363E-10
  1.60247995E-07 -3.93427155E-03  2.80952863E-02  6.02553260E-08 -2.15773769E-06
 -1.15012720E-04 -1.97896679E-05 -1.98077685E-05 -1.13816953E-09  1.00022308E-08
  1.69127058E-09 -2.84622296E-01  1.02275156E+00  2.35056976E-03  1.44906574E-08
 -2.30054896E-07  7.56891607E-02  4.91765963E-04  1.43870646E-09 -4.80768760E-08
 -2.43413422E-02 -1.69124115E-03 -5.18267686E-09  1.48328909E-07  3.75732797E-02
  1.17270409E-02  4.95425427E-08 -1.23035234E-06 -1.54535774E-02 -1.55313487E-02
 -1.55313526E-02  6.95367716E-10 -1.20425087E-08  3.44244982E-11 -3.94851542E-05
 -4.70809983E-04 -6.79312367E-04 -4.25989519E-05 -4.09932169E-08  1.73947948E-05
 -3.95151116E-05 -4.70725879E-04 -6.78797312E-04 -4.25640773E-05 -1.50386196E-05
 -8.72189401E-06 -3.95141370E-05 -4.70709807E-04 -6.78838950E-04 -4.25694573E-05
  1.50809896E-05 -8.65312088E-06  1.23546706E-05  4.02553934E-05  2.66772536E-05
 -2.52758891E-09  7.31496953E-08 -8.89112525E-04 -5.81461200E-04  1.26675284E-08
 -3.44858405E-07 -2.27700710E-02  1.05721976E-02 -7.92314462E-09 -6.81726336E-07
  9.64119996E-05  1.57332585E-05  1.57325464E-05  2.98944627E-10 -9.10130049E-09
  6.48840646E-11 -3.68805863E-05 -1.24590435E-04 -5.42720348E-06 -1.59328437E-09
  6.49617367E-08  1.13562017E-03 -8.69326001E-05  6.88290151E-09 -2.95311712E-07
 -2.36129498E-04 -1.99504119E-03 -7.56998367E-09  6.27646752E-07 -1.05444465E-04
 -7.89559509E-05 -7.89559708E-05  5.80784437E-10 -1.46093740E-08 -2.37627564E-11
  9.39672156E-05  5.61242572E-04 -5.33088282E-04 -7.08195079E-10  5.44954925E-08
 -6.06032250E-04  4.60043874E-04  1.78048491E-08  1.05178667E-07 -6.41464018E-03
 -6.20320965E-02 -1.28311036E-07  3.49493170E-06 -1.68577623E-04  2.79751107E-04
  2.79738091E-04 -3.33538001E-09  2.26346637E-09  4.29817787E-09  7.07753646E-04
 -2.62218006E-03  9.90522601E-01  5.35620935E-06 -8.05249265E-05  1.05160547E-04
  3.09179216E-02  1.65140735E-07 -2.54939641E-06  1.75976238E-03 -1.38587958E-02
 -7.00703497E-08  1.20015208E-06 -4.96301804E-02 -9.72300369E-03 -6.75576638E-08
  1.60704271E-06  1.96208138E-04 -7.62347457E-05 -7.62392242E-05  3.29050302E-10
 -1.08006135E-08  5.26843235E-11 -1.72839055E-04  1.57396273E-03 -4.86396183E-03
 -2.80244508E-04 -7.89666767E-08  3.31871545E-05 -1.72902733E-04  1.57383541E-03
 -4.86531111E-03 -2.80230164E-04 -2.86613823E-05 -1.66139958E-05 -1.72885836E-04
  1.57384327E-03 -4.86537066E-03 -2.80240773E-04  2.87410795E-05 -1.64832155E-05
 -6.01233337E-05 -2.70683827E-04 -7.61350583E-05  6.18747652E-09 -2.01550074E-07
  2.81592516E-03  9.11095015E-04 -3.68496102E-08  1.13175460E-06  7.23751744E-02
 -2.78373587E-02 -4.52942844E-08  3.58033826E-06 -2.22788993E-05 -9.80866147E-05
 -9.80862171E-05 -2.48408450E-09  8.16304500E-08 -8.45043384E-11 -1.89929806E-05
 -6.41853406E-05  3.46470838E-05  1.87236936E-09 -8.92968107E-08 -1.77315206E-04
  3.47030559E-04 -1.02107254E-08  4.64506215E-07 -9.55901552E-03  7.55304960E-03
  2.17730132E-09 -9.95839774E-07 -6.79645971E-05 -2.85809869E-05 -2.85837152E-05
 -2.80931783E-10  1.02468241E-08 -7.93468775E-12 -1.31016173E-09 -6.16058436E-09
  1.44461372E-09 -5.28631403E-05 -9.84080009E-07  3.63460329E-08 -5.40304790E-09
  2.17465962E-04  4.05370843E-06  4.96608595E-08  1.27560789E-07  2.45315988E-04
  4.55180124E-06 -1.70748010E-09 -6.63301358E-07  6.60139866E-07 -1.22563868E-04
 -2.28061091E-06 -6.58768977E-05  1.50246407E-10 -4.14765123E-10 -3.85742606E-06
  9.90671688E-01  1.84325097E-02  3.40640451E-10 -1.17575757E-07  2.95905614E-02
  5.50563711E-04 -6.07789566E-09  4.43697599E-08 -1.15599955E-02 -2.15085197E-04
  8.13161058E-08  6.45304158E-09  5.13192696E-03  9.54845341E-05 -2.48648591E-09
  4.76042264E-08 -4.63525626E-08  1.63813441E-04  3.04779615E-06  4.54400283E-06
  1.77878725E-06 -1.03182897E-05  6.85011999E-05  2.80395997E-06 -2.28707246E-05
 -1.67118007E-06 -9.55212229E-05  5.53570893E-04 -3.68040981E-03 -1.50579294E-04
 -8.07251670E-05 -3.39828891E-05  9.37400345E-05 -5.43310431E-04  3.61192634E-03
  1.47782274E-04 -7.98024524E-05  3.22427473E-05  1.47030695E-10  8.29657835E-10
  5.57421345E-10  5.83361479E-05  1.08512808E-06  2.14301502E-09  5.58246941E-09
 -2.47196923E-04 -4.59930063E-06 -1.39495429E-07  5.51133584E-08  1.02040208E-03
  1.89975601E-05  2.13561080E-10  2.28598797E-08 -2.27289600E-08  1.51102360E-06
  2.80106171E-08  2.22401769E-06  2.30895130E-10  9.31539569E-10 -3.46719345E-10
 -2.37174916E-05 -4.42035972E-07 -9.59635895E-09  5.37214600E-09  1.43361793E-04
  2.67092476E-06  1.43108937E-08 -1.29882562E-08 -3.58627146E-04 -6.68565782E-06
 -1.83336813E-10  2.79878941E-08 -2.66296510E-08 -1.74648366E-05 -3.24861140E-07
  2.70531608E-06  4.28516157E-09  2.79366599E-08  2.68575601E-08  9.83283566E-07
 -5.28745764E-05 -8.14375487E-08 -2.44135054E-07 -4.03882380E-06  2.17474680E-04
  3.29258058E-07  3.62214770E-06 -4.56705170E-06  2.44786112E-04 -3.68028161E-08
 -5.70659785E-05  5.71073620E-05  2.28000657E-06 -1.22550581E-04  7.65208198E-07
 -1.21691857E-08  5.53264631E-08  8.06511009E-05 -1.84325092E-02  9.90671688E-01
  2.18641916E-08  2.37475832E-06 -5.50564348E-04  2.95905497E-02 -2.55569315E-07
 -9.22720206E-07  2.15086730E-04 -1.15599790E-02  2.92557920E-06  1.30253091E-06
 -9.54870596E-05  5.13201232E-03  2.48409770E-08  3.97098426E-06 -3.97038221E-06
 -3.04809312E-06  1.63815561E-04 -5.17302475E-08  1.09271815E-04 -6.33453480E-04
  4.21023437E-03  1.72269523E-04  6.04321350E-07 -9.94205106E-05 -5.30848490E-05
  3.07695561E-04 -2.04538090E-03 -8.36856775E-05 -3.17283855E-05 -4.15318410E-05
 -5.61615503E-05  3.25556383E-04 -2.16405425E-03 -8.85427192E-05  3.45375478E-05
 -4.24545333E-05  7.15208333E-09  3.17477112E-08 -2.49690885E-08 -1.08546202E-06
  5.83241383E-05 -1.39989722E-06 -9.09530668E-07  4.59899871E-06 -2.47173657E-04
 -3.99548986E-06  1.85180014E-06 -1.89805256E-05  1.02076433E-03 -4.30160896E-08