 Entering Gaussian System, Link 0=g16
 Initial command:
 /usr/local/g16_AVX//g16/l1.exe "/scratch/alanqf/0104-54546.ixchel.mda.cinvestav.mx/Gau-15344.inp" -scrdir="/scratch/alanqf/0104-54546.ixchel.mda.cinvestav.mx/"
 Entering Link 1 = /usr/local/g16_AVX//g16/l1.exe PID=     15345.
  
 Copyright (c) 1988-2017, Gaussian, Inc.  All Rights Reserved.
  
 This is part of the Gaussian(R) 16 program.  It is based on
 the Gaussian(R) 09 system (copyright 2009, Gaussian, Inc.),
 the Gaussian(R) 03 system (copyright 2003, Gaussian, Inc.),
 the Gaussian(R) 98 system (copyright 1998, Gaussian, Inc.),
 the Gaussian(R) 94 system (copyright 1995, Gaussian, Inc.),
 the Gaussian 92(TM) system (copyright 1992, Gaussian, Inc.),
 the Gaussian 90(TM) system (copyright 1990, Gaussian, Inc.),
 the Gaussian 88(TM) system (copyright 1988, Gaussian, Inc.),
 the Gaussian 86(TM) system (copyright 1986, Carnegie Mellon
 University), and the Gaussian 82(TM) system (copyright 1983,
 Carnegie Mellon University). Gaussian is a federally registered
 trademark of Gaussian, Inc.
  
 This software contains proprietary and confidential information,
 including trade secrets, belonging to Gaussian, Inc.
  
 This software is provided under written license and may be
 used, copied, transmitted, or stored only in accord with that
 written license.
  
 The following legend is applicable only to US Government
 contracts under FAR:
  
                    RESTRICTED RIGHTS LEGEND
  
 Use, reproduction and disclosure by the US Government is
 subject to restrictions as set forth in subparagraphs (a)
 and (c) of the Commercial Computer Software - Restricted
 Rights clause in FAR 52.227-19.
  
 Gaussian, Inc.
 340 Quinnipiac St., Bldg. 40, Wallingford CT 06492
  
  
 ---------------------------------------------------------------
 Warning -- This program may not be used in any manner that
 competes with the business of Gaussian, Inc. or will provide
 assistance to any competitor of Gaussian, Inc.  The licensee
 of this program is prohibited from giving any competitor of
 Gaussian, Inc. access to this program.  By using this program,
 the user acknowledges that Gaussian, Inc. is engaged in the
 business of creating and licensing software in the field of
 computational chemistry and represents and warrants to the
 licensee that it is not a competitor of Gaussian, Inc. and that
 it will not use this program in any manner prohibited above.
 ---------------------------------------------------------------
  

 Cite this work as:
 Gaussian 16, Revision B.01,
 M. J. Frisch, G. W. Trucks, H. B. Schlegel, G. E. Scuseria, 
 M. A. Robb, J. R. Cheeseman, G. Scalmani, V. Barone, 
 G. A. Petersson, H. Nakatsuji, X. Li, M. Caricato, A. V. Marenich, 
 J. Bloino, B. G. Janesko, R. Gomperts, B. Mennucci, H. P. Hratchian, 
 J. V. Ortiz, A. F. Izmaylov, J. L. Sonnenberg, D. Williams-Young, 
 F. Ding, F. Lipparini, F. Egidi, J. Goings, B. Peng, A. Petrone, 
 T. Henderson, D. Ranasinghe, V. G. Zakrzewski, J. Gao, N. Rega, 
 G. Zheng, W. Liang, M. Hada, M. Ehara, K. Toyota, R. Fukuda, 
 J. Hasegawa, M. Ishida, T. Nakajima, Y. Honda, O. Kitao, H. Nakai, 
 T. Vreven, K. Throssell, J. A. Montgomery, Jr., J. E. Peralta, 
 F. Ogliaro, M. J. Bearpark, J. J. Heyd, E. N. Brothers, K. N. Kudin, 
 V. N. Staroverov, T. A. Keith, R. Kobayashi, J. Normand, 
 K. Raghavachari, A. P. Rendell, J. C. Burant, S. S. Iyengar, 
 J. Tomasi, M. Cossi, J. M. Millam, M. Klene, C. Adamo, R. Cammi, 
 J. W. Ochterski, R. L. Martin, K. Morokuma, O. Farkas, 
 J. B. Foresman, and D. J. Fox, Gaussian, Inc., Wallingford CT, 2016.
 
 ******************************************
 Gaussian 16:  ES64L-G16RevB.01 20-Dec-2017
                13-Oct-2024 
 ******************************************
 %NProcShared=26
 Will use up to   26 processors via shared memory.
 %MEM=20GB
 %chk=CHKfiles/0104.chk
 ---------------------------------------------------------------------
 #p b3lyp 6-31++g(d,p) scf=verytight NoSymm freq=noraman int=ultrafine
 ---------------------------------------------------------------------
 1/10=4,30=1,38=1/1,3;
 2/12=2,15=1,17=6,18=5,40=1/2;
 3/5=1,6=6,7=1111,11=2,25=1,30=1,71=2,74=-5,75=-5,140=1/1,2,3;
 4//1;
 5/5=2,17=3,38=5,98=1/2;
 8/6=4,10=90,11=11/1;
 11/6=1,8=1,9=11,15=111,16=1,31=1/1,2,10;
 10/6=1,31=1/2;
 6/7=2,8=2,9=2,10=2,28=1/1;
 7/8=1,10=1,25=1,30=1/1,2,3,16;
 1/10=4,30=1/3;
 99//99;
 Leave Link    1 at Sun Oct 13 09:50:51 2024, MaxMem=  2684354560 cpu:               1.3 elap:               0.1
 (Enter /usr/local/g16_AVX//g16/l101.exe)
 ------------------------
 RxCoord=0.29992 DE=55.06
 ------------------------
 Symbolic Z-matrix:
 Charge = -1 Multiplicity = 1
 C                    -0.02968   0.00001  -0.00014 
 Cl                   -2.19562  0.         0.00006 
 H                     0.09842   0.0025   -1.06922 
 H                     0.09861   0.92464   0.5365 
 H                     0.09861  -0.92713   0.53218 
 C                     2.32109   0.00001  -0.00024 
 N                     3.49805  -0.00001   0.00022 
 
 ITRead=  0  0  0  0  0  0  0
 MicOpt= -1 -1 -1 -1 -1 -1 -1
 NAtoms=      7 NQM=        7 NQMF=       0 NMMI=      0 NMMIF=      0
                NMic=       0 NMicF=      0.
                    Isotopes and Nuclear Properties:
 (Nuclear quadrupole moments (NQMom) in fm**2, nuclear magnetic moments (NMagM)
  in nuclear magnetons)

  Atom         1           2           3           4           5           6           7
 IAtWgt=          12          35           1           1           1          12          14
 AtmWgt=  12.0000000  34.9688527   1.0078250   1.0078250   1.0078250  12.0000000  14.0030740
 NucSpn=           0           3           1           1           1           0           2
 AtZEff=  -0.0000000  -0.0000000  -0.0000000  -0.0000000  -0.0000000  -0.0000000  -0.0000000
 NQMom=    0.0000000  -8.1650000   0.0000000   0.0000000   0.0000000   0.0000000   2.0440000
 NMagM=    0.0000000   0.8218740   2.7928460   2.7928460   2.7928460   0.0000000   0.4037610
 AtZNuc=   6.0000000  17.0000000   1.0000000   1.0000000   1.0000000   6.0000000   7.0000000
 Leave Link  101 at Sun Oct 13 09:50:51 2024, MaxMem=  2684354560 cpu:               2.8 elap:               0.1
 (Enter /usr/local/g16_AVX//g16/l103.exe)

 GradGradGradGradGradGradGradGradGradGradGradGradGradGradGradGradGradGrad
 Berny optimization.
 Initialization pass.
 Trust Radius=3.00D-01 FncErr=1.00D-07 GrdErr=1.00D-07 EigMax=2.50D+02 EigMin=1.00D-04
 Number of steps in this run=      2 maximum allowed number of steps=      2.
 GradGradGradGradGradGradGradGradGradGradGradGradGradGradGradGradGradGrad

 Leave Link  103 at Sun Oct 13 09:50:51 2024, MaxMem=  2684354560 cpu:               0.5 elap:               0.1
 (Enter /usr/local/g16_AVX//g16/l202.exe)
                          Input orientation:                          
 ---------------------------------------------------------------------
 Center     Atomic      Atomic             Coordinates (Angstroms)
 Number     Number       Type             X           Y           Z
 ---------------------------------------------------------------------
      1          6           0       -0.029675    0.000006   -0.000141
      2         17           0       -2.195623   -0.000002    0.000056
      3          1           0        0.098419    0.002500   -1.069223
      4          1           0        0.098613    0.924644    0.536497
      5          1           0        0.098609   -0.927127    0.532175
      6          6           0        2.321092    0.000007   -0.000236
      7          7           0        3.498052   -0.000008    0.000222
 ---------------------------------------------------------------------
                    Distance matrix (angstroms):
                    1          2          3          4          5
     1  C    0.000000
     2  Cl   2.165948   0.000000
     3  H    1.076731   2.531006   0.000000
     4  H    1.076751   2.531059   1.851671   0.000000
     5  H    1.076751   2.531050   1.851670   1.851776   0.000000
     6  C    2.350767   4.516715   2.466377   2.466262   2.466266
     7  N    3.527727   5.693675   3.563878   3.563532   3.563529
                    6          7
     6  C    0.000000
     7  N    1.176960   0.000000
 Symmetry turned off by external request.
 This structure is nearly, but not quite of a higher symmetry.
 Consider Symm=Loose if the higher symmetry is desired.
 Stoichiometry    C2H3ClN(1-)
 Framework group  C1[X(C2H3ClN)]
 Deg. of freedom    15
 Full point group                 C1      NOp   1
 Rotational constants (GHZ):         146.2473051           1.2437329           1.2437321
 Leave Link  202 at Sun Oct 13 09:50:52 2024, MaxMem=  2684354560 cpu:               0.2 elap:               0.0
 (Enter /usr/local/g16_AVX//g16/l301.exe)
 Standard basis: 6-31++G(d,p) (6D, 7F)
 Ernie: Thresh=  0.10000D-02 Tol=  0.10000D-05 Strict=F.
    98 basis functions,   176 primitive gaussians,    98 cartesian basis functions
    20 alpha electrons       20 beta electrons
       nuclear repulsion energy       108.5654329794 Hartrees.
 IExCor=  402 DFT=T Ex+Corr=B3LYP ExCW=0 ScaHFX=  0.200000
 ScaDFX=  0.800000  0.720000  1.000000  0.810000 ScalE2=  1.000000  1.000000
 IRadAn=      5 IRanWt=     -1 IRanGd=            0 ICorTp=0 IEmpDi=  4
 NAtoms=    7 NActive=    7 NUniq=    7 SFac= 1.00D+00 NAtFMM=   60 NAOKFM=F Big=F
 Integral buffers will be    131072 words long.
 Raffenetti 2 integral format.
 Two-electron integral symmetry is turned off.
 Leave Link  301 at Sun Oct 13 09:50:52 2024, MaxMem=  2684354560 cpu:               1.4 elap:               0.1
 (Enter /usr/local/g16_AVX//g16/l302.exe)
 NPDir=0 NMtPBC=     1 NCelOv=     1 NCel=       1 NClECP=     1 NCelD=      1
         NCelK=      1 NCelE2=     1 NClLst=     1 CellRange=     0.0.
 One-electron integrals computed using PRISM.
 NBasis=    98 RedAO= T EigKep=  1.17D-04  NBF=    98
 NBsUse=    98 1.00D-06 EigRej= -1.00D+00 NBFU=    98
 Precomputing XC quadrature grid using
 IXCGrd= 4 IRadAn=           5 IRanWt=          -1 IRanGd=           0 AccXCQ= 0.00D+00.
 Generated NRdTot=       0 NPtTot=           0 NUsed=           0 NTot=          32
 NSgBfM=    98    98    98    98    98 MxSgAt=     7 MxSgA2=     7.
 Leave Link  302 at Sun Oct 13 09:50:52 2024, MaxMem=  2684354560 cpu:               4.0 elap:               0.2
 (Enter /usr/local/g16_AVX//g16/l303.exe)
 DipDrv:  MaxL=1.
 Leave Link  303 at Sun Oct 13 09:50:52 2024, MaxMem=  2684354560 cpu:               0.8 elap:               0.1
 (Enter /usr/local/g16_AVX//g16/l401.exe)
 ExpMin= 3.60D-02 ExpMax= 2.52D+04 ExpMxC= 3.78D+03 IAcc=3 IRadAn=         5 AccDes= 0.00D+00
 Harris functional with IExCor=  402 and IRadAn=       5 diagonalized for initial guess.
 HarFok:  IExCor=  402 AccDes= 0.00D+00 IRadAn=         5 IDoV= 1 UseB2=F ITyADJ=14
 ICtDFT=  3500011 ScaDFX=  1.000000  1.000000  1.000000  1.000000
 FoFCou: FMM=F IPFlag=           0 FMFlag=      100000 FMFlg1=           0
         NFxFlg=           0 DoJE=T BraDBF=F KetDBF=T FulRan=T
         wScrn=  0.000000 ICntrl=       500 IOpCl=  0 I1Cent=   200000004 NGrid=           0
         NMat0=    1 NMatS0=      1 NMatT0=    0 NMatD0=    1 NMtDS0=    0 NMtDT0=    0
 Symmetry not used in FoFCou.
 Harris En= -593.044613214326    
 JPrj=0 DoOrth=F DoCkMO=F.
 Leave Link  401 at Sun Oct 13 09:50:52 2024, MaxMem=  2684354560 cpu:               5.8 elap:               0.3
 (Enter /usr/local/g16_AVX//g16/l502.exe)
 Keep R1 ints in memory in canonical form, NReq=35752921.
 FoFCou: FMM=F IPFlag=           0 FMFlag=           0 FMFlg1=           0
         NFxFlg=           0 DoJE=F BraDBF=F KetDBF=F FulRan=T
         wScrn=  0.000000 ICntrl=       600 IOpCl=  0 I1Cent=           0 NGrid=           0
         NMat0=    1 NMatS0=   4851 NMatT0=    0 NMatD0=    1 NMtDS0=    0 NMtDT0=    0
 Symmetry not used in FoFCou.
 Two-electron integral symmetry not used.
 Closed shell SCF:
 Using DIIS extrapolation, IDIIS=  1040.
 NGot=  2684354560 LenX=  2672563419 LenY=  2672553374
 Requested convergence on RMS density matrix=1.00D-08 within 128 cycles.
 Requested convergence on MAX density matrix=1.00D-06.
 Requested convergence on             energy=1.00D-06.
 No special actions if energy rises.

 Cycle   1  Pass 1  IDiag  1:
 E= -592.850681705431    
 DIIS: error= 3.24D-02 at cycle   1 NSaved=   1.
 NSaved= 1 IEnMin= 1 EnMin= -592.850681705431     IErMin= 1 ErrMin= 3.24D-02
 ErrMax= 3.24D-02  0.00D+00 EMaxC= 1.00D-01 BMatC= 1.15D-01 BMatP= 1.15D-01
 IDIUse=3 WtCom= 6.76D-01 WtEn= 3.24D-01
 Coeff-Com:  0.100D+01
 Coeff-En:   0.100D+01
 Coeff:      0.100D+01
 Gap=     0.365 Goal=   None    Shift=    0.000
 GapD=    0.365 DampG=1.000 DampE=0.500 DampFc=0.5000 IDamp=-1.
 Damping current iteration by 5.00D-01
 RMSDP=2.96D-02 MaxDP=8.41D-01              OVMax= 3.09D-01

 Cycle   2  Pass 1  IDiag  1:
 E= -592.889943235313     Delta-E=       -0.039261529882 Rises=F Damp=T
 DIIS: error= 1.17D-02 at cycle   2 NSaved=   2.
 NSaved= 2 IEnMin= 2 EnMin= -592.889943235313     IErMin= 2 ErrMin= 1.17D-02
 ErrMax= 1.17D-02  0.00D+00 EMaxC= 1.00D-01 BMatC= 1.51D-02 BMatP= 1.15D-01
 IDIUse=3 WtCom= 8.83D-01 WtEn= 1.17D-01
 Coeff-Com:  0.191D+00 0.809D+00
 Coeff-En:   0.332D+00 0.668D+00
 Coeff:      0.208D+00 0.792D+00
 Gap=     0.233 Goal=   None    Shift=    0.000
 RMSDP=1.27D-02 MaxDP=4.38D-01 DE=-3.93D-02 OVMax= 2.15D-01

 Cycle   3  Pass 1  IDiag  1:
 E= -592.974308777351     Delta-E=       -0.084365542038 Rises=F Damp=F
 DIIS: error= 1.66D-02 at cycle   3 NSaved=   3.
 NSaved= 3 IEnMin= 3 EnMin= -592.974308777351     IErMin= 2 ErrMin= 1.17D-02
 ErrMax= 1.66D-02  0.00D+00 EMaxC= 1.00D-01 BMatC= 1.34D-02 BMatP= 1.51D-02
 IDIUse=3 WtCom= 8.34D-01 WtEn= 1.66D-01
 Coeff-Com:  0.621D-01 0.484D+00 0.454D+00
 Coeff-En:   0.000D+00 0.000D+00 0.100D+01
 Coeff:      0.519D-01 0.403D+00 0.545D+00
 Gap=     0.217 Goal=   None    Shift=    0.000
 RMSDP=2.08D-03 MaxDP=3.60D-02 DE=-8.44D-02 OVMax= 5.51D-02

 Cycle   4  Pass 1  IDiag  1:
 E= -592.978904226859     Delta-E=       -0.004595449508 Rises=F Damp=F
 DIIS: error= 1.40D-02 at cycle   4 NSaved=   4.
 NSaved= 4 IEnMin= 4 EnMin= -592.978904226859     IErMin= 2 ErrMin= 1.17D-02
 ErrMax= 1.40D-02  0.00D+00 EMaxC= 1.00D-01 BMatC= 8.69D-03 BMatP= 1.34D-02
 IDIUse=3 WtCom= 8.60D-01 WtEn= 1.40D-01
 Coeff-Com: -0.272D-02 0.908D-01 0.434D+00 0.478D+00
 Coeff-En:   0.000D+00 0.000D+00 0.417D+00 0.583D+00
 Coeff:     -0.234D-02 0.782D-01 0.431D+00 0.493D+00
 Gap=     0.209 Goal=   None    Shift=    0.000
 RMSDP=1.14D-03 MaxDP=2.00D-02 DE=-4.60D-03 OVMax= 3.20D-02

 Cycle   5  Pass 1  IDiag  1:
 E= -592.986465797986     Delta-E=       -0.007561571127 Rises=F Damp=F
 DIIS: error= 2.04D-03 at cycle   5 NSaved=   5.
 NSaved= 5 IEnMin= 5 EnMin= -592.986465797986     IErMin= 5 ErrMin= 2.04D-03
 ErrMax= 2.04D-03  0.00D+00 EMaxC= 1.00D-01 BMatC= 4.44D-04 BMatP= 8.69D-03
 IDIUse=3 WtCom= 9.80D-01 WtEn= 2.04D-02
 Coeff-Com: -0.482D-02 0.158D-01 0.217D+00 0.299D+00 0.473D+00
 Coeff-En:   0.000D+00 0.000D+00 0.000D+00 0.940D-02 0.991D+00
 Coeff:     -0.472D-02 0.154D-01 0.212D+00 0.293D+00 0.483D+00
 Gap=     0.211 Goal=   None    Shift=    0.000
 RMSDP=4.27D-04 MaxDP=7.21D-03 DE=-7.56D-03 OVMax= 1.29D-02

 Cycle   6  Pass 1  IDiag  1:
 E= -592.986993761761     Delta-E=       -0.000527963775 Rises=F Damp=F
 DIIS: error= 3.27D-04 at cycle   6 NSaved=   6.
 NSaved= 6 IEnMin= 6 EnMin= -592.986993761761     IErMin= 6 ErrMin= 3.27D-04
 ErrMax= 3.27D-04  0.00D+00 EMaxC= 1.00D-01 BMatC= 1.00D-05 BMatP= 4.44D-04
 IDIUse=3 WtCom= 9.97D-01 WtEn= 3.27D-03
 Coeff-Com: -0.159D-02-0.938D-03 0.632D-01 0.916D-01 0.209D+00 0.639D+00
 Coeff-En:   0.000D+00 0.000D+00 0.000D+00 0.000D+00 0.000D+00 0.100D+01
 Coeff:     -0.159D-02-0.935D-03 0.629D-01 0.913D-01 0.208D+00 0.640D+00
 Gap=     0.210 Goal=   None    Shift=    0.000
 RMSDP=6.02D-05 MaxDP=1.19D-03 DE=-5.28D-04 OVMax= 1.37D-03

 Cycle   7  Pass 1  IDiag  1:
 E= -592.987003668803     Delta-E=       -0.000009907042 Rises=F Damp=F
 DIIS: error= 8.47D-05 at cycle   7 NSaved=   7.
 NSaved= 7 IEnMin= 7 EnMin= -592.987003668803     IErMin= 7 ErrMin= 8.47D-05
 ErrMax= 8.47D-05  0.00D+00 EMaxC= 1.00D-01 BMatC= 8.58D-07 BMatP= 1.00D-05
 IDIUse=1 WtCom= 1.00D+00 WtEn= 0.00D+00
 Coeff-Com: -0.178D-03-0.773D-03 0.701D-02 0.101D-01 0.447D-01 0.288D+00
 Coeff-Com:  0.651D+00
 Coeff:     -0.178D-03-0.773D-03 0.701D-02 0.101D-01 0.447D-01 0.288D+00
 Coeff:      0.651D+00
 Gap=     0.210 Goal=   None    Shift=    0.000
 RMSDP=1.85D-05 MaxDP=4.78D-04 DE=-9.91D-06 OVMax= 5.54D-04

 Cycle   8  Pass 1  IDiag  1:
 E= -592.987004680426     Delta-E=       -0.000001011623 Rises=F Damp=F
 DIIS: error= 2.52D-05 at cycle   8 NSaved=   8.
 NSaved= 8 IEnMin= 8 EnMin= -592.987004680426     IErMin= 8 ErrMin= 2.52D-05
 ErrMax= 2.52D-05  0.00D+00 EMaxC= 1.00D-01 BMatC= 7.77D-08 BMatP= 8.58D-07
 IDIUse=1 WtCom= 1.00D+00 WtEn= 0.00D+00
 Coeff-Com:  0.130D-03-0.604D-03-0.269D-02-0.352D-02 0.246D-02 0.708D-01
 Coeff-Com:  0.299D+00 0.635D+00
 Coeff:      0.130D-03-0.604D-03-0.269D-02-0.352D-02 0.246D-02 0.708D-01
 Coeff:      0.299D+00 0.635D+00
 Gap=     0.210 Goal=   None    Shift=    0.000
 RMSDP=3.62D-06 MaxDP=8.22D-05 DE=-1.01D-06 OVMax= 7.15D-05

 Cycle   9  Pass 1  IDiag  1:
 E= -592.987004768397     Delta-E=       -0.000000087971 Rises=F Damp=F
 DIIS: error= 3.90D-06 at cycle   9 NSaved=   9.
 NSaved= 9 IEnMin= 9 EnMin= -592.987004768397     IErMin= 9 ErrMin= 3.90D-06
 ErrMax= 3.90D-06  0.00D+00 EMaxC= 1.00D-01 BMatC= 7.90D-10 BMatP= 7.77D-08
 IDIUse=1 WtCom= 1.00D+00 WtEn= 0.00D+00
 Coeff-Com:  0.533D-04-0.119D-03-0.903D-03-0.108D-02-0.131D-02 0.107D-02
 Coeff-Com:  0.383D-01 0.124D+00 0.840D+00
 Coeff:      0.533D-04-0.119D-03-0.903D-03-0.108D-02-0.131D-02 0.107D-02
 Coeff:      0.383D-01 0.124D+00 0.840D+00
 Gap=     0.210 Goal=   None    Shift=    0.000
 RMSDP=1.44D-06 MaxDP=3.45D-05 DE=-8.80D-08 OVMax= 9.21D-06

 Cycle  10  Pass 1  IDiag  1:
 E= -592.987004769380     Delta-E=       -0.000000000984 Rises=F Damp=F
 DIIS: error= 3.01D-07 at cycle  10 NSaved=  10.
 NSaved=10 IEnMin=10 EnMin= -592.987004769380     IErMin=10 ErrMin= 3.01D-07
 ErrMax= 3.01D-07  0.00D+00 EMaxC= 1.00D-01 BMatC= 9.08D-12 BMatP= 7.90D-10
 IDIUse=1 WtCom= 1.00D+00 WtEn= 0.00D+00
 Coeff-Com:  0.551D-05-0.353D-05-0.590D-04-0.681D-04-0.194D-03-0.112D-02
 Coeff-Com: -0.217D-02 0.512D-02 0.102D+00 0.897D+00
 Coeff:      0.551D-05-0.353D-05-0.590D-04-0.681D-04-0.194D-03-0.112D-02
 Coeff:     -0.217D-02 0.512D-02 0.102D+00 0.897D+00
 Gap=     0.210 Goal=   None    Shift=    0.000
 RMSDP=6.44D-08 MaxDP=1.46D-06 DE=-9.84D-10 OVMax= 1.66D-06

 Cycle  11  Pass 1  IDiag  1:
 E= -592.987004769392     Delta-E=       -0.000000000012 Rises=F Damp=F
 DIIS: error= 5.40D-08 at cycle  11 NSaved=  11.
 NSaved=11 IEnMin=11 EnMin= -592.987004769392     IErMin=11 ErrMin= 5.40D-08
 ErrMax= 5.40D-08  0.00D+00 EMaxC= 1.00D-01 BMatC= 3.13D-13 BMatP= 9.08D-12
 IDIUse=1 WtCom= 1.00D+00 WtEn= 0.00D+00
 Coeff-Com: -0.481D-06 0.154D-05 0.388D-05 0.502D-05-0.139D-04-0.107D-03
 Coeff-Com: -0.881D-03-0.743D-03 0.740D-03 0.121D+00 0.880D+00
 Coeff:     -0.481D-06 0.154D-05 0.388D-05 0.502D-05-0.139D-04-0.107D-03
 Coeff:     -0.881D-03-0.743D-03 0.740D-03 0.121D+00 0.880D+00
 Gap=     0.210 Goal=   None    Shift=    0.000
 RMSDP=1.41D-08 MaxDP=3.12D-07 DE=-1.18D-11 OVMax= 2.31D-07

 Cycle  12  Pass 1  IDiag  1:
 E= -592.987004769393     Delta-E=       -0.000000000001 Rises=F Damp=F
 DIIS: error= 7.54D-09 at cycle  12 NSaved=  12.
 NSaved=12 IEnMin=12 EnMin= -592.987004769393     IErMin=12 ErrMin= 7.54D-09
 ErrMax= 7.54D-09  0.00D+00 EMaxC= 1.00D-01 BMatC= 6.04D-15 BMatP= 3.13D-13
 IDIUse=1 WtCom= 1.00D+00 WtEn= 0.00D+00
 Coeff-Com: -0.251D-06 0.449D-06 0.116D-05 0.141D-05-0.208D-06 0.214D-05
 Coeff-Com: -0.841D-04-0.213D-03-0.165D-02 0.371D-02 0.156D+00 0.843D+00
 Coeff:     -0.251D-06 0.449D-06 0.116D-05 0.141D-05-0.208D-06 0.214D-05
 Coeff:     -0.841D-04-0.213D-03-0.165D-02 0.371D-02 0.156D+00 0.843D+00
 Gap=     0.210 Goal=   None    Shift=    0.000
 RMSDP=2.53D-09 MaxDP=4.61D-08 DE=-5.68D-13 OVMax= 3.96D-08

 SCF Done:  E(RB3LYP) =  -592.987004769     A.U. after   12 cycles
            NFock= 12  Conv=0.25D-08     -V/T= 2.0047
 KE= 5.902212502883D+02 PE=-1.627262080847D+03 EE= 3.354883928101D+02
 Leave Link  502 at Sun Oct 13 09:50:54 2024, MaxMem=  2684354560 cpu:              35.1 elap:               1.6
 (Enter /usr/local/g16_AVX//g16/l801.exe)
 DoSCS=F DFT=T ScalE2(SS,OS)=  1.000000  1.000000
 Range of M.O.s used for correlation:     1    98
 NBasis=    98 NAE=    20 NBE=    20 NFC=     0 NFV=     0
 NROrb=     98 NOA=    20 NOB=    20 NVA=    78 NVB=    78

 **** Warning!!: The largest alpha MO coefficient is  0.30451676D+02

 Leave Link  801 at Sun Oct 13 09:50:54 2024, MaxMem=  2684354560 cpu:               0.7 elap:               0.1
 (Enter /usr/local/g16_AVX//g16/l1101.exe)
 Using compressed storage, NAtomX=     7.
 Will process      8 centers per pass.
 Leave Link 1101 at Sun Oct 13 09:50:54 2024, MaxMem=  2684354560 cpu:               3.3 elap:               0.2
 (Enter /usr/local/g16_AVX//g16/l1102.exe)
 Symmetrizing basis deriv contribution to polar:
 IMax=3 JMax=2 DiffMx= 0.00D+00
 Leave Link 1102 at Sun Oct 13 09:50:54 2024, MaxMem=  2684354560 cpu:               0.7 elap:               0.1
 (Enter /usr/local/g16_AVX//g16/l1110.exe)
 Forming Gx(P) for the SCF density, NAtomX=     7.
 Integral derivatives from FoFJK, PRISM(SPDF).
 Do as many integral derivatives as possible in FoFJK.
 G2DrvN: MDV=    2684353878.
 G2DrvN: will do     8 centers at a time, making    1 passes.
 Calling FoFCou, ICntrl=  3107 FMM=F I1Cent=   0 AccDes= 0.00D+00.
 FoFJK:  IHMeth= 1 ICntrl=    3107 DoSepK=F KAlg= 0 I1Cent=           0 FoldK=F
 IRaf=         0 NMat=       1 IRICut=       1 DoRegI=T DoRafI=F ISym2E= 0 IDoP0=0 IntGTp=1.
 FoFCou: FMM=F IPFlag=           0 FMFlag=      100000 FMFlg1=           0
         NFxFlg=           0 DoJE=F BraDBF=F KetDBF=F FulRan=T
         wScrn=  0.000000 ICntrl=      3107 IOpCl=  0 I1Cent=           0 NGrid=           0
         NMat0=    1 NMatS0=      1 NMatT0=    0 NMatD0=    1 NMtDS0=    0 NMtDT0=    0
 Symmetry not used in FoFCou.
 End of G2Drv F.D. properties file   721 does not exist.
 End of G2Drv F.D. properties file   722 does not exist.
 End of G2Drv F.D. properties file   788 does not exist.
 Leave Link 1110 at Sun Oct 13 09:50:56 2024, MaxMem=  2684354560 cpu:              38.9 elap:               1.5
 (Enter /usr/local/g16_AVX//g16/l1002.exe)
 Minotr:  Closed shell wavefunction.
          IDoAtm=1111111
          Direct CPHF calculation.
          Differentiating once with respect to electric field.
                with respect to dipole field.
          Differentiating once with respect to nuclear coordinates.
          Requested convergence is 1.0D-08 RMS, and 1.0D-07 maximum.
          Secondary convergence is 1.0D-12 RMS, and 1.0D-12 maximum.
          NewPWx=T KeepS1=F KeepF1=F KeepIn=T MapXYZ=F SortEE=F KeepMc=T.
         2136 words used for storage of precomputed grid.
 Keep R1 ints in memory in canonical form, NReq=35668383.
 FoFCou: FMM=F IPFlag=           0 FMFlag=           0 FMFlg1=           0
         NFxFlg=           0 DoJE=F BraDBF=F KetDBF=F FulRan=T
         wScrn=  0.000000 ICntrl=       600 IOpCl=  0 I1Cent=           0 NGrid=           0
         NMat0=    1 NMatS0=   4851 NMatT0=    0 NMatD0=    1 NMtDS0=    0 NMtDT0=    0
 Symmetry not used in FoFCou.
 Two-electron integral symmetry not used.
          MDV=    2684354560 using IRadAn=       1.
          Solving linear equations simultaneously, MaxMat=       0.
          There are    24 degrees of freedom in the 1st order CPHF.  IDoFFX=6 NUNeed=     3.
     21 vectors produced by pass  0 Test12= 6.50D-15 4.17D-09 XBig12= 1.48D+02 8.05D+00.
 AX will form    21 AO Fock derivatives at one time.
     21 vectors produced by pass  1 Test12= 6.50D-15 4.17D-09 XBig12= 4.55D+01 2.02D+00.
     21 vectors produced by pass  2 Test12= 6.50D-15 4.17D-09 XBig12= 7.94D-01 2.89D-01.
     21 vectors produced by pass  3 Test12= 6.50D-15 4.17D-09 XBig12= 2.79D-03 1.34D-02.
     21 vectors produced by pass  4 Test12= 6.50D-15 4.17D-09 XBig12= 9.89D-06 6.73D-04.
     17 vectors produced by pass  5 Test12= 6.50D-15 4.17D-09 XBig12= 1.50D-08 2.86D-05.
      6 vectors produced by pass  6 Test12= 6.50D-15 4.17D-09 XBig12= 1.87D-11 9.85D-07.
      1 vectors produced by pass  7 Test12= 6.50D-15 4.17D-09 XBig12= 1.91D-14 3.17D-08.
 InvSVY:  IOpt=1 It=  1 EMax= 6.22D-15
 Solved reduced A of dimension   129 with    24 vectors.
 FullF1:  Do perturbations      1 to       3.
 Isotropic polarizability for W=    0.000000       66.91 Bohr**3.
 End of Minotr F.D. properties file   721 does not exist.
 End of Minotr F.D. properties file   722 does not exist.
 End of Minotr F.D. properties file   788 does not exist.
 Leave Link 1002 at Sun Oct 13 09:50:58 2024, MaxMem=  2684354560 cpu:              53.7 elap:               2.1
 (Enter /usr/local/g16_AVX//g16/l601.exe)
 Copying SCF densities to generalized density rwf, IOpCl= 0 IROHF=0.

 **********************************************************************

            Population analysis using the SCF Density.

 **********************************************************************

 Alpha  occ. eigenvalues -- -101.34986 -14.13045 -10.11169 -10.00093  -9.26468
 Alpha  occ. eigenvalues --   -7.02585  -7.02048  -7.02048  -0.68504  -0.63097
 Alpha  occ. eigenvalues --   -0.54263  -0.30668  -0.30667  -0.23371  -0.18639
 Alpha  occ. eigenvalues --   -0.13580  -0.13580  -0.13040  -0.13040  -0.09814
 Alpha virt. eigenvalues --    0.11175   0.12519   0.14874   0.14875   0.15953
 Alpha virt. eigenvalues --    0.19108   0.20253   0.20253   0.22370   0.22370
 Alpha virt. eigenvalues --    0.24623   0.24623   0.25103   0.25732   0.25733
 Alpha virt. eigenvalues --    0.25776   0.30930   0.34222   0.34223   0.37216
 Alpha virt. eigenvalues --    0.37216   0.37275   0.38248   0.45550   0.46893
 Alpha virt. eigenvalues --    0.73905   0.77149   0.77149   0.77388   0.80284
 Alpha virt. eigenvalues --    0.80286   0.86954   0.86954   0.89124   0.97288
 Alpha virt. eigenvalues --    0.99506   1.04584   1.04585   1.08452   1.08452
 Alpha virt. eigenvalues --    1.10004   1.10005   1.13007   1.16872   1.16872
 Alpha virt. eigenvalues --    1.24245   1.31834   1.39768   1.51441   1.60314
 Alpha virt. eigenvalues --    1.60315   1.74498   1.74498   1.76607   1.76607
 Alpha virt. eigenvalues --    1.82973   2.12736   2.14074   2.14082   2.16785
 Alpha virt. eigenvalues --    2.16786   2.17426   2.55438   2.63888   2.63892
 Alpha virt. eigenvalues --    2.79918   2.79918   2.83057   2.90713   2.90723
 Alpha virt. eigenvalues --    3.24791   3.45688   3.58150   3.58159   4.19429
 Alpha virt. eigenvalues --    4.45825   4.49657   4.58753
          Condensed to atoms (all electrons):
               1          2          3          4          5          6
     1  C    5.389956  -0.161874   0.431100   0.431103   0.431103  -0.149273
     2  Cl  -0.161874  17.721350  -0.049108  -0.049105  -0.049105   0.096137
     3  H    0.431100  -0.049108   0.495946  -0.019938  -0.019938  -0.048825
     4  H    0.431103  -0.049105  -0.019938   0.495932  -0.019926  -0.048816
     5  H    0.431103  -0.049105  -0.019938  -0.019926   0.495932  -0.048816
     6  C   -0.149273   0.096137  -0.048825  -0.048816  -0.048816   5.708081
     7  N   -0.026277  -0.002016  -0.001981  -0.001985  -0.001986   0.713757
               7
     1  C   -0.026277
     2  Cl  -0.002016
     3  H   -0.001981
     4  H   -0.001985
     5  H   -0.001986
     6  C    0.713757
     7  N    6.884341
 Mulliken charges:
               1
     1  C   -0.345838
     2  Cl  -0.506279
     3  H    0.212744
     4  H    0.212736
     5  H    0.212735
     6  C   -0.222244
     7  N   -0.563854
 Sum of Mulliken charges =  -1.00000
 Mulliken charges with hydrogens summed into heavy atoms:
               1
     1  C    0.292378
     2  Cl  -0.506279
     6  C   -0.222244
     7  N   -0.563854
 APT charges:
               1
     1  C    1.174897
     2  Cl  -1.019490
     3  H   -0.016462
     4  H   -0.016456
     5  H   -0.016457
     6  C   -0.463646
     7  N   -0.642385
 Sum of APT charges =  -1.00000
 APT charges with hydrogens summed into heavy atoms:
               1
     1  C    1.125522
     2  Cl  -1.019490
     6  C   -0.463646
     7  N   -0.642385
 Electronic spatial extent (au):  <R**2>=            844.0545
 Charge=             -1.0000 electrons
 Dipole moment (field-independent basis, Debye):
    X=             -4.8548    Y=              0.0000    Z=             -0.0004  Tot=              4.8548
 Quadrupole moment (field-independent basis, Debye-Ang):
   XX=            -87.8190   YY=            -35.2562   ZZ=            -35.2567
   XY=              0.0001   XZ=             -0.0009   YZ=              0.0000
 Traceless Quadrupole moment (field-independent basis, Debye-Ang):
   XX=            -35.0417   YY=             17.5211   ZZ=             17.5206
   XY=              0.0001   XZ=             -0.0009   YZ=              0.0000
 Octapole moment (field-independent basis, Debye-Ang**2):
  XXX=           -125.9570  YYY=             -0.0074  ZZZ=             -1.0582  XYY=             -6.7091
  XXY=              0.0003  XXZ=             -0.0075  XZZ=             -6.7094  YZZ=              0.0074
  YYZ=              1.0597  XYZ=              0.0000
 Hexadecapole moment (field-independent basis, Debye-Ang**3):
 XXXX=          -1748.5459 YYYY=            -55.3799 ZZZZ=            -55.3792 XXXY=              0.0013
 XXXZ=             -0.0328 YYYX=             -0.0010 YYYZ=              0.0000 ZZZX=             -0.1433
 ZZZY=             -0.0000 XXYY=           -215.6618 XXZZ=           -215.6618 YYZZ=            -18.4604
 XXYZ=              0.0000 YYXZ=              0.1452 ZZXY=              0.0010
 N-N= 1.085654329794D+02 E-N=-1.627262080154D+03  KE= 5.902212502883D+02
  Exact polarizability: 123.145  -0.000  38.791   0.002  -0.000  38.791
 Approx polarizability: 159.243  -0.000  48.641   0.004   0.000  48.640
 No NMR shielding tensors so no spin-rotation constants.
 Leave Link  601 at Sun Oct 13 09:50:58 2024, MaxMem=  2684354560 cpu:               2.7 elap:               0.1
 (Enter /usr/local/g16_AVX//g16/l701.exe)
 ... and contract with generalized density number  0.
 Compute integral second derivatives.
 Leave Link  701 at Sun Oct 13 09:50:58 2024, MaxMem=  2684354560 cpu:               4.7 elap:               0.2
 (Enter /usr/local/g16_AVX//g16/l702.exe)
 L702 exits ... SP integral derivatives will be done elsewhere.
 Leave Link  702 at Sun Oct 13 09:50:59 2024, MaxMem=  2684354560 cpu:               0.6 elap:               0.1
 (Enter /usr/local/g16_AVX//g16/l703.exe)
 Integral derivatives from FoFJK, PRISM(SPDF).
 Compute integral second derivatives, UseDBF=F ICtDFT=           0.
 Calling FoFJK, ICntrl=    100127 FMM=F ISym2X=0 I1Cent= 0 IOpClX= 0 NMat=1 NMatS=1 NMatT=0.
 FoFJK:  IHMeth= 1 ICntrl=  100127 DoSepK=F KAlg= 0 I1Cent=           0 FoldK=F
 IRaf=         0 NMat=       1 IRICut=       1 DoRegI=T DoRafI=F ISym2E= 0 IDoP0=0 IntGTp=1.
 FoFCou: FMM=F IPFlag=           0 FMFlag=      100000 FMFlg1=         800
         NFxFlg=           0 DoJE=F BraDBF=F KetDBF=F FulRan=T
         wScrn=  0.000000 ICntrl=    100127 IOpCl=  0 I1Cent=           0 NGrid=           0
         NMat0=    1 NMatS0=      1 NMatT0=    0 NMatD0=    1 NMtDS0=    0 NMtDT0=    0
 Symmetry not used in FoFCou.
 Leave Link  703 at Sun Oct 13 09:51:01 2024, MaxMem=  2684354560 cpu:              66.6 elap:               2.6
 (Enter /usr/local/g16_AVX//g16/l716.exe)
 Dipole        =-1.91001023D+00 6.70161631D-06-1.68384563D-04
 Polarizability= 1.23144906D+02-2.74790941D-05 3.87906032D+01
                 2.04266238D-03-2.67978189D-06 3.87909073D+01
 Full mass-weighted force constant matrix:
 Low frequencies --- -380.5717  -14.7386  -14.6981   -0.0028   -0.0021    0.0004
 Low frequencies ---   63.2800   63.3136  116.2593
 ******    1 imaginary frequencies (negative Signs) ****** 
 Diagonal vibrational polarizability:
      214.1524840      33.4580725      33.4205636
 Harmonic frequencies (cm**-1), IR intensities (KM/Mole), Raman scattering
 activities (A**4/AMU), depolarization ratios for plane and unpolarized
 incident light, reduced masses (AMU), force constants (mDyne/A),
 and normal coordinates:
                      1                      2                      3
                      A                      A                      A
 Frequencies --   -380.5717                62.9666                62.9974
 Red. masses --     12.0894                 8.0648                 8.0657
 Frc consts  --      1.0316                 0.0188                 0.0189
 IR Inten    --   1127.3311                 4.2213                 4.2199
  Atom  AN      X      Y      Z        X      Y      Z        X      Y      Z
     1   6     0.91   0.00  -0.00    -0.00  -0.33  -0.00     0.00   0.00  -0.33
     2  17    -0.14  -0.00   0.00    -0.00   0.12   0.00     0.00  -0.00   0.12
     3   1     0.09   0.00  -0.08    -0.00  -0.35  -0.00    -0.19   0.00  -0.35
     4   1     0.09   0.07   0.04     0.17  -0.35  -0.00     0.09   0.01  -0.35
     5   1     0.09  -0.07   0.04    -0.17  -0.35  -0.01     0.10   0.00  -0.35
     6   6    -0.24  -0.00   0.00    -0.00  -0.48  -0.01     0.00   0.01  -0.48
     7   7    -0.24   0.00  -0.00     0.00   0.47   0.01    -0.00  -0.01   0.47
                      4                      5                      6
                      A                      A                      A
 Frequencies --    231.5741               263.0074               263.0228
 Red. masses --     18.2692                 5.1445                 5.1443
 Frc consts  --      0.5772                 0.2097                 0.2097
 IR Inten    --      5.1359                12.1917                12.1923
  Atom  AN      X      Y      Z        X      Y      Z        X      Y      Z
     1   6    -0.13  -0.00   0.00    -0.00   0.45   0.02     0.00  -0.02   0.45
     2  17     0.49   0.00  -0.00    -0.00  -0.09  -0.00    -0.00   0.00  -0.09
     3   1     0.04  -0.00   0.02     0.00   0.46   0.02     0.01  -0.02   0.47
     4   1     0.03  -0.02  -0.01    -0.01   0.46   0.02    -0.00  -0.01   0.46
     5   1     0.03   0.02  -0.01     0.01   0.46   0.01    -0.00  -0.02   0.46
     6   6    -0.60   0.00  -0.00     0.00  -0.38  -0.01     0.00   0.01  -0.38
     7   7    -0.61   0.00  -0.00     0.00   0.07   0.00     0.00  -0.00   0.07
                      7                      8                      9
                      A                      A                      A
 Frequencies --    980.4464               980.5293              1082.8137
 Red. masses --      1.0289                 1.0289                 1.0492
 Frc consts  --      0.5827                 0.5828                 0.7248
 IR Inten    --      0.0242                 0.0242                91.3079
  Atom  AN      X      Y      Z        X      Y      Z        X      Y      Z
     1   6    -0.00  -0.00  -0.03     0.00  -0.03   0.00    -0.03  -0.00   0.00
     2  17    -0.00   0.00   0.01     0.00   0.01  -0.00    -0.02   0.00  -0.00
     3   1     0.81   0.00   0.06    -0.02   0.09  -0.00     0.57  -0.00   0.06
     4   1    -0.42  -0.01   0.08    -0.69   0.07  -0.01     0.57  -0.05  -0.03
     5   1    -0.38   0.01   0.08     0.71   0.07   0.01     0.57   0.05  -0.03
     6   6     0.00  -0.00  -0.02     0.00  -0.02   0.00    -0.01  -0.00   0.00
     7   7    -0.00   0.00   0.00     0.00   0.00  -0.00    -0.02   0.00  -0.00
                     10                     11                     12
                      A                      A                      A
 Frequencies --   1412.5309              1412.5713              2176.3259
 Red. masses --      1.0983                 1.0983                12.7494
 Frc consts  --      1.2912                 1.2912                35.5785
 IR Inten    --      4.3549                 4.3536                 2.1463
  Atom  AN      X      Y      Z        X      Y      Z        X      Y      Z
     1   6    -0.00  -0.00  -0.09     0.00  -0.09   0.00     0.00   0.00  -0.00
     2  17    -0.00  -0.00  -0.00     0.00  -0.00   0.00    -0.00  -0.00   0.00
     3   1    -0.11   0.01  -0.09     0.00   0.80   0.00    -0.05   0.00  -0.00
     4   1     0.05  -0.39   0.57     0.09   0.14  -0.39    -0.05   0.00   0.00
     5   1     0.05   0.39   0.58    -0.09   0.13   0.38    -0.05  -0.00   0.00
     6   6    -0.00   0.00   0.00     0.00   0.00  -0.00     0.76  -0.00   0.00
     7   7    -0.00   0.00   0.00     0.00   0.00  -0.00    -0.64   0.00  -0.00
                     13                     14                     15
                      A                      A                      A
 Frequencies --   3185.4728              3376.3903              3376.4919
 Red. masses --      1.0101                 1.1224                 1.1224
 Frc consts  --      6.0389                 7.5387                 7.5391
 IR Inten    --      0.8134                 1.5198                 1.5174
  Atom  AN      X      Y      Z        X      Y      Z        X      Y      Z
     1   6     0.01   0.00   0.00    -0.00  -0.10  -0.00    -0.00   0.00  -0.10
     2  17    -0.00  -0.00  -0.00    -0.00   0.00   0.00    -0.00  -0.00   0.00
     3   1    -0.06  -0.00   0.57    -0.00  -0.01   0.01    -0.09  -0.00   0.81
     4   1    -0.06  -0.50  -0.29     0.08   0.61   0.36     0.05   0.35   0.19
     5   1    -0.06   0.50  -0.29    -0.08   0.60  -0.35     0.05  -0.36   0.20
     6   6     0.00  -0.00  -0.00     0.00   0.00   0.00     0.00  -0.00   0.00
     7   7     0.00  -0.00   0.00     0.00  -0.00  -0.00     0.00   0.00  -0.00

 -------------------
 - Thermochemistry -
 -------------------
 Temperature   298.150 Kelvin.  Pressure   1.00000 Atm.
 Atom     1 has atomic number  6 and mass  12.00000
 Atom     2 has atomic number 17 and mass  34.96885
 Atom     3 has atomic number  1 and mass   1.00783
 Atom     4 has atomic number  1 and mass   1.00783
 Atom     5 has atomic number  1 and mass   1.00783
 Atom     6 has atomic number  6 and mass  12.00000
 Atom     7 has atomic number  7 and mass  14.00307
 Molecular mass:    75.99540 amu.
 Principal axes and moments of inertia in atomic units:
                           1         2         3
     Eigenvalues --    12.340341451.068131451.06906
           X            1.00000   0.00000  -0.00000
           Y           -0.00000   0.99998  -0.00698
           Z            0.00000   0.00698   0.99998
 This molecule is an asymmetric top.
 Rotational symmetry number  1.
 Rotational temperatures (Kelvin)      7.01876     0.05969     0.05969
 Rotational constants (GHZ):         146.24731     1.24373     1.24373
    1 imaginary frequencies ignored.
 Zero-point vibrational energy     112850.6 (Joules/Mol)
                                   26.97193 (Kcal/Mol)
 Warning -- explicit consideration of   5 degrees of freedom as
           vibrations may cause significant error
 Vibrational temperatures:     90.59    90.64   333.18   378.41   378.43
          (Kelvin)           1410.64  1410.76  1557.93  2032.32  2032.38
                             3131.25  4583.18  4857.87  4858.02
 
 Zero-point correction=                           0.042983 (Hartree/Particle)
 Thermal correction to Energy=                    0.049001
 Thermal correction to Enthalpy=                  0.049946
 Thermal correction to Gibbs Free Energy=         0.012960
 Sum of electronic and zero-point Energies=           -592.944022
 Sum of electronic and thermal Energies=              -592.938003
 Sum of electronic and thermal Enthalpies=            -592.937059
 Sum of electronic and thermal Free Energies=         -592.974045
 
                     E (Thermal)             CV                S
                      KCal/Mol        Cal/Mol-Kelvin    Cal/Mol-Kelvin
 Total                   30.749             16.482             77.843
 Electronic               0.000              0.000              0.000
 Translational            0.889              2.981             38.900
 Rotational               0.889              2.981             24.767
 Vibrational             28.971             10.520             14.177
 Vibration     1          0.597              1.972              4.362
 Vibration     2          0.597              1.972              4.361
 Vibration     3          0.653              1.793              1.867
 Vibration     4          0.670              1.741              1.642
 Vibration     5          0.670              1.741              1.642
                       Q            Log10(Q)             Ln(Q)
 Total Bot       0.109399D-05         -5.960985        -13.725675
 Total V=0       0.645030D+14         13.809580         31.797732
 Vib (Bot)       0.728087D-18        -18.137817        -41.763866
 Vib (Bot)    1  0.327840D+01          0.515662          1.187355
 Vib (Bot)    2  0.327678D+01          0.515447          1.186861
 Vib (Bot)    3  0.849931D+00         -0.070616         -0.162600
 Vib (Bot)    4  0.737405D+00         -0.132294         -0.304619
 Vib (Bot)    5  0.737356D+00         -0.132323         -0.304685
 Vib (V=0)       0.429287D+02          1.632748          3.759541
 Vib (V=0)    1  0.381631D+01          0.581643          1.339283
 Vib (V=0)    2  0.381471D+01          0.581461          1.338864
 Vib (V=0)    3  0.148610D+01          0.172047          0.396152
 Vib (V=0)    4  0.139094D+01          0.143307          0.329976
 Vib (V=0)    5  0.139089D+01          0.143294          0.329947
 Electronic      0.100000D+01          0.000000          0.000000
 Translational   0.260396D+08          7.415635         17.075130
 Rotational      0.577028D+05          4.761197         10.963061
 
                                                       RxCoord=0.29992 DE=55.06
                                                             IR Spectrum
 
      3      3                                     2                           1            1                                        
      3      1                                     1                           4            0   9                          22        
      7      8                                     7                           1            8   8                          63     6  
      6      5                                     6                           3            3   0                          32     3  
 
      X      X                                     X                           X            X                              XX     X  
                                                                               X            X                              X      X  
                                                                                            X                              X         
                                                                                            X                              X         
                                                                                            X                              X         
                                                                                            X                                        
                                                                                            X                                        
                                                                                            X                                        
                                                                                            X                                        
                                                                                            X                                        
                                                                                            X                                        
                                                                                            X                                        
                                                                                            X                                        
                                                                                            X                                        
                                                                                            X                                        
                                                                                            X                                        
                                                                                            X                                        
                                                                                            X                                        
                                                                                            X                                        
                                                                                            X                                        
 
 -------------------------------------------------------------------
 Center     Atomic                   Forces (Hartrees/Bohr)
 Number     Number              X              Y              Z
 -------------------------------------------------------------------
      1        6          -0.003417156   -0.000000096    0.000002780
      2       17           0.000368324    0.000000218    0.000002123
      3        1           0.000249594   -0.000002302    0.001026485
      4        1           0.000245275   -0.000906955   -0.000517678
      5        1           0.000245872    0.000909201   -0.000513214
      6        6           0.000641532   -0.000000102    0.000000204
      7        7           0.001666558    0.000000035   -0.000000700
 -------------------------------------------------------------------
 Cartesian Forces:  Max     0.003417156 RMS     0.000936528
 Z-matrix is all fixed cartesians, so copy forces.
 Force constants in Cartesian coordinates: 
                1             2             3             4             5 
      1 -0.349152D-01
      2  0.000000D+00  0.678648D+00
      3  0.658007D-04  0.000000D+00  0.678635D+00
      4  0.351990D-01  0.000000D+00 -0.422169D-05  0.518342D-01
      5  0.000000D+00 -0.212998D-01  0.000000D+00  0.000000D+00  0.112933D-01
      6 -0.749442D-05  0.000000D+00 -0.212980D-01  0.000000D+00  0.000000D+00
      7 -0.142913D-01 -0.957281D-04  0.410515D-01 -0.200230D-01 -0.250408D-04
      8 -0.868835D-04 -0.534961D-01  0.751467D-03  0.908216D-05  0.297671D-03
      9  0.371469D-01  0.751509D-03 -0.375667D+00 -0.389479D-02 -0.953876D-05
     10 -0.143056D-01 -0.355500D-01 -0.206371D-01 -0.200243D-01 -0.923327D-02
     11 -0.321707D-01 -0.294452D+00 -0.139846D+00  0.336891D-02  0.336359D-02
     12 -0.186759D-01 -0.139841D+00 -0.134663D+00  0.195614D-02  0.177955D-02
     13 -0.143054D-01  0.356453D-01 -0.204700D-01 -0.200248D-01  0.925826D-02
     14  0.322569D-01 -0.295754D+00  0.139095D+00 -0.337795D-02  0.338003D-02
     15 -0.185249D-01  0.139090D+00 -0.133362D+00  0.194043D-02 -0.176988D-02
     16  0.212301D-01  0.000000D+00 -0.157494D-05 -0.167043D-01  0.000000D+00
     17  0.000000D+00 -0.173749D-01  0.000000D+00  0.000000D+00  0.357097D-02
     18 -0.173412D-04  0.000000D+00 -0.173742D-01  0.859669D-05  0.000000D+00
     19  0.213884D-01  0.000000D+00 -0.439050D-05 -0.102567D-01  0.000000D+00
     20  0.000000D+00  0.372865D-02  0.000000D+00  0.000000D+00 -0.605786D-03
     21  0.129619D-04  0.000000D+00  0.372913D-02 -0.635803D-05  0.000000D+00
                6             7             8             9            10 
      6  0.112976D-01
      7  0.106767D-01  0.431059D-01
      8 -0.944772D-05  0.889594D-04  0.454480D-01
      9  0.439361D-02 -0.380674D-01 -0.786305D-03  0.382516D+00
     10 -0.535756D-02  0.156302D-02  0.254746D-02  0.230623D-02  0.431239D-01
     11  0.177902D-02 -0.707180D-03  0.436070D-02  0.390076D-02  0.329676D-01
     12  0.132909D-02 -0.336511D-02 -0.234259D-01 -0.703236D-02  0.191335D-01
     13 -0.531456D-02  0.156297D-02 -0.255816D-02  0.229427D-02  0.156124D-02
     14 -0.176941D-02  0.722831D-03  0.426933D-02 -0.384800D-02  0.327027D-02
     15  0.131255D-02 -0.336170D-02  0.234785D-01 -0.694096D-02  0.107260D-02
     16  0.142319D-05 -0.101789D-01  0.000000D+00 -0.391274D-03 -0.101800D-01
     17  0.000000D+00  0.186889D-04 -0.120024D-02 -0.113035D-04  0.695153D-02
     18  0.357089D-02 -0.803516D-02 -0.112690D-04  0.365112D-02  0.403726D-02
     19  0.130598D-05 -0.173867D-02 -0.139900D-05  0.606028D-03 -0.173822D-02
     20  0.000000D+00 -0.253056D-05  0.320648D-03  0.288413D-05 -0.953547D-03
     21 -0.605769D-03  0.110113D-02  0.289190D-05 -0.921298D-03 -0.554882D-03
               11            12            13            14            15 
     11  0.297540D+00
     12  0.146314D+00  0.130370D+00
     13 -0.327523D-02  0.105731D-02  0.431242D-01
     14 -0.126329D-01  0.136082D-01 -0.330559D-01  0.298902D+00
     15 -0.137137D-01  0.996625D-02  0.189786D-01 -0.145528D+00  0.129009D+00
     16  0.339917D-03  0.197925D-03 -0.101799D-01 -0.340802D-03  0.196317D-03
     17  0.242898D-02  0.210461D-02 -0.697041D-02  0.244862D-02 -0.209327D-02
     18  0.210580D-02  0.224907D-04  0.400484D-02 -0.209449D-02  0.287601D-05
     19 -0.523251D-03 -0.303800D-03 -0.173820D-02  0.524658D-03 -0.301334D-03
     20 -0.608424D-03 -0.539129D-03  0.956199D-03 -0.613472D-03  0.536234D-03
     21 -0.539400D-03  0.721052D-05 -0.550415D-03  0.536496D-03  0.122307D-04
               16            17            18            19            20 
     16  0.117747D+01
     17 -0.146449D-04  0.135160D-01
     18  0.442429D-03  0.000000D+00  0.135166D-01
     19 -0.115146D+01  0.144240D-04 -0.440613D-03  0.114554D+01
     20  0.146023D-04 -0.338949D-02  0.000000D+00 -0.145007D-04  0.116787D-02
     21 -0.445245D-03  0.000000D+00 -0.338977D-02  0.442803D-03  0.000000D+00
               21 
     21  0.116826D-02
 Leave Link  716 at Sun Oct 13 09:51:01 2024, MaxMem=  2684354560 cpu:               0.9 elap:               0.1
 (Enter /usr/local/g16_AVX//g16/l103.exe)

 GradGradGradGradGradGradGradGradGradGradGradGradGradGradGradGradGradGrad
 Berny optimization.
 Search for a local minimum.
 Step number   1 out of a maximum of    2
 All quantities printed in internal units (Hartrees-Bohrs-Radians)
 Second derivative matrix not updated -- analytic derivatives used.
 ITU=  0
     Eigenvalues ---   -0.07033   0.00148   0.00148   0.01886   0.01887
     Eigenvalues ---    0.03650   0.04275   0.04276   0.07521   0.10709
     Eigenvalues ---    0.10709   0.39571   0.98986   0.98987   2.31214
 Eigenvalue     1 is  -7.03D-02 should be greater than     0.000000 Eigenvector:
                          X1        X2        X7        X6        Z3
   1                    0.89503  -0.26156  -0.23759  -0.23495  -0.07336
                          Y5        Y4        Z4        Z5        X4
   1                   -0.06362   0.06345   0.03682   0.03653   0.03006
 Angle between quadratic step and forces=  16.76 degrees.
 Linear search not attempted -- first point.
 B after Tr=    -0.000156    0.000006   -0.000077
         Rot=    1.000000    0.000000    0.000002    0.000000 Ang=   0.00 deg.
 Variable       Old X    -DE/DX   Delta X   Delta X   Delta X     New X
                                 (Linear)    (Quad)   (Total)
    X1       -0.05608  -0.00342   0.00000  -0.05003  -0.05019  -0.10626
    Y1        0.00001  -0.00000   0.00000  -0.00001  -0.00001   0.00000
    Z1       -0.00027   0.00000   0.00000   0.00013   0.00005  -0.00021
    X2       -4.14913   0.00037   0.00000   0.00560   0.00545  -4.14368
    Y2       -0.00000   0.00000   0.00000   0.00001   0.00002   0.00002
    Z2        0.00011   0.00000   0.00000  -0.00017  -0.00026  -0.00016
    X3        0.18598   0.00025   0.00000   0.00379   0.00364   0.18963
    Y3        0.00472  -0.00000   0.00000  -0.00003  -0.00002   0.00470
    Z3       -2.02054   0.00103   0.00000   0.00656   0.00648  -2.01406
    X4        0.18635   0.00025   0.00000   0.00346   0.00330   0.18966
    Y4        1.74732  -0.00091   0.00000  -0.00565  -0.00564   1.74168
    Z4        1.01383  -0.00052   0.00000  -0.00299  -0.00307   1.01077
    X5        0.18634   0.00025   0.00000   0.00346   0.00330   0.18964
    Y5       -1.75202   0.00091   0.00000   0.00563   0.00564  -1.74638
    Z5        1.00567  -0.00051   0.00000  -0.00296  -0.00304   1.00263
    X6        4.38623   0.00064   0.00000   0.01710   0.01694   4.40317
    Y6        0.00001  -0.00000   0.00000  -0.00002  -0.00002  -0.00001
    Z6       -0.00045   0.00000   0.00000   0.00038   0.00032  -0.00013
    X7        6.61036   0.00167   0.00000   0.01770   0.01755   6.62791
    Y7       -0.00002   0.00000   0.00000   0.00003   0.00003   0.00001
    Z7        0.00042  -0.00000   0.00000  -0.00044  -0.00049  -0.00007
         Item               Value     Threshold  Converged?
 Maximum Force            0.003417     0.000450     NO 
 RMS     Force            0.000937     0.000300     NO 
 Maximum Displacement     0.050186     0.001800     NO 
 RMS     Displacement     0.012542     0.001200     NO 
 Predicted change in Energy=-3.352153D-04
 GradGradGradGradGradGradGradGradGradGradGradGradGradGradGradGradGradGrad

 Leave Link  103 at Sun Oct 13 09:51:01 2024, MaxMem=  2684354560 cpu:               0.6 elap:               0.1
 (Enter /usr/local/g16_AVX//g16/l9999.exe)

 ----------------------------------------------------------------------

 Electric dipole moment (input orientation):
 (Debye = 10**-18 statcoulomb cm , SI units = C m)
                  (au)            (Debye)         (10**-30 SI)
   Tot        0.191001D+01      0.485476D+01      0.161937D+02
   x         -0.191001D+01     -0.485476D+01     -0.161937D+02
   y          0.000000D+00      0.000000D+00      0.000000D+00
   z         -0.168385D-03     -0.427991D-03     -0.142762D-02

 Dipole polarizability, Alpha (input orientation).
 (esu units = cm**3 , SI units = C**2 m**2 J**-1)
 Alpha(0;0):
               (au)            (10**-24 esu)      (10**-40 SI)
   iso        0.669088D+02      0.991486D+01      0.110318D+02
   aniso      0.843542D+02      0.125000D+02      0.139081D+02
   xx         0.123145D+03      0.182482D+02      0.203039D+02
   yx        -0.274791D-04     -0.407198D-05     -0.453069D-05
   yy         0.387906D+02      0.574817D+01      0.639571D+01
   zx         0.204266D-02      0.302691D-03      0.336790D-03
   zy         0.000000D+00      0.000000D+00      0.000000D+00
   zz         0.387909D+02      0.574822D+01      0.639576D+01

 ----------------------------------------------------------------------

 Dipole orientation:
     6         -0.00026151          0.00001114          0.05607765
    17          0.00047161         -0.00001834          4.14912612
     1         -2.02055501          0.00473206         -0.18580681
     1          1.01382210          1.74732102         -0.18643481
     1          1.00564242         -1.75201899         -0.18643881
     6         -0.00083266          0.00002862         -4.38622813
     7         -0.00016324          0.00000808         -6.61036026

 Electric dipole moment (dipole orientation):
 (Debye = 10**-18 statcoulomb cm , SI units = C m)
                  (au)            (Debye)         (10**-30 SI)
   Tot        0.191001D+01      0.485476D+01      0.161937D+02
   x          0.000000D+00      0.000000D+00      0.000000D+00
   y          0.000000D+00      0.000000D+00      0.000000D+00
   z          0.191001D+01      0.485476D+01      0.161937D+02

 Dipole polarizability, Alpha (dipole orientation).
 (esu units = cm**3 , SI units = C**2 m**2 J**-1)
 Alpha(0;0):
               (au)            (10**-24 esu)      (10**-40 SI)
   iso        0.669088D+02      0.991486D+01      0.110318D+02
   aniso      0.843542D+02      0.125000D+02      0.139081D+02
   xx         0.387909D+02      0.574822D+01      0.639576D+01
   yx         0.000000D+00      0.000000D+00      0.000000D+00
   yy         0.387906D+02      0.574817D+01      0.639571D+01
   zx         0.539390D-02      0.799293D-03      0.889334D-03
   zy        -0.268512D-03     -0.397894D-04     -0.442716D-04
   zz         0.123145D+03      0.182482D+02      0.203039D+02

 ----------------------------------------------------------------------
 1\1\GINC-NODO10\Freq\RB3LYP\6-31++G(d,p)\C2H3Cl1N1(1-)\ALANQF\13-Oct-2
 024\0\\#p b3lyp 6-31++g(d,p) scf=verytight NoSymm freq=noraman int=ult
 rafine\\RxCoord=0.29992 DE=55.06\\-1,1\C,-0.029675,0.000006,-0.000141\
 Cl,-2.195623,-0.000002,0.000056\H,0.098419,0.0025,-1.069223\H,0.098613
 ,0.924644,0.536497\H,0.098609,-0.927127,0.532175\C,2.321092,0.000007,-
 0.000236\N,3.498052,-0.000008,0.000222\\Version=ES64L-G16RevB.01\HF=-5
 92.9870048\RMSD=2.533e-09\RMSF=9.365e-04\ZeroPoint=0.0429825\Thermal=0
 .0490013\Dipole=-1.8516266,0.0000069,-0.0001833\DipoleDeriv=3.3601667,
 0.0000061,-0.0001797,0.0000056,0.0822511,0.0000003,-0.0002786,0.,0.082
 2718,-2.0116659,-0.0000016,0.0000736,-0.0000063,-0.5234027,0.,0.000107
 8,0.,-0.5234022,-0.1610424,0.0000089,-0.0041466,0.0000632,0.0689731,0.
 0000611,-0.0269858,0.0000613,0.0426836,-0.1610465,0.0035959,0.002102,0
 .0233554,0.0493271,-0.0114108,0.0135863,-0.0114007,0.0623523,-0.161048
 9,-0.0036073,0.0020854,-0.0234154,0.0492204,0.0113493,0.0134756,0.0113
 392,0.0624582,-0.7561817,-0.0000028,0.0000885,-0.0000156,-0.317381,0.0
 000001,0.0004996,0.,-0.3173766,-1.1091814,0.0000008,-0.0000232,0.00001
 31,-0.408988,0.,-0.0004049,0.,-0.4089871\Polar=123.1449058,-0.0000275,
 38.7906032,0.0020427,-0.0000027,38.7909073\Quadrupole=-26.0526361,13.0
 264859,13.0261502,0.0000376,-0.0006367,0.0000022\PG=C01 [X(C2H3Cl1N1)]
 \NImag=1\\-0.03491522,0.00000005,0.67864803,0.00006580,-0.00000059,0.6
 7863481,0.03519902,0.00000023,-0.00000422,0.05183415,0.00000036,-0.021
 29978,0.,-0.00000018,0.01129330,-0.00000749,-0.00000003,-0.02129800,0.
 00000021,-0.00000013,0.01129763,-0.01429132,-0.00009573,0.04105152,-0.
 02002304,-0.00002504,0.01067667,0.04310591,-0.00008688,-0.05349611,0.0
 0075147,0.00000908,0.00029767,-0.00000945,0.00008896,0.04544801,0.0371
 4689,0.00075151,-0.37566656,-0.00389479,-0.00000954,0.00439361,-0.0380
 6735,-0.00078630,0.38251644,-0.01430561,-0.03555001,-0.02063712,-0.020
 02433,-0.00923327,-0.00535756,0.00156302,0.00254746,0.00230623,0.04312
 395,-0.03217073,-0.29445186,-0.13984623,0.00336891,0.00336359,0.001779
 02,-0.00070718,0.00436070,0.00390076,0.03296756,0.29753994,-0.01867594
 ,-0.13984108,-0.13466304,0.00195614,0.00177955,0.00132909,-0.00336511,
 -0.02342585,-0.00703236,0.01913348,0.14631372,0.13037035,-0.01430541,0
 .03564527,-0.02047001,-0.02002484,0.00925826,-0.00531456,0.00156297,-0
 .00255816,0.00229427,0.00156124,-0.00327523,0.00105731,0.04312415,0.03
 225693,-0.29575405,0.13909536,-0.00337795,0.00338003,-0.00176941,0.000
 72283,0.00426933,-0.00384800,0.00327027,-0.01263294,0.01360818,-0.0330
 5593,0.29890248,-0.01852488,0.13909020,-0.13336213,0.00194043,-0.00176
 988,0.00131255,-0.00336170,0.02347852,-0.00694096,0.00107260,-0.013713
 66,0.00996625,0.01897857,-0.14552814,0.12900918,0.02123012,0.00000006,
 -0.00000157,-0.01670427,-0.00000008,0.00000142,-0.01017887,0.00000094,
 -0.00039127,-0.01018003,0.00033992,0.00019792,-0.01017991,-0.00034080,
 0.00019632,1.17746806,0.00000070,-0.01737488,-0.00000001,-0.00000030,0
 .00357097,0.,0.00001869,-0.00120024,-0.00001130,0.00695153,0.00242898,
 0.00210461,-0.00697041,0.00244862,-0.00209327,-0.00001464,0.01351604,-
 0.00001734,-0.00000002,-0.01737421,0.00000860,0.,0.00357089,-0.0080351
 6,-0.00001127,0.00365112,0.00403726,0.00210580,0.00002249,0.00400484,-
 0.00209449,0.00000288,0.00044243,-0.00000003,0.01351659,0.02138843,0.0
 0000013,-0.00000439,-0.01025669,-0.00000006,0.00000131,-0.00173867,-0.
 00000140,0.00060603,-0.00173822,-0.00052325,-0.00030380,-0.00173820,0.
 00052466,-0.00030133,-1.15145511,0.00001442,-0.00044061,1.14553846,-0.
 00000044,0.00372865,0.00000001,0.00000021,-0.00060579,0.,-0.00000253,0
 .00032065,0.00000288,-0.00095355,-0.00060842,-0.00053913,0.00095620,-0
 .00061347,0.00053623,0.00001460,-0.00338949,0.,-0.00001450,0.00116787,
 0.00001296,0.00000001,0.00372913,-0.00000636,0.,-0.00060577,0.00110113
 ,0.00000289,-0.00092130,-0.00055488,-0.00053940,0.00000721,-0.00055041
 ,0.00053650,0.00001223,-0.00044524,0.,-0.00338977,0.00044280,0.,0.0011
 6826\\0.00341716,0.00000010,-0.00000278,-0.00036832,-0.00000022,-0.000
 00212,-0.00024959,0.00000230,-0.00102649,-0.00024528,0.00090696,0.0005
 1768,-0.00024587,-0.00090920,0.00051321,-0.00064153,0.00000010,-0.0000
 0020,-0.00166656,-0.00000004,0.00000070\\\@


 NOTHING RESEMBLES A NEW PHENOMENON AS MUCH AS A MISTAKE.

                               -- ENRICO FERMI (?)
 Job cpu time:       0 days  0 hours  3 minutes 46.6 seconds.
 Elapsed time:       0 days  0 hours  0 minutes  9.8 seconds.
 File lengths (MBytes):  RWF=     88 Int=      0 D2E=      0 Chk=      2 Scr=      2
 Normal termination of Gaussian 16 at Sun Oct 13 09:51:01 2024.
