RxCoord=0.39989 DE=54.88                                                
Freq      RB3LYP                                                      6-31++G(d,p)        
Number of atoms                            I                7
Info1-9                                    I   N=           9
          16          16           0           0           0         100
           6          18        -502
Full Title                                 C   N=           2
RxCoord=0.39989 DE=54.88
Route                                      C   N=           6
#p b3lyp 6-31++g(d,p) scf=verytight NoSymm freq=noraman int=
ultrafine   
Charge                                     I               -1
Multiplicity                               I                1
Number of electrons                        I               40
Number of alpha electrons                  I               20
Number of beta electrons                   I               20
Number of basis functions                  I               98
Number of independent functions            I               98
Number of point charges in /Mol/           I                0
Number of translation vectors              I                0
Atomic numbers                             I   N=           7
           6          17           1           1           1           6
           7
Nuclear charges                            R   N=           7
  6.00000000E+00  1.70000000E+01  1.00000000E+00  1.00000000E+00  1.00000000E+00
  6.00000000E+00  7.00000000E+00
Current cartesian coordinates              R   N=          21
 -8.21766303E-02  1.13383567E-05 -2.64561657E-04 -4.14475332E+00 -3.77945225E-06
  1.03934937E-04  1.82880135E-01  4.71675641E-03 -2.01812357E+00  1.83297765E-01
  1.74524144E+00  1.01260785E+00  1.83288316E-01 -1.74992608E+00  1.00445180E+00
  4.39272318E+00  1.13383567E-05 -4.38416461E-04  6.61690248E+00 -1.51178090E-05
  4.21408926E-04
Number of symbols in /Mol/                 I                0
Force Field                                I                0
Atom Types                                 C   N=           7
                                                            
                        
Int Atom Types                             I   N=           7
           0           0           0           0           0           0
           0
MM charges                                 R   N=           7
  0.00000000E+00  0.00000000E+00  0.00000000E+00  0.00000000E+00  0.00000000E+00
  0.00000000E+00  0.00000000E+00
Integer atomic weights                     I   N=           7
          12          35           1           1           1          12
          14
Real atomic weights                        R   N=           7
  1.20000000E+01  3.49688527E+01  1.00782504E+00  1.00782504E+00  1.00782504E+00
  1.20000000E+01  1.40030740E+01
Atom fragment info                         I   N=           7
           0           0           0           0           0           0
           0
Atom residue num                           I   N=           7
           0           0           0           0           0           0
           0
Nuclear spins                              I   N=           7
           0           3           1           1           1           0
           2
Nuclear ZEff                               R   N=           7
 -3.60000000E+00 -1.42400000E+01 -1.00000000E+00 -1.00000000E+00 -1.00000000E+00
 -3.60000000E+00 -4.55000000E+00
Nuclear ZNuc                               R   N=           7
  6.00000000E+00  1.70000000E+01  1.00000000E+00  1.00000000E+00  1.00000000E+00
  6.00000000E+00  7.00000000E+00
Nuclear QMom                               R   N=           7
  0.00000000E+00 -8.16500000E+00  0.00000000E+00  0.00000000E+00  0.00000000E+00
  0.00000000E+00  2.04400000E+00
Nuclear GFac                               R   N=           7
  0.00000000E+00  8.21874000E-01  2.79284600E+00  2.79284600E+00  2.79284600E+00
  0.00000000E+00  4.03761000E-01
MicOpt                                     I   N=           7
          -1          -1          -1          -1          -1          -1
          -1
Number of residues                         I                0
Number of secondary structures             I                0
Number of contracted shells                I               33
Number of primitive shells                 I               72
Pure/Cartesian d shells                    I                1
Pure/Cartesian f shells                    I                0
Highest angular momentum                   I                2
Largest degree of contraction              I                6
Shell types                                I   N=          33
           0          -1          -1          -1           2           0
          -1          -1          -1          -1           2           0
           0           0           1           0           0           0
           1           0           0           0           1           0
          -1          -1          -1           2           0          -1
          -1          -1           2
Number of primitives per shell             I   N=          33
           6           3           1           1           1           6
           6           3           1           1           1           3
           1           1           1           3           1           1
           1           3           1           1           1           6
           3           1           1           1           6           3
           1           1           1
Shell to atom map                          I   N=          33
           1           1           1           1           1           2
           2           2           2           2           2           3
           3           3           3           4           4           4
           4           5           5           5           5           6
           6           6           6           6           7           7
           7           7           7
Primitive exponents                        R   N=          72
  3.04752488E+03  4.57369518E+02  1.03948685E+02  2.92101553E+01  9.28666296E+00
  3.16392696E+00  7.86827235E+00  1.88128854E+00  5.44249258E-01  1.68714478E-01
  4.38000000E-02  8.00000000E-01  2.51801000E+04  3.78035000E+03  8.60474000E+02
  2.42145000E+02  7.73349000E+01  2.62470000E+01  4.91765000E+02  1.16984000E+02
  3.74153000E+01  1.37834000E+01  5.45215000E+00  2.22588000E+00  3.18649000E+00
  1.14427000E+00  4.20377000E-01  1.42657000E-01  4.83000000E-02  7.50000000E-01
  1.87311370E+01  2.82539436E+00  6.40121692E-01  1.61277759E-01  3.60000000E-02
  1.10000000E+00  1.87311370E+01  2.82539436E+00  6.40121692E-01  1.61277759E-01
  3.60000000E-02  1.10000000E+00  1.87311370E+01  2.82539436E+00  6.40121692E-01
  1.61277759E-01  3.60000000E-02  1.10000000E+00  3.04752488E+03  4.57369518E+02
  1.03948685E+02  2.92101553E+01  9.28666296E+00  3.16392696E+00  7.86827235E+00
  1.88128854E+00  5.44249258E-01  1.68714478E-01  4.38000000E-02  8.00000000E-01
  4.17351146E+03  6.27457911E+02  1.42902093E+02  4.02343293E+01  1.28202129E+01
  4.39043701E+00  1.16263619E+01  2.71627981E+00  7.72218397E-01  2.12031498E-01
  6.39000000E-02  8.00000000E-01
Contraction coefficients                   R   N=          72
  1.83473713E-03  1.40373228E-02  6.88426223E-02  2.32184443E-01  4.67941348E-01
  3.62311985E-01 -1.19332420E-01 -1.60854152E-01  1.14345644E+00  1.00000000E+00
  1.00000000E+00  1.00000000E+00  1.83295985E-03  1.40341988E-02  6.90973943E-02
  2.37451980E-01  4.83033960E-01  3.39855972E-01 -2.29739142E-03 -3.07137189E-02
 -1.12528069E-01  4.50163278E-02  5.89353363E-01  4.65206287E-01 -2.51828028E-01
  6.15892514E-02  1.06018433E+00  1.00000000E+00  1.00000000E+00  1.00000000E+00
  3.34946043E-02  2.34726953E-01  8.13757326E-01  1.00000000E+00  1.00000000E+00
  1.00000000E+00  3.34946043E-02  2.34726953E-01  8.13757326E-01  1.00000000E+00
  1.00000000E+00  1.00000000E+00  3.34946043E-02  2.34726953E-01  8.13757326E-01
  1.00000000E+00  1.00000000E+00  1.00000000E+00  1.83473713E-03  1.40373228E-02
  6.88426223E-02  2.32184443E-01  4.67941348E-01  3.62311985E-01 -1.19332420E-01
 -1.60854152E-01  1.14345644E+00  1.00000000E+00  1.00000000E+00  1.00000000E+00
  1.83477216E-03  1.39946270E-02  6.85865518E-02  2.32240873E-01  4.69069948E-01
  3.60455199E-01 -1.14961182E-01 -1.69117479E-01  1.14585195E+00  1.00000000E+00
  1.00000000E+00  1.00000000E+00
P(S=P) Contraction coefficients            R   N=          72
  0.00000000E+00  0.00000000E+00  0.00000000E+00  0.00000000E+00  0.00000000E+00
  0.00000000E+00  6.89990666E-02  3.16423961E-01  7.44308291E-01  1.00000000E+00
  1.00000000E+00  0.00000000E+00  0.00000000E+00  0.00000000E+00  0.00000000E+00
  0.00000000E+00  0.00000000E+00  0.00000000E+00  3.98940088E-03  3.03177067E-02
  1.29880029E-01  3.27951072E-01  4.53527100E-01  2.52154056E-01 -1.42993147E-02
  3.23572333E-01  7.43507765E-01  1.00000000E+00  1.00000000E+00  0.00000000E+00
  0.00000000E+00  0.00000000E+00  0.00000000E+00  0.00000000E+00  0.00000000E+00
  0.00000000E+00  0.00000000E+00  0.00000000E+00  0.00000000E+00  0.00000000E+00
  0.00000000E+00  0.00000000E+00  0.00000000E+00  0.00000000E+00  0.00000000E+00
  0.00000000E+00  0.00000000E+00  0.00000000E+00  0.00000000E+00  0.00000000E+00
  0.00000000E+00  0.00000000E+00  0.00000000E+00  0.00000000E+00  6.89990666E-02
  3.16423961E-01  7.44308291E-01  1.00000000E+00  1.00000000E+00  0.00000000E+00
  0.00000000E+00  0.00000000E+00  0.00000000E+00  0.00000000E+00  0.00000000E+00
  0.00000000E+00  6.75797439E-02  3.23907296E-01  7.40895140E-01  1.00000000E+00
  1.00000000E+00  0.00000000E+00
Coordinates of each shell                  R   N=          99
 -8.21766303E-02  1.13383567E-05 -2.64561657E-04 -8.21766303E-02  1.13383567E-05
 -2.64561657E-04 -8.21766303E-02  1.13383567E-05 -2.64561657E-04 -8.21766303E-02
  1.13383567E-05 -2.64561657E-04 -8.21766303E-02  1.13383567E-05 -2.64561657E-04
 -4.14475332E+00 -3.77945225E-06  1.03934937E-04 -4.14475332E+00 -3.77945225E-06
  1.03934937E-04 -4.14475332E+00 -3.77945225E-06  1.03934937E-04 -4.14475332E+00
 -3.77945225E-06  1.03934937E-04 -4.14475332E+00 -3.77945225E-06  1.03934937E-04
 -4.14475332E+00 -3.77945225E-06  1.03934937E-04  1.82880135E-01  4.71675641E-03
 -2.01812357E+00  1.82880135E-01  4.71675641E-03 -2.01812357E+00  1.82880135E-01
  4.71675641E-03 -2.01812357E+00  1.82880135E-01  4.71675641E-03 -2.01812357E+00
  1.83297765E-01  1.74524144E+00  1.01260785E+00  1.83297765E-01  1.74524144E+00
  1.01260785E+00  1.83297765E-01  1.74524144E+00  1.01260785E+00  1.83297765E-01
  1.74524144E+00  1.01260785E+00  1.83288316E-01 -1.74992608E+00  1.00445180E+00
  1.83288316E-01 -1.74992608E+00  1.00445180E+00  1.83288316E-01 -1.74992608E+00
  1.00445180E+00  1.83288316E-01 -1.74992608E+00  1.00445180E+00  4.39272318E+00
  1.13383567E-05 -4.38416461E-04  4.39272318E+00  1.13383567E-05 -4.38416461E-04
  4.39272318E+00  1.13383567E-05 -4.38416461E-04  4.39272318E+00  1.13383567E-05
 -4.38416461E-04  4.39272318E+00  1.13383567E-05 -4.38416461E-04  6.61690248E+00
 -1.51178090E-05  4.21408926E-04  6.61690248E+00 -1.51178090E-05  4.21408926E-04
  6.61690248E+00 -1.51178090E-05  4.21408926E-04  6.61690248E+00 -1.51178090E-05
  4.21408926E-04  6.61690248E+00 -1.51178090E-05  4.21408926E-04
Num ILSW                                   I              100
ILSW                                       I   N=         100
           0           1           0           0           2           0
           0           0           0           0         402          -1
           5           0           0           0           2           0
           0           0           0           0           1           0
           1           1           0           0           0           0
           0           0      100000           0          -1           0
           0           0           0           0           0           0
           0           0           0           1           0           0
           0 -2000000000           1           0           0           0
           0           0           4          52           0           0
           0           0           5           0           0           0
           0           0           0           7           0           1
           0           0           0           0           0           0
           0           0           0           0           0           0
           0           0           0           0           0           0
           0           0           0           0           0           0
           0           0           0           0
Num RLSW                                   I               52
RLSW                                       R   N=          52
  8.00000000E-01  7.20000000E-01  1.00000000E+00  8.10000000E-01  2.00000000E-01
  0.00000000E+00  0.00000000E+00  1.00000000E+00  0.00000000E+00  0.00000000E+00
  0.00000000E+00  0.00000000E+00  1.00000000E+00  0.00000000E+00  0.00000000E+00
  0.00000000E+00  0.00000000E+00  1.00000000E+00  0.00000000E+00  0.00000000E+00
  0.00000000E+00  0.00000000E+00  1.00000000E+00  0.00000000E+00  0.00000000E+00
  0.00000000E+00  0.00000000E+00  1.00000000E+00  0.00000000E+00  0.00000000E+00
  0.00000000E+00  0.00000000E+00  1.00000000E+00  0.00000000E+00  0.00000000E+00
  0.00000000E+00  0.00000000E+00  0.00000000E+00  1.00000000E+00  1.00000000E+00
  0.00000000E+00  1.00000000E+00  0.00000000E+00  0.00000000E+00  0.00000000E+00
  0.00000000E+00  0.00000000E+00  0.00000000E+00  0.00000000E+00  0.00000000E+00
  0.00000000E+00  0.00000000E+00
MxBond                                     I                3
NBond                                      I   N=           7
           3           0           1           1           1           1
           1
IBond                                      I   N=          21
           3           4           5           0           0           0
           1           0           0           1           0           0
           1           0           0           7           0           0
           6           0           0
RBond                                      R   N=          21
  1.00000000E+00  1.00000000E+00  1.00000000E+00  0.00000000E+00  0.00000000E+00
  0.00000000E+00  1.00000000E+00  0.00000000E+00  0.00000000E+00  1.00000000E+00
  0.00000000E+00  0.00000000E+00  1.00000000E+00  0.00000000E+00  0.00000000E+00
  3.00000000E+00  0.00000000E+00  0.00000000E+00  3.00000000E+00  0.00000000E+00
  0.00000000E+00
Virial Ratio                               R      2.004678500918180E+00
SCF Energy                                 R     -5.929871424778930E+02
Total Energy                               R     -5.929871424778930E+02
RMS Force                                  R      1.314618623852391E-03
RMS Density                                R      2.627643372765162E-09
NImag                                      I                1
Job Status                                 I                1
Nuclear derivative order                   I                2
External E-field                           R   N=          35
  0.00000000E+00  0.00000000E+00  0.00000000E+00  0.00000000E+00  0.00000000E+00
  0.00000000E+00  0.00000000E+00  0.00000000E+00  0.00000000E+00  0.00000000E+00
  0.00000000E+00  0.00000000E+00  0.00000000E+00  0.00000000E+00  0.00000000E+00
  0.00000000E+00  0.00000000E+00  0.00000000E+00  0.00000000E+00  0.00000000E+00
  0.00000000E+00  0.00000000E+00  0.00000000E+00  0.00000000E+00  0.00000000E+00
  0.00000000E+00  0.00000000E+00  0.00000000E+00  0.00000000E+00  0.00000000E+00
  0.00000000E+00  0.00000000E+00  0.00000000E+00  0.00000000E+00  0.00000000E+00
IOpCl                                      I                0
IROHF                                      I                0
Alpha Orbital Energies                     R   N=          98
 -1.01352959E+02 -1.41281869E+01 -1.01110822E+01 -9.99813612E+00 -9.26781085E+00
 -7.02909444E+00 -7.02354904E+00 -7.02354898E+00 -6.82798097E-01 -6.34308128E-01
 -5.42418536E-01 -3.06167659E-01 -3.06153053E-01 -2.32749541E-01 -1.87784220E-01
 -1.37412223E-01 -1.37411154E-01 -1.29067535E-01 -1.29067469E-01 -9.68058357E-02
  1.11893646E-01  1.25121896E-01  1.48748237E-01  1.48749148E-01  1.59810904E-01
  1.91023435E-01  2.03134609E-01  2.03138434E-01  2.23409772E-01  2.23412015E-01
  2.46876968E-01  2.46877644E-01  2.50834519E-01  2.57928429E-01  2.57933496E-01
  2.58514374E-01  3.09557956E-01  3.42308816E-01  3.42313447E-01  3.73107684E-01
  3.73111468E-01  3.73361307E-01  3.81905028E-01  4.56413606E-01  4.69491171E-01
  7.36762633E-01  7.69904773E-01  7.69910451E-01  7.72140061E-01  8.01966564E-01
  8.01980330E-01  8.71008066E-01  8.71008430E-01  8.90073780E-01  9.76347683E-01
  9.96380565E-01  1.04403800E+00  1.04404889E+00  1.08320066E+00  1.08320438E+00
  1.09915100E+00  1.09916176E+00  1.12944801E+00  1.17007775E+00  1.17007863E+00
  1.24315329E+00  1.32073570E+00  1.39402750E+00  1.51369162E+00  1.60233452E+00
  1.60235480E+00  1.74723980E+00  1.74724148E+00  1.76856523E+00  1.76856718E+00
  1.83015584E+00  2.12862164E+00  2.14433751E+00  2.14442295E+00  2.17008562E+00
  2.17009249E+00  2.17432340E+00  2.55990836E+00  2.63084398E+00  2.63089474E+00
  2.80155419E+00  2.80155606E+00  2.83048381E+00  2.91289220E+00  2.91299545E+00
  3.24918528E+00  3.45431880E+00  3.57958354E+00  3.57968207E+00  4.19574771E+00
  4.45898777E+00  4.49433456E+00  4.58415635E+00
Alpha MO coefficients                      R   N=        9604
 -1.56239083E-06 -7.65172147E-05 -1.10099284E-05  2.96996307E-11  9.60000942E-10
  1.71625357E-05 -1.26574839E-04 -8.44338891E-10  6.42930010E-09 -1.64821631E-04
  8.40333449E-05  6.26591295E-10  6.36651834E-09  8.81146582E-05  1.29398920E-05
  1.29381900E-05  4.83219916E-10 -5.42648100E-09 -3.96868094E-11  9.95997565E-01
  1.51502725E-02  2.07567852E-05  1.22343349E-10 -1.95663531E-09 -2.10577752E-02
 -8.24254627E-06 -1.72483417E-11  1.44882935E-09  1.85875157E-03 -6.07572318E-05
 -2.70793912E-10  4.48468228E-09 -2.13953846E-04  3.52654485E-05  2.90866046E-10
 -5.78875851E-09  7.50307097E-03  7.52773353E-03  7.52773362E-03 -8.26468179E-11
  2.53098751E-09  1.19763385E-12 -5.69422375E-06 -1.38168364E-05  5.63147647E-05
  2.36151727E-05  2.54403903E-09 -1.03585904E-06 -5.69150603E-06 -1.38114575E-05
  5.62992095E-05  2.36143800E-05  8.94391890E-07  5.17329145E-07 -5.69232961E-06
 -1.38113563E-05  5.63006202E-05  2.36145563E-05 -8.96544866E-07  5.13153262E-07
 -1.55057130E-06 -5.49018289E-06  2.86922955E-06  9.79390724E-11 -3.73501464E-09
 -1.43087642E-04 -1.74218614E-04  1.17428864E-09 -3.39282299E-08 -1.47595321E-04
 -4.49791772E-05  1.17460520E-10 -4.59474644E-09 -7.91380529E-06 -1.38182367E-06
 -1.38183079E-06  2.05023398E-10 -7.67954101E-09  2.52194980E-12 -3.01073754E-06
 -1.33422256E-05 -3.25618427E-07 -5.76856715E-11  2.36580861E-09  1.89177093E-04
 -9.11303968E-05  1.40843992E-09 -4.77410929E-08  1.45142726E-04 -6.15846441E-06
  6.20535107E-10 -2.13281654E-08  2.65967667E-06 -7.52463965E-06 -7.52462364E-06
 -2.00588374E-10  6.70573101E-09  2.52637273E-13 -5.36298135E-06  8.00432650E-07
 -3.06117552E-05  5.26416200E-11  2.67857624E-09  1.00440687E-04  6.25240926E-05
 -1.48701523E-10 -2.47823858E-08  1.45792008E-03  7.03619961E-04  3.84931100E-09
 -1.77274103E-07 -2.96775928E-05 -9.90836303E-06 -9.90800767E-06 -1.76702695E-11
  4.12886245E-09  6.66842440E-11  1.46567880E-07  1.56243813E-06  5.59893770E-07
  4.91201364E-12 -3.41625811E-10  5.46036025E-06 -3.41313191E-06 -2.63896546E-11
  1.94753802E-09 -5.21391588E-05  1.10931979E-05  1.12044080E-10 -6.21494843E-09
  3.33904835E-04  6.08996868E-05 -1.20393985E-09  5.20647952E-08  5.80525024E-06
  1.21206820E-06  1.21218769E-06 -3.28158928E-11  8.16119661E-10 -1.34892750E-11
  9.26351094E-07 -1.02645790E-04 -1.45955366E-04 -8.00428435E-06  1.40920651E-08
 -6.04520273E-06  9.18713866E-07 -1.02579327E-04 -1.46103301E-04 -7.99893691E-06
  5.22583549E-06  3.03523919E-06  9.18795891E-07 -1.02578741E-04 -1.46107757E-04
 -7.99876585E-06 -5.23981354E-06  3.01073801E-06  8.36738498E-05  2.06567833E-04
 -3.33530013E-04  3.69786350E-09 -1.20795083E-07 -1.70041602E-04 -3.19908780E-04
  5.30759897E-09 -1.70185817E-07  5.56774560E-04  1.50717015E-03 -1.21010218E-08
  3.82193839E-07 -8.10697218E-04 -8.41830061E-06 -8.41877495E-06  1.09285446E-08
 -3.55556276E-07  1.18545392E-11  9.92705421E-01  3.44641479E-02 -1.50911682E-03
  1.80993504E-08 -5.84295340E-07  5.08789339E-03  1.94429880E-04 -2.61050021E-09
  8.07451248E-08 -3.03637000E-03 -6.94810033E-05 -1.29560026E-09  4.66268605E-08
 -7.66227322E-03 -8.41657750E-03 -8.41657768E-03 -1.02589038E-08  3.33604040E-07
 -6.66241976E-12  9.93095597E-01  4.92339975E-02 -1.04000217E-04 -1.86785310E-09
 -8.05515485E-08 -1.63371806E-02 -6.56578188E-04  1.20941289E-08  5.72636999E-07
  3.92393549E-03 -2.38495757E-03 -3.86868262E-09  5.92191788E-07 -9.28314253E-03
 -8.49658975E-03 -8.49668853E-03  2.57920730E-10  1.16741581E-07  5.41859078E-10
 -7.24030337E-06 -5.15400250E-05 -3.38937566E-05  1.22565222E-10  3.56609477E-09
 -3.15919211E-04  1.80173901E-04 -8.66047958E-10 -1.86280203E-08  1.62216496E-03
  1.00036762E-03  8.40356401E-09 -1.03026204E-07 -3.13591182E-03 -1.30593761E-03
 -7.95291834E-09  4.78493140E-08  2.22620114E-04 -1.00956416E-04 -1.00960734E-04
  2.16066690E-09 -4.09073674E-08  3.87721786E-10 -1.86129401E-04  3.04878780E-03
 -8.45434143E-04  6.58558803E-05  4.62867672E-07 -1.98788416E-04 -1.86205369E-04
  3.04824681E-03 -8.45913066E-04  6.58980361E-05  1.71964751E-04  9.97886652E-05
 -1.86206279E-04  3.04826835E-03 -8.45920927E-04  6.58992230E-05 -1.72427726E-04
  9.89837619E-05 -2.14612772E-06 -2.15810812E-04  4.97704507E-05  1.54819160E-09
 -1.53934983E-08 -2.02497246E-03 -3.41063673E-03  1.77363788E-08 -7.12496513E-07
  1.27176364E-03  1.53279174E-04 -1.17516536E-09 -2.56242254E-07  5.44288009E-05
 -4.21461470E-05 -4.21364456E-05  3.09930634E-09 -9.94245584E-08 -1.29118753E-10
 -7.62680021E-05 -3.29353372E-04  3.03007534E-05 -2.68014588E-09  8.27268251E-08
  3.86879686E-03 -1.47957976E-03  2.87001437E-08 -8.99775692E-07  1.93844444E-04
 -2.55653690E-04 -4.25518388E-10  2.17994552E-07 -6.84034328E-05 -1.64055989E-04
 -1.64056582E-04 -2.08635954E-09  5.54182067E-08  1.59843973E-11 -6.08957644E-05
 -2.14535289E-04 -4.83897302E-05  3.17665172E-10 -1.78379247E-09  6.63382538E-04
  8.30454533E-04 -2.64811637E-09 -8.15897738E-08  2.81717359E-03  1.24317025E-02
  2.50633206E-08 -8.43258969E-07  1.20233688E-04 -4.27507329E-05 -4.27577106E-05
 -5.22604931E-10 -1.04438951E-08 -1.49195882E-10  2.19899954E-07  9.28852741E-06
  1.15528940E-05  8.17855159E-11 -2.80224716E-09  1.66502167E-05 -7.83534665E-05
 -5.15306894E-10  1.74141996E-08 -3.75680573E-04  5.38446482E-04  2.58670304E-09
 -7.78460908E-08  1.02293221E-02  2.80062344E-03  1.79978289E-08 -3.47597256E-07
  7.06755168E-05 -1.75797360E-06 -1.75578350E-06  5.92278888E-10 -1.30591087E-08
 -3.22027998E-11 -2.92336853E-05 -4.54438883E-04  3.23184177E-04 -1.92102921E-05
 -3.29158573E-08  1.41453908E-05 -2.92487017E-05 -4.54327119E-04  3.23736935E-04
 -1.91696652E-05 -1.22420636E-05 -7.09928582E-06 -2.92491500E-05 -4.54329342E-04
  3.23759348E-04 -1.91706521E-05  1.22746683E-05 -7.04177095E-06  9.92836153E-01
  4.94620219E-02  1.61015010E-03 -2.27728719E-08  7.63173868E-07 -1.03638045E-02
  3.62485213E-04  1.16949008E-08 -4.28323888E-07 -1.78512401E-02  4.33263605E-03
  2.27100402E-08 -1.27936063E-06 -8.47988982E-03 -9.72243733E-03 -9.72243840E-03
 -1.73601430E-08  5.62647613E-07  5.27196592E-11 -4.71123242E-04  1.61069560E-04
  3.68125007E-04 -4.02503081E-09  1.35786856E-07 -2.39337165E-03  1.05854469E-03
 -1.64777357E-08  5.15267879E-07  9.38381736E-03 -4.40385238E-03  3.20272021E-08
 -8.03426978E-07 -1.76965082E-04  2.23827990E-04  2.23828502E-04  6.44320649E-09
 -2.12304542E-07  4.61906662E-12 -3.55789330E-05  1.09514135E-05  1.45263782E-04
  1.00236596E-09 -1.25810638E-08  1.30730140E-03 -1.90391558E-03  1.69962208E-09
  1.66432780E-07 -5.00201791E-03  2.87505159E-02  5.72087082E-08 -2.21621181E-06
 -1.47592444E-04 -2.28520872E-05 -2.28784858E-05 -1.27176981E-09  1.09404049E-08
  1.93880477E-09 -2.84621736E-01  1.02275261E+00  2.45379465E-03  1.56298621E-08
 -2.29195798E-07  7.57054972E-02  4.89853767E-04  1.40425745E-09 -4.85034710E-08
 -2.44359779E-02 -1.68723980E-03 -5.16144359E-09  1.48385020E-07  3.87025090E-02
  1.20162172E-02  5.20956421E-08 -1.26842449E-06 -1.54473405E-02 -1.55329986E-02
 -1.55330025E-02  7.69001386E-10 -1.27971351E-08  3.20057113E-11 -4.13048575E-05
 -4.92081714E-04 -5.99762941E-04 -4.37102959E-05 -3.47103029E-08  1.46899910E-05
 -4.13378531E-05 -4.92018193E-04 -5.99129821E-04 -4.36592882E-05 -1.26948039E-05
 -7.36107897E-06 -4.13365749E-05 -4.92000821E-04 -5.99179004E-04 -4.36653394E-05
  1.27310070E-05 -7.30341981E-06  1.30109652E-05  4.50092874E-05  2.78721686E-05
 -2.36242834E-09  7.40421318E-08 -8.51871780E-04 -5.15734870E-04  1.16001712E-08
 -3.32565029E-07 -2.30493132E-02  1.07484016E-02 -1.94101046E-08 -6.84033498E-07
  9.51577547E-05  1.60877424E-05  1.60866102E-05  2.35236510E-10 -7.57295126E-09
  6.87191626E-11 -3.46537115E-05 -1.15637114E-04 -6.55907013E-06 -1.26662609E-09
  6.36221301E-08  1.04108052E-03 -5.31653876E-05  4.97462906E-09 -2.76948949E-07
 -1.57544045E-04 -2.07523568E-03 -1.79536440E-09  6.25499876E-07 -1.02738757E-04
 -7.41806119E-05 -7.41804954E-05  5.97661365E-10 -1.61361051E-08 -2.66389052E-11
  9.55014710E-05  6.15604330E-04 -5.17112794E-04 -5.30035017E-10  5.41155688E-08
 -5.91319029E-04  5.22984292E-04  1.91007770E-08  1.74956824E-07 -3.80329521E-03
 -6.21242656E-02 -1.21797207E-07  3.42054862E-06 -2.43577294E-04  2.88170102E-04
  2.88132909E-04 -3.98943870E-09  5.14135985E-09  4.67117838E-09  7.36826655E-04
 -2.73749791E-03  9.90517096E-01  5.55388498E-06 -7.62426207E-05  8.92775709E-05
  3.09335146E-02  1.71163921E-07 -2.42514964E-06  1.91071526E-03 -1.38323801E-02
 -7.22596070E-08  1.15471195E-06 -5.09538316E-02 -1.00340614E-02 -7.16127767E-08
  1.65139097E-06  2.00543528E-04 -9.48569010E-05 -9.48622485E-05  3.82633236E-10
 -1.35633628E-08  6.99804642E-11 -1.81132507E-04  1.57012665E-03 -4.93286943E-03
 -2.82571693E-04 -5.71758990E-08  2.38443288E-05 -1.81238821E-04  1.56994188E-03
 -4.93412911E-03 -2.82530000E-04 -2.05667318E-05 -1.19186969E-05 -1.81220386E-04
  1.56995041E-03 -4.93418819E-03 -2.82541890E-04  2.06246812E-05 -1.18258628E-05
 -5.84880827E-05 -2.63567162E-04 -7.78424094E-05  5.30043997E-09 -1.94393252E-07
  2.83577034E-03  9.80323910E-04 -3.33457381E-08  1.11775292E-06  7.12305088E-02
 -2.74512539E-02 -1.16367980E-08  3.44437255E-06 -1.85633056E-05 -9.57653124E-05
 -9.57645421E-05 -2.45632224E-09  8.52409858E-08 -8.36374211E-11 -1.85251627E-05
 -6.09159348E-05  3.42301063E-05  1.39375676E-09 -8.83963549E-08 -2.32516772E-04
  3.81456686E-04 -8.32026152E-09  4.74255339E-07 -9.59987685E-03  7.52176100E-03
 -1.18496040E-08 -9.27134445E-07 -7.07053099E-05 -2.74916372E-05 -2.74945063E-05
 -1.01310706E-10  7.19063462E-09 -2.97864055E-12 -1.40265597E-09 -6.65438218E-09
  1.81875522E-09 -5.35284816E-05 -1.01787236E-06  3.95204890E-08 -8.14180732E-09
  2.30027529E-04  4.37970790E-06  4.15737917E-08  1.41606781E-07  2.47167514E-04
  4.68489678E-06 -1.93959281E-09 -7.09191502E-07  7.06103067E-07 -1.18591307E-04
 -2.25422860E-06 -6.80860960E-05  1.41810474E-10 -3.15948544E-10 -4.10405910E-06
  9.90665215E-01  1.88297207E-02  4.34843689E-10 -1.25298136E-07  2.95875643E-02
  5.62374743E-04 -7.88133661E-09  4.65259313E-08 -1.15621907E-02 -2.19763219E-04
  9.41919913E-08  9.58353154E-09  5.13319386E-03  9.75663967E-05 -2.83116470E-09
  5.02781850E-08 -4.86596351E-08  1.68838875E-04  3.20899567E-06  4.62573144E-06
  1.76949441E-06 -1.03900094E-05  7.03311712E-05  2.91989856E-06 -2.37482846E-05
 -1.71530651E-06 -9.27565105E-05  5.44011806E-04 -3.68859149E-03 -1.53045419E-04
 -8.10459108E-05 -3.36821926E-05  9.09842556E-05 -5.33685402E-04  3.61828384E-03
  1.50133577E-04 -8.01061846E-05  3.18841380E-05  1.53041929E-10  8.94825826E-10
  5.10853856E-10  5.81660563E-05  1.10526935E-06 -6.05977351E-09 -8.19305264E-10
 -2.45738094E-04 -4.67050061E-06 -1.50112399E-07  5.82055342E-08  1.02089612E-03
  1.94142785E-05 -1.34878700E-10  2.49326776E-08 -2.45871368E-08  1.35984200E-06
  2.57534572E-08  2.34017732E-06  5.19771427E-11  2.12364286E-10 -3.20554745E-10
 -2.36488974E-05 -4.50182587E-07 -5.57117631E-10  9.86983669E-10  1.42888007E-04
  2.71907855E-06  1.77845359E-08 -1.39101687E-08 -3.59756185E-04 -6.84971457E-06
 -9.60965798E-11  2.82391455E-08 -2.78321159E-08 -1.73680251E-05 -3.30016388E-07
  2.68463781E-06  2.37180251E-10  7.99589548E-09  2.78138278E-08  1.01718954E-06
 -5.35397616E-05  3.39683914E-08 -2.37624790E-07 -4.36401748E-06  2.29995735E-04
  4.22894843E-07  4.30519646E-06 -4.70054445E-06  2.46618477E-04 -4.09168241E-08
 -5.89914579E-05  5.90241733E-05  2.25361106E-06 -1.18574174E-04  8.18462485E-07
 -1.29174528E-08  5.89528767E-08  7.63775105E-05 -1.88297202E-02  9.90665215E-01
  2.20070720E-08  2.23840973E-06 -5.62375467E-04  2.95875527E-02 -2.86947979E-07
 -8.63947812E-07  2.19764994E-04 -1.15621735E-02  3.47479509E-06  1.43588509E-06
 -9.75701359E-05  5.13328801E-03  2.28174568E-08  4.04345849E-06 -4.03980882E-06
 -3.20935058E-06  1.68841767E-04 -5.44998541E-08  1.06070824E-04 -6.22482436E-04
  4.21864593E-03  1.75062616E-04  6.28336587E-07 -9.95506182E-05 -5.14972521E-05
  3.02062179E-04 -2.04794834E-03 -8.49742068E-05 -3.13616630E-05 -4.22131797E-05
 -5.45575074E-05  3.20045141E-04 -2.16979894E-03 -9.00316445E-05  3.42491369E-05
 -4.31530512E-05  8.40523052E-09  3.73610579E-08 -2.41186935E-08 -1.10563284E-06
  5.81534442E-05 -1.36867458E-06 -8.47518896E-07  4.67051882E-06 -2.45709344E-04
 -4.68563401E-06  2.18587977E-06 -1.94005587E-05  1.02122191E-03 -3.98501116E-08