 Entering Gaussian System, Link 0=g16
 Initial command:
 /usr/local/g16_AVX//g16/l1.exe "/scratch/alanqf/0105-54547.ixchel.mda.cinvestav.mx/Gau-15423.inp" -scrdir="/scratch/alanqf/0105-54547.ixchel.mda.cinvestav.mx/"
 Entering Link 1 = /usr/local/g16_AVX//g16/l1.exe PID=     15424.
  
 Copyright (c) 1988-2017, Gaussian, Inc.  All Rights Reserved.
  
 This is part of the Gaussian(R) 16 program.  It is based on
 the Gaussian(R) 09 system (copyright 2009, Gaussian, Inc.),
 the Gaussian(R) 03 system (copyright 2003, Gaussian, Inc.),
 the Gaussian(R) 98 system (copyright 1998, Gaussian, Inc.),
 the Gaussian(R) 94 system (copyright 1995, Gaussian, Inc.),
 the Gaussian 92(TM) system (copyright 1992, Gaussian, Inc.),
 the Gaussian 90(TM) system (copyright 1990, Gaussian, Inc.),
 the Gaussian 88(TM) system (copyright 1988, Gaussian, Inc.),
 the Gaussian 86(TM) system (copyright 1986, Carnegie Mellon
 University), and the Gaussian 82(TM) system (copyright 1983,
 Carnegie Mellon University). Gaussian is a federally registered
 trademark of Gaussian, Inc.
  
 This software contains proprietary and confidential information,
 including trade secrets, belonging to Gaussian, Inc.
  
 This software is provided under written license and may be
 used, copied, transmitted, or stored only in accord with that
 written license.
  
 The following legend is applicable only to US Government
 contracts under FAR:
  
                    RESTRICTED RIGHTS LEGEND
  
 Use, reproduction and disclosure by the US Government is
 subject to restrictions as set forth in subparagraphs (a)
 and (c) of the Commercial Computer Software - Restricted
 Rights clause in FAR 52.227-19.
  
 Gaussian, Inc.
 340 Quinnipiac St., Bldg. 40, Wallingford CT 06492
  
  
 ---------------------------------------------------------------
 Warning -- This program may not be used in any manner that
 competes with the business of Gaussian, Inc. or will provide
 assistance to any competitor of Gaussian, Inc.  The licensee
 of this program is prohibited from giving any competitor of
 Gaussian, Inc. access to this program.  By using this program,
 the user acknowledges that Gaussian, Inc. is engaged in the
 business of creating and licensing software in the field of
 computational chemistry and represents and warrants to the
 licensee that it is not a competitor of Gaussian, Inc. and that
 it will not use this program in any manner prohibited above.
 ---------------------------------------------------------------
  

 Cite this work as:
 Gaussian 16, Revision B.01,
 M. J. Frisch, G. W. Trucks, H. B. Schlegel, G. E. Scuseria, 
 M. A. Robb, J. R. Cheeseman, G. Scalmani, V. Barone, 
 G. A. Petersson, H. Nakatsuji, X. Li, M. Caricato, A. V. Marenich, 
 J. Bloino, B. G. Janesko, R. Gomperts, B. Mennucci, H. P. Hratchian, 
 J. V. Ortiz, A. F. Izmaylov, J. L. Sonnenberg, D. Williams-Young, 
 F. Ding, F. Lipparini, F. Egidi, J. Goings, B. Peng, A. Petrone, 
 T. Henderson, D. Ranasinghe, V. G. Zakrzewski, J. Gao, N. Rega, 
 G. Zheng, W. Liang, M. Hada, M. Ehara, K. Toyota, R. Fukuda, 
 J. Hasegawa, M. Ishida, T. Nakajima, Y. Honda, O. Kitao, H. Nakai, 
 T. Vreven, K. Throssell, J. A. Montgomery, Jr., J. E. Peralta, 
 F. Ogliaro, M. J. Bearpark, J. J. Heyd, E. N. Brothers, K. N. Kudin, 
 V. N. Staroverov, T. A. Keith, R. Kobayashi, J. Normand, 
 K. Raghavachari, A. P. Rendell, J. C. Burant, S. S. Iyengar, 
 J. Tomasi, M. Cossi, J. M. Millam, M. Klene, C. Adamo, R. Cammi, 
 J. W. Ochterski, R. L. Martin, K. Morokuma, O. Farkas, 
 J. B. Foresman, and D. J. Fox, Gaussian, Inc., Wallingford CT, 2016.
 
 ******************************************
 Gaussian 16:  ES64L-G16RevB.01 20-Dec-2017
                13-Oct-2024 
 ******************************************
 %NProcShared=26
 Will use up to   26 processors via shared memory.
 %MEM=20GB
 %chk=CHKfiles/0105.chk
 ---------------------------------------------------------------------
 #p b3lyp 6-31++g(d,p) scf=verytight NoSymm freq=noraman int=ultrafine
 ---------------------------------------------------------------------
 1/10=4,30=1,38=1/1,3;
 2/12=2,15=1,17=6,18=5,40=1/2;
 3/5=1,6=6,7=1111,11=2,25=1,30=1,71=2,74=-5,75=-5,140=1/1,2,3;
 4//1;
 5/5=2,17=3,38=5,98=1/2;
 8/6=4,10=90,11=11/1;
 11/6=1,8=1,9=11,15=111,16=1,31=1/1,2,10;
 10/6=1,31=1/2;
 6/7=2,8=2,9=2,10=2,28=1/1;
 7/8=1,10=1,25=1,30=1/1,2,3,16;
 1/10=4,30=1/3;
 99//99;
 Leave Link    1 at Sun Oct 13 09:50:51 2024, MaxMem=  2684354560 cpu:               1.5 elap:               0.1
 (Enter /usr/local/g16_AVX//g16/l101.exe)
 ------------------------
 RxCoord=0.39989 DE=54.88
 ------------------------
 Symbolic Z-matrix:
 Charge = -1 Multiplicity = 1
 C                    -0.04349   0.00001  -0.00014 
 Cl                   -2.19331  0.         0.00006 
 H                     0.09678   0.0025   -1.06794 
 H                     0.097     0.92354   0.53585 
 H                     0.09699  -0.92602   0.53153 
 C                     2.32453   0.00001  -0.00023 
 N                     3.50151  -0.00001   0.00022 
 
 ITRead=  0  0  0  0  0  0  0
 MicOpt= -1 -1 -1 -1 -1 -1 -1
 NAtoms=      7 NQM=        7 NQMF=       0 NMMI=      0 NMMIF=      0
                NMic=       0 NMicF=      0.
                    Isotopes and Nuclear Properties:
 (Nuclear quadrupole moments (NQMom) in fm**2, nuclear magnetic moments (NMagM)
  in nuclear magnetons)

  Atom         1           2           3           4           5           6           7
 IAtWgt=          12          35           1           1           1          12          14
 AtmWgt=  12.0000000  34.9688527   1.0078250   1.0078250   1.0078250  12.0000000  14.0030740
 NucSpn=           0           3           1           1           1           0           2
 AtZEff=  -0.0000000  -0.0000000  -0.0000000  -0.0000000  -0.0000000  -0.0000000  -0.0000000
 NQMom=    0.0000000  -8.1650000   0.0000000   0.0000000   0.0000000   0.0000000   2.0440000
 NMagM=    0.0000000   0.8218740   2.7928460   2.7928460   2.7928460   0.0000000   0.4037610
 AtZNuc=   6.0000000  17.0000000   1.0000000   1.0000000   1.0000000   6.0000000   7.0000000
 Leave Link  101 at Sun Oct 13 09:50:52 2024, MaxMem=  2684354560 cpu:               2.8 elap:               0.2
 (Enter /usr/local/g16_AVX//g16/l103.exe)

 GradGradGradGradGradGradGradGradGradGradGradGradGradGradGradGradGradGrad
 Berny optimization.
 Initialization pass.
 Trust Radius=3.00D-01 FncErr=1.00D-07 GrdErr=1.00D-07 EigMax=2.50D+02 EigMin=1.00D-04
 Number of steps in this run=      2 maximum allowed number of steps=      2.
 GradGradGradGradGradGradGradGradGradGradGradGradGradGradGradGradGradGrad

 Leave Link  103 at Sun Oct 13 09:50:52 2024, MaxMem=  2684354560 cpu:               0.5 elap:               0.1
 (Enter /usr/local/g16_AVX//g16/l202.exe)
                          Input orientation:                          
 ---------------------------------------------------------------------
 Center     Atomic      Atomic             Coordinates (Angstroms)
 Number     Number       Type             X           Y           Z
 ---------------------------------------------------------------------
      1          6           0       -0.043486    0.000006   -0.000140
      2         17           0       -2.193309   -0.000002    0.000055
      3          1           0        0.096776    0.002496   -1.067945
      4          1           0        0.096997    0.923542    0.535849
      5          1           0        0.096992   -0.926021    0.531533
      6          6           0        2.324529    0.000006   -0.000232
      7          7           0        3.501514   -0.000008    0.000223
 ---------------------------------------------------------------------
                    Distance matrix (angstroms):
                    1          2          3          4          5
     1  C    0.000000
     2  Cl   2.149823   0.000000
     3  H    1.076981   2.526879   0.000000
     4  H    1.077004   2.526957   1.849454   0.000000
     5  H    1.077003   2.526947   1.849452   1.849568   0.000000
     6  C    2.368015   4.517838   2.470405   2.470263   2.470267
     7  N    3.545000   5.694823   3.568365   3.567993   3.567991
                    6          7
     6  C    0.000000
     7  N    1.176985   0.000000
 Symmetry turned off by external request.
 This structure is nearly, but not quite of a higher symmetry.
 Consider Symm=Loose if the higher symmetry is desired.
 Stoichiometry    C2H3ClN(1-)
 Framework group  C1[X(C2H3ClN)]
 Deg. of freedom    15
 Full point group                 C1      NOp   1
 Rotational constants (GHZ):         146.5976966           1.2431736           1.2431727
 Leave Link  202 at Sun Oct 13 09:50:52 2024, MaxMem=  2684354560 cpu:               0.2 elap:               0.0
 (Enter /usr/local/g16_AVX//g16/l301.exe)
 Standard basis: 6-31++G(d,p) (6D, 7F)
 Ernie: Thresh=  0.10000D-02 Tol=  0.10000D-05 Strict=F.
    98 basis functions,   176 primitive gaussians,    98 cartesian basis functions
    20 alpha electrons       20 beta electrons
       nuclear repulsion energy       108.6631546918 Hartrees.
 IExCor=  402 DFT=T Ex+Corr=B3LYP ExCW=0 ScaHFX=  0.200000
 ScaDFX=  0.800000  0.720000  1.000000  0.810000 ScalE2=  1.000000  1.000000
 IRadAn=      5 IRanWt=     -1 IRanGd=            0 ICorTp=0 IEmpDi=  4
 NAtoms=    7 NActive=    7 NUniq=    7 SFac= 1.00D+00 NAtFMM=   60 NAOKFM=F Big=F
 Integral buffers will be    131072 words long.
 Raffenetti 2 integral format.
 Two-electron integral symmetry is turned off.
 Leave Link  301 at Sun Oct 13 09:50:52 2024, MaxMem=  2684354560 cpu:               1.3 elap:               0.1
 (Enter /usr/local/g16_AVX//g16/l302.exe)
 NPDir=0 NMtPBC=     1 NCelOv=     1 NCel=       1 NClECP=     1 NCelD=      1
         NCelK=      1 NCelE2=     1 NClLst=     1 CellRange=     0.0.
 One-electron integrals computed using PRISM.
 NBasis=    98 RedAO= T EigKep=  1.19D-04  NBF=    98
 NBsUse=    98 1.00D-06 EigRej= -1.00D+00 NBFU=    98
 Precomputing XC quadrature grid using
 IXCGrd= 4 IRadAn=           5 IRanWt=          -1 IRanGd=           0 AccXCQ= 0.00D+00.
 Generated NRdTot=       0 NPtTot=           0 NUsed=           0 NTot=          32
 NSgBfM=    98    98    98    98    98 MxSgAt=     7 MxSgA2=     7.
 Leave Link  302 at Sun Oct 13 09:50:52 2024, MaxMem=  2684354560 cpu:               3.9 elap:               0.2
 (Enter /usr/local/g16_AVX//g16/l303.exe)
 DipDrv:  MaxL=1.
 Leave Link  303 at Sun Oct 13 09:50:52 2024, MaxMem=  2684354560 cpu:               0.7 elap:               0.1
 (Enter /usr/local/g16_AVX//g16/l401.exe)
 ExpMin= 3.60D-02 ExpMax= 2.52D+04 ExpMxC= 3.78D+03 IAcc=3 IRadAn=         5 AccDes= 0.00D+00
 Harris functional with IExCor=  402 and IRadAn=       5 diagonalized for initial guess.
 HarFok:  IExCor=  402 AccDes= 0.00D+00 IRadAn=         5 IDoV= 1 UseB2=F ITyADJ=14
 ICtDFT=  3500011 ScaDFX=  1.000000  1.000000  1.000000  1.000000
 FoFCou: FMM=F IPFlag=           0 FMFlag=      100000 FMFlg1=           0
         NFxFlg=           0 DoJE=T BraDBF=F KetDBF=T FulRan=T
         wScrn=  0.000000 ICntrl=       500 IOpCl=  0 I1Cent=   200000004 NGrid=           0
         NMat0=    1 NMatS0=      1 NMatT0=    0 NMatD0=    1 NMtDS0=    0 NMtDT0=    0
 Symmetry not used in FoFCou.
 Harris En= -593.046342731895    
 JPrj=0 DoOrth=F DoCkMO=F.
 Leave Link  401 at Sun Oct 13 09:50:53 2024, MaxMem=  2684354560 cpu:               5.8 elap:               0.3
 (Enter /usr/local/g16_AVX//g16/l502.exe)
 Keep R1 ints in memory in canonical form, NReq=35752921.
 FoFCou: FMM=F IPFlag=           0 FMFlag=           0 FMFlg1=           0
         NFxFlg=           0 DoJE=F BraDBF=F KetDBF=F FulRan=T
         wScrn=  0.000000 ICntrl=       600 IOpCl=  0 I1Cent=           0 NGrid=           0
         NMat0=    1 NMatS0=   4851 NMatT0=    0 NMatD0=    1 NMtDS0=    0 NMtDT0=    0
 Symmetry not used in FoFCou.
 Two-electron integral symmetry not used.
 Closed shell SCF:
 Using DIIS extrapolation, IDIIS=  1040.
 NGot=  2684354560 LenX=  2672563419 LenY=  2672553374
 Requested convergence on RMS density matrix=1.00D-08 within 128 cycles.
 Requested convergence on MAX density matrix=1.00D-06.
 Requested convergence on             energy=1.00D-06.
 No special actions if energy rises.

 Cycle   1  Pass 1  IDiag  1:
 E= -592.848238998841    
 DIIS: error= 3.28D-02 at cycle   1 NSaved=   1.
 NSaved= 1 IEnMin= 1 EnMin= -592.848238998841     IErMin= 1 ErrMin= 3.28D-02
 ErrMax= 3.28D-02  0.00D+00 EMaxC= 1.00D-01 BMatC= 1.17D-01 BMatP= 1.17D-01
 IDIUse=3 WtCom= 6.72D-01 WtEn= 3.28D-01
 Coeff-Com:  0.100D+01
 Coeff-En:   0.100D+01
 Coeff:      0.100D+01
 Gap=     0.368 Goal=   None    Shift=    0.000
 GapD=    0.368 DampG=1.000 DampE=0.500 DampFc=0.5000 IDamp=-1.
 Damping current iteration by 5.00D-01
 RMSDP=3.22D-02 MaxDP=9.24D-01              OVMax= 3.18D-01

 Cycle   2  Pass 1  IDiag  1:
 E= -592.887442299730     Delta-E=       -0.039203300889 Rises=F Damp=T
 DIIS: error= 1.16D-02 at cycle   2 NSaved=   2.
 NSaved= 2 IEnMin= 2 EnMin= -592.887442299730     IErMin= 2 ErrMin= 1.16D-02
 ErrMax= 1.16D-02  0.00D+00 EMaxC= 1.00D-01 BMatC= 1.53D-02 BMatP= 1.17D-01
 IDIUse=3 WtCom= 8.84D-01 WtEn= 1.16D-01
 Coeff-Com:  0.192D+00 0.808D+00
 Coeff-En:   0.337D+00 0.663D+00
 Coeff:      0.209D+00 0.791D+00
 Gap=     0.230 Goal=   None    Shift=    0.000
 RMSDP=1.41D-02 MaxDP=4.80D-01 DE=-3.92D-02 OVMax= 2.24D-01

 Cycle   3  Pass 1  IDiag  1:
 E= -592.974673305964     Delta-E=       -0.087231006233 Rises=F Damp=F
 DIIS: error= 1.63D-02 at cycle   3 NSaved=   3.
 NSaved= 3 IEnMin= 3 EnMin= -592.974673305964     IErMin= 2 ErrMin= 1.16D-02
 ErrMax= 1.63D-02  0.00D+00 EMaxC= 1.00D-01 BMatC= 1.32D-02 BMatP= 1.53D-02
 IDIUse=3 WtCom= 8.37D-01 WtEn= 1.63D-01
 Coeff-Com:  0.632D-01 0.479D+00 0.457D+00
 Coeff-En:   0.000D+00 0.000D+00 0.100D+01
 Coeff:      0.529D-01 0.401D+00 0.546D+00
 Gap=     0.216 Goal=   None    Shift=    0.000
 RMSDP=2.05D-03 MaxDP=3.57D-02 DE=-8.72D-02 OVMax= 6.23D-02

 Cycle   4  Pass 1  IDiag  1:
 E= -592.979215061176     Delta-E=       -0.004541755212 Rises=F Damp=F
 DIIS: error= 1.38D-02 at cycle   4 NSaved=   4.
 NSaved= 4 IEnMin= 4 EnMin= -592.979215061176     IErMin= 2 ErrMin= 1.16D-02
 ErrMax= 1.38D-02  0.00D+00 EMaxC= 1.00D-01 BMatC= 8.50D-03 BMatP= 1.32D-02
 IDIUse=3 WtCom= 8.62D-01 WtEn= 1.38D-01
 Coeff-Com: -0.333D-02 0.916D-01 0.434D+00 0.478D+00
 Coeff-En:   0.000D+00 0.000D+00 0.416D+00 0.584D+00
 Coeff:     -0.287D-02 0.790D-01 0.431D+00 0.493D+00
 Gap=     0.207 Goal=   None    Shift=    0.000
 RMSDP=1.13D-03 MaxDP=1.98D-02 DE=-4.54D-03 OVMax= 3.22D-02

 Cycle   5  Pass 1  IDiag  1:
 E= -592.986591602470     Delta-E=       -0.007376541294 Rises=F Damp=F
 DIIS: error= 2.16D-03 at cycle   5 NSaved=   5.
 NSaved= 5 IEnMin= 5 EnMin= -592.986591602470     IErMin= 5 ErrMin= 2.16D-03
 ErrMax= 2.16D-03  0.00D+00 EMaxC= 1.00D-01 BMatC= 4.58D-04 BMatP= 8.50D-03
 IDIUse=3 WtCom= 9.78D-01 WtEn= 2.16D-02
 Coeff-Com: -0.539D-02 0.169D-01 0.216D+00 0.300D+00 0.472D+00
 Coeff-En:   0.000D+00 0.000D+00 0.000D+00 0.154D-01 0.985D+00
 Coeff:     -0.527D-02 0.165D-01 0.212D+00 0.294D+00 0.483D+00
 Gap=     0.209 Goal=   None    Shift=    0.000
 RMSDP=4.34D-04 MaxDP=6.91D-03 DE=-7.38D-03 OVMax= 1.29D-02

 Cycle   6  Pass 1  IDiag  1:
 E= -592.987130701299     Delta-E=       -0.000539098829 Rises=F Damp=F
 DIIS: error= 3.33D-04 at cycle   6 NSaved=   6.
 NSaved= 6 IEnMin= 6 EnMin= -592.987130701299     IErMin= 6 ErrMin= 3.33D-04
 ErrMax= 3.33D-04  0.00D+00 EMaxC= 1.00D-01 BMatC= 1.08D-05 BMatP= 4.58D-04
 IDIUse=3 WtCom= 9.97D-01 WtEn= 3.33D-03
 Coeff-Com: -0.179D-02-0.750D-03 0.634D-01 0.929D-01 0.211D+00 0.635D+00
 Coeff-En:   0.000D+00 0.000D+00 0.000D+00 0.000D+00 0.000D+00 0.100D+01
 Coeff:     -0.178D-02-0.747D-03 0.632D-01 0.926D-01 0.211D+00 0.636D+00
 Gap=     0.208 Goal=   None    Shift=    0.000
 RMSDP=6.20D-05 MaxDP=1.24D-03 DE=-5.39D-04 OVMax= 1.38D-03

 Cycle   7  Pass 1  IDiag  1:
 E= -592.987141407876     Delta-E=       -0.000010706577 Rises=F Damp=F
 DIIS: error= 8.10D-05 at cycle   7 NSaved=   7.
 NSaved= 7 IEnMin= 7 EnMin= -592.987141407876     IErMin= 7 ErrMin= 8.10D-05
 ErrMax= 8.10D-05  0.00D+00 EMaxC= 1.00D-01 BMatC= 8.33D-07 BMatP= 1.08D-05
 IDIUse=1 WtCom= 1.00D+00 WtEn= 0.00D+00
 Coeff-Com: -0.191D-03-0.799D-03 0.704D-02 0.104D-01 0.450D-01 0.280D+00
 Coeff-Com:  0.658D+00
 Coeff:     -0.191D-03-0.799D-03 0.704D-02 0.104D-01 0.450D-01 0.280D+00
 Coeff:      0.658D+00
 Gap=     0.209 Goal=   None    Shift=    0.000
 RMSDP=1.90D-05 MaxDP=4.86D-04 DE=-1.07D-05 OVMax= 5.28D-04

 Cycle   8  Pass 1  IDiag  1:
 E= -592.987142387919     Delta-E=       -0.000000980043 Rises=F Damp=F
 DIIS: error= 2.54D-05 at cycle   8 NSaved=   8.
 NSaved= 8 IEnMin= 8 EnMin= -592.987142387919     IErMin= 8 ErrMin= 2.54D-05
 ErrMax= 2.54D-05  0.00D+00 EMaxC= 1.00D-01 BMatC= 7.87D-08 BMatP= 8.33D-07
 IDIUse=1 WtCom= 1.00D+00 WtEn= 0.00D+00
 Coeff-Com:  0.144D-03-0.631D-03-0.270D-02-0.348D-02 0.238D-02 0.674D-01
 Coeff-Com:  0.301D+00 0.636D+00
 Coeff:      0.144D-03-0.631D-03-0.270D-02-0.348D-02 0.238D-02 0.674D-01
 Coeff:      0.301D+00 0.636D+00
 Gap=     0.209 Goal=   None    Shift=    0.000
 RMSDP=3.68D-06 MaxDP=8.71D-05 DE=-9.80D-07 OVMax= 7.93D-05

 Cycle   9  Pass 1  IDiag  1:
 E= -592.987142476891     Delta-E=       -0.000000088972 Rises=F Damp=F
 DIIS: error= 3.91D-06 at cycle   9 NSaved=   9.
 NSaved= 9 IEnMin= 9 EnMin= -592.987142476891     IErMin= 9 ErrMin= 3.91D-06
 ErrMax= 3.91D-06  0.00D+00 EMaxC= 1.00D-01 BMatC= 8.03D-10 BMatP= 7.87D-08
 IDIUse=1 WtCom= 1.00D+00 WtEn= 0.00D+00
 Coeff-Com:  0.565D-04-0.122D-03-0.898D-03-0.108D-02-0.127D-02 0.106D-02
 Coeff-Com:  0.385D-01 0.128D+00 0.836D+00
 Coeff:      0.565D-04-0.122D-03-0.898D-03-0.108D-02-0.127D-02 0.106D-02
 Coeff:      0.385D-01 0.128D+00 0.836D+00
 Gap=     0.209 Goal=   None    Shift=    0.000
 RMSDP=1.43D-06 MaxDP=3.41D-05 DE=-8.90D-08 OVMax= 9.13D-06

 Cycle  10  Pass 1  IDiag  1:
 E= -592.987142477878     Delta-E=       -0.000000000987 Rises=F Damp=F
 DIIS: error= 3.16D-07 at cycle  10 NSaved=  10.
 NSaved=10 IEnMin=10 EnMin= -592.987142477878     IErMin=10 ErrMin= 3.16D-07
 ErrMax= 3.16D-07  0.00D+00 EMaxC= 1.00D-01 BMatC= 9.63D-12 BMatP= 8.03D-10
 IDIUse=1 WtCom= 1.00D+00 WtEn= 0.00D+00
 Coeff-Com:  0.553D-05-0.318D-05-0.588D-04-0.698D-04-0.188D-03-0.105D-02
 Coeff-Com: -0.220D-02 0.567D-02 0.102D+00 0.896D+00
 Coeff:      0.553D-05-0.318D-05-0.588D-04-0.698D-04-0.188D-03-0.105D-02
 Coeff:     -0.220D-02 0.567D-02 0.102D+00 0.896D+00
 Gap=     0.209 Goal=   None    Shift=    0.000
 RMSDP=7.09D-08 MaxDP=1.70D-06 DE=-9.87D-10 OVMax= 1.67D-06

 Cycle  11  Pass 1  IDiag  1:
 E= -592.987142477892     Delta-E=       -0.000000000014 Rises=F Damp=F
 DIIS: error= 5.62D-08 at cycle  11 NSaved=  11.
 NSaved=11 IEnMin=11 EnMin= -592.987142477892     IErMin=11 ErrMin= 5.62D-08
 ErrMax= 5.62D-08  0.00D+00 EMaxC= 1.00D-01 BMatC= 3.22D-13 BMatP= 9.63D-12
 IDIUse=1 WtCom= 1.00D+00 WtEn= 0.00D+00
 Coeff-Com: -0.523D-06 0.162D-05 0.373D-05 0.460D-05-0.141D-04-0.977D-04
 Coeff-Com: -0.868D-03-0.737D-03 0.889D-03 0.122D+00 0.879D+00
 Coeff:     -0.523D-06 0.162D-05 0.373D-05 0.460D-05-0.141D-04-0.977D-04
 Coeff:     -0.868D-03-0.737D-03 0.889D-03 0.122D+00 0.879D+00
 Gap=     0.209 Goal=   None    Shift=    0.000
 RMSDP=1.35D-08 MaxDP=2.93D-07 DE=-1.42D-11 OVMax= 2.34D-07

 Cycle  12  Pass 1  IDiag  1:
 E= -592.987142477893     Delta-E=       -0.000000000001 Rises=F Damp=F
 DIIS: error= 7.67D-09 at cycle  12 NSaved=  12.
 NSaved=12 IEnMin=12 EnMin= -592.987142477893     IErMin=12 ErrMin= 7.67D-09
 ErrMax= 7.67D-09  0.00D+00 EMaxC= 1.00D-01 BMatC= 6.25D-15 BMatP= 3.22D-13
 IDIUse=1 WtCom= 1.00D+00 WtEn= 0.00D+00
 Coeff-Com: -0.259D-06 0.451D-06 0.114D-05 0.138D-05-0.363D-06 0.242D-05
 Coeff-Com: -0.805D-04-0.229D-03-0.168D-02 0.378D-02 0.155D+00 0.843D+00
 Coeff:     -0.259D-06 0.451D-06 0.114D-05 0.138D-05-0.363D-06 0.242D-05
 Coeff:     -0.805D-04-0.229D-03-0.168D-02 0.378D-02 0.155D+00 0.843D+00
 Gap=     0.209 Goal=   None    Shift=    0.000
 RMSDP=2.63D-09 MaxDP=4.78D-08 DE=-7.96D-13 OVMax= 4.01D-08

 SCF Done:  E(RB3LYP) =  -592.987142478     A.U. after   12 cycles
            NFock= 12  Conv=0.26D-08     -V/T= 2.0047
 KE= 5.902257706679D+02 PE=-1.627442782330D+03 EE= 3.355667144928D+02
 Leave Link  502 at Sun Oct 13 09:50:54 2024, MaxMem=  2684354560 cpu:              35.5 elap:               1.6
 (Enter /usr/local/g16_AVX//g16/l801.exe)
 DoSCS=F DFT=T ScalE2(SS,OS)=  1.000000  1.000000
 Range of M.O.s used for correlation:     1    98
 NBasis=    98 NAE=    20 NBE=    20 NFC=     0 NFV=     0
 NROrb=     98 NOA=    20 NOB=    20 NVA=    78 NVB=    78

 **** Warning!!: The largest alpha MO coefficient is  0.29405860D+02

 Leave Link  801 at Sun Oct 13 09:50:54 2024, MaxMem=  2684354560 cpu:               0.8 elap:               0.1
 (Enter /usr/local/g16_AVX//g16/l1101.exe)
 Using compressed storage, NAtomX=     7.
 Will process      8 centers per pass.
 Leave Link 1101 at Sun Oct 13 09:50:54 2024, MaxMem=  2684354560 cpu:               3.5 elap:               0.2
 (Enter /usr/local/g16_AVX//g16/l1102.exe)
 Symmetrizing basis deriv contribution to polar:
 IMax=3 JMax=2 DiffMx= 0.00D+00
 Leave Link 1102 at Sun Oct 13 09:50:55 2024, MaxMem=  2684354560 cpu:               0.7 elap:               0.1
 (Enter /usr/local/g16_AVX//g16/l1110.exe)
 Forming Gx(P) for the SCF density, NAtomX=     7.
 Integral derivatives from FoFJK, PRISM(SPDF).
 Do as many integral derivatives as possible in FoFJK.
 G2DrvN: MDV=    2684353878.
 G2DrvN: will do     8 centers at a time, making    1 passes.
 Calling FoFCou, ICntrl=  3107 FMM=F I1Cent=   0 AccDes= 0.00D+00.
 FoFJK:  IHMeth= 1 ICntrl=    3107 DoSepK=F KAlg= 0 I1Cent=           0 FoldK=F
 IRaf=         0 NMat=       1 IRICut=       1 DoRegI=T DoRafI=F ISym2E= 0 IDoP0=0 IntGTp=1.
 FoFCou: FMM=F IPFlag=           0 FMFlag=      100000 FMFlg1=           0
         NFxFlg=           0 DoJE=F BraDBF=F KetDBF=F FulRan=T
         wScrn=  0.000000 ICntrl=      3107 IOpCl=  0 I1Cent=           0 NGrid=           0
         NMat0=    1 NMatS0=      1 NMatT0=    0 NMatD0=    1 NMtDS0=    0 NMtDT0=    0
 Symmetry not used in FoFCou.
 End of G2Drv F.D. properties file   721 does not exist.
 End of G2Drv F.D. properties file   722 does not exist.
 End of G2Drv F.D. properties file   788 does not exist.
 Leave Link 1110 at Sun Oct 13 09:50:56 2024, MaxMem=  2684354560 cpu:              38.9 elap:               1.5
 (Enter /usr/local/g16_AVX//g16/l1002.exe)
 Minotr:  Closed shell wavefunction.
          IDoAtm=1111111
          Direct CPHF calculation.
          Differentiating once with respect to electric field.
                with respect to dipole field.
          Differentiating once with respect to nuclear coordinates.
          Requested convergence is 1.0D-08 RMS, and 1.0D-07 maximum.
          Secondary convergence is 1.0D-12 RMS, and 1.0D-12 maximum.
          NewPWx=T KeepS1=F KeepF1=F KeepIn=T MapXYZ=F SortEE=F KeepMc=T.
         2136 words used for storage of precomputed grid.
 Keep R1 ints in memory in canonical form, NReq=35668383.
 FoFCou: FMM=F IPFlag=           0 FMFlag=           0 FMFlg1=           0
         NFxFlg=           0 DoJE=F BraDBF=F KetDBF=F FulRan=T
         wScrn=  0.000000 ICntrl=       600 IOpCl=  0 I1Cent=           0 NGrid=           0
         NMat0=    1 NMatS0=   4851 NMatT0=    0 NMatD0=    1 NMtDS0=    0 NMtDT0=    0
 Symmetry not used in FoFCou.
 Two-electron integral symmetry not used.
          MDV=    2684354560 using IRadAn=       1.
          Solving linear equations simultaneously, MaxMat=       0.
          There are    24 degrees of freedom in the 1st order CPHF.  IDoFFX=6 NUNeed=     3.
     21 vectors produced by pass  0 Test12= 6.50D-15 4.17D-09 XBig12= 1.46D+02 7.94D+00.
 AX will form    21 AO Fock derivatives at one time.
     21 vectors produced by pass  1 Test12= 6.50D-15 4.17D-09 XBig12= 4.51D+01 1.99D+00.
     21 vectors produced by pass  2 Test12= 6.50D-15 4.17D-09 XBig12= 7.60D-01 2.83D-01.
     21 vectors produced by pass  3 Test12= 6.50D-15 4.17D-09 XBig12= 2.84D-03 1.29D-02.
     21 vectors produced by pass  4 Test12= 6.50D-15 4.17D-09 XBig12= 1.02D-05 7.18D-04.
     17 vectors produced by pass  5 Test12= 6.50D-15 4.17D-09 XBig12= 1.54D-08 2.97D-05.
      6 vectors produced by pass  6 Test12= 6.50D-15 4.17D-09 XBig12= 1.84D-11 9.20D-07.
      1 vectors produced by pass  7 Test12= 6.50D-15 4.17D-09 XBig12= 1.83D-14 3.02D-08.
 InvSVY:  IOpt=1 It=  1 EMax= 3.28D-15
 Solved reduced A of dimension   129 with    24 vectors.
 FullF1:  Do perturbations      1 to       3.
 Isotropic polarizability for W=    0.000000       66.63 Bohr**3.
 End of Minotr F.D. properties file   721 does not exist.
 End of Minotr F.D. properties file   722 does not exist.
 End of Minotr F.D. properties file   788 does not exist.
 Leave Link 1002 at Sun Oct 13 09:50:58 2024, MaxMem=  2684354560 cpu:              53.7 elap:               2.1
 (Enter /usr/local/g16_AVX//g16/l601.exe)
 Copying SCF densities to generalized density rwf, IOpCl= 0 IROHF=0.

 **********************************************************************

            Population analysis using the SCF Density.

 **********************************************************************

 Alpha  occ. eigenvalues -- -101.35296 -14.12819 -10.11108  -9.99814  -9.26781
 Alpha  occ. eigenvalues --   -7.02909  -7.02355  -7.02355  -0.68280  -0.63431
 Alpha  occ. eigenvalues --   -0.54242  -0.30617  -0.30615  -0.23275  -0.18778
 Alpha  occ. eigenvalues --   -0.13741  -0.13741  -0.12907  -0.12907  -0.09681
 Alpha virt. eigenvalues --    0.11189   0.12512   0.14875   0.14875   0.15981
 Alpha virt. eigenvalues --    0.19102   0.20313   0.20314   0.22341   0.22341
 Alpha virt. eigenvalues --    0.24688   0.24688   0.25083   0.25793   0.25793
 Alpha virt. eigenvalues --    0.25851   0.30956   0.34231   0.34231   0.37311
 Alpha virt. eigenvalues --    0.37311   0.37336   0.38191   0.45641   0.46949
 Alpha virt. eigenvalues --    0.73676   0.76990   0.76991   0.77214   0.80197
 Alpha virt. eigenvalues --    0.80198   0.87101   0.87101   0.89007   0.97635
 Alpha virt. eigenvalues --    0.99638   1.04404   1.04405   1.08320   1.08320
 Alpha virt. eigenvalues --    1.09915   1.09916   1.12945   1.17008   1.17008
 Alpha virt. eigenvalues --    1.24315   1.32074   1.39403   1.51369   1.60233
 Alpha virt. eigenvalues --    1.60235   1.74724   1.74724   1.76857   1.76857
 Alpha virt. eigenvalues --    1.83016   2.12862   2.14434   2.14442   2.17009
 Alpha virt. eigenvalues --    2.17009   2.17432   2.55991   2.63084   2.63089
 Alpha virt. eigenvalues --    2.80155   2.80156   2.83048   2.91289   2.91300
 Alpha virt. eigenvalues --    3.24919   3.45432   3.57958   3.57968   4.19575
 Alpha virt. eigenvalues --    4.45899   4.49433   4.58416
          Condensed to atoms (all electrons):
               1          2          3          4          5          6
     1  C    5.398299  -0.165151   0.430860   0.430864   0.430864  -0.153052
     2  Cl  -0.165151  17.709302  -0.049243  -0.049239  -0.049239   0.098035
     3  H    0.430860  -0.049243   0.496356  -0.020111  -0.020111  -0.048275
     4  H    0.430864  -0.049239  -0.020111   0.496341  -0.020097  -0.048270
     5  H    0.430864  -0.049239  -0.020111  -0.020097   0.496341  -0.048270
     6  C   -0.153052   0.098035  -0.048275  -0.048270  -0.048270   5.721374
     7  N   -0.025084  -0.002191  -0.001895  -0.001898  -0.001899   0.713293
               7
     1  C   -0.025084
     2  Cl  -0.002191
     3  H   -0.001895
     4  H   -0.001898
     5  H   -0.001899
     6  C    0.713293
     7  N    6.882205
 Mulliken charges:
               1
     1  C   -0.347599
     2  Cl  -0.492276
     3  H    0.212418
     4  H    0.212411
     5  H    0.212411
     6  C   -0.234834
     7  N   -0.562531
 Sum of Mulliken charges =  -1.00000
 Mulliken charges with hydrogens summed into heavy atoms:
               1
     1  C    0.289641
     2  Cl  -0.492276
     6  C   -0.234834
     7  N   -0.562531
 APT charges:
               1
     1  C    1.160688
     2  Cl  -1.011251
     3  H   -0.015229
     4  H   -0.015219
     5  H   -0.015221
     6  C   -0.460117
     7  N   -0.643652
 Sum of APT charges =  -1.00000
 APT charges with hydrogens summed into heavy atoms:
               1
     1  C    1.115019
     2  Cl  -1.011251
     6  C   -0.460117
     7  N   -0.643652
 Electronic spatial extent (au):  <R**2>=            844.4065
 Charge=             -1.0000 electrons
 Dipole moment (field-independent basis, Debye):
    X=             -5.1262    Y=              0.0000    Z=             -0.0004  Tot=              5.1262
 Quadrupole moment (field-independent basis, Debye-Ang):
   XX=            -87.8464   YY=            -35.2638   ZZ=            -35.2643
   XY=              0.0001   XZ=             -0.0008   YZ=              0.0000
 Traceless Quadrupole moment (field-independent basis, Debye-Ang):
   XX=            -35.0549   YY=             17.5277   ZZ=             17.5272
   XY=              0.0001   XZ=             -0.0008   YZ=              0.0000
 Octapole moment (field-independent basis, Debye-Ang**2):
  XXX=           -128.8816  YYY=             -0.0074  ZZZ=             -1.0512  XYY=             -6.9832
  XXY=              0.0003  XXZ=             -0.0076  XZZ=             -6.9835  YZZ=              0.0074
  YYZ=              1.0527  XYZ=              0.0000
 Hexadecapole moment (field-independent basis, Debye-Ang**3):
 XXXX=          -1752.0069 YYYY=            -55.3951 ZZZZ=            -55.3944 XXXY=              0.0013
 XXXZ=             -0.0337 YYYX=             -0.0009 YYYZ=              0.0000 ZZZX=             -0.1456
 ZZZY=             -0.0000 XXYY=           -215.8490 XXZZ=           -215.8490 YYZZ=            -18.4655
 XXYZ=              0.0000 YYXZ=              0.1469 ZZXY=              0.0011
 N-N= 1.086631546918D+02 E-N=-1.627442781591D+03  KE= 5.902257706679D+02
  Exact polarizability: 122.278  -0.000  38.806   0.002   0.000  38.806
 Approx polarizability: 157.805  -0.000  48.670   0.004   0.000  48.669
 No NMR shielding tensors so no spin-rotation constants.
 Leave Link  601 at Sun Oct 13 09:50:58 2024, MaxMem=  2684354560 cpu:               2.6 elap:               0.1
 (Enter /usr/local/g16_AVX//g16/l701.exe)
 ... and contract with generalized density number  0.
 Compute integral second derivatives.
 Leave Link  701 at Sun Oct 13 09:50:59 2024, MaxMem=  2684354560 cpu:               4.6 elap:               0.2
 (Enter /usr/local/g16_AVX//g16/l702.exe)
 L702 exits ... SP integral derivatives will be done elsewhere.
 Leave Link  702 at Sun Oct 13 09:50:59 2024, MaxMem=  2684354560 cpu:               0.5 elap:               0.0
 (Enter /usr/local/g16_AVX//g16/l703.exe)
 Integral derivatives from FoFJK, PRISM(SPDF).
 Compute integral second derivatives, UseDBF=F ICtDFT=           0.
 Calling FoFJK, ICntrl=    100127 FMM=F ISym2X=0 I1Cent= 0 IOpClX= 0 NMat=1 NMatS=1 NMatT=0.
 FoFJK:  IHMeth= 1 ICntrl=  100127 DoSepK=F KAlg= 0 I1Cent=           0 FoldK=F
 IRaf=         0 NMat=       1 IRICut=       1 DoRegI=T DoRafI=F ISym2E= 0 IDoP0=0 IntGTp=1.
 FoFCou: FMM=F IPFlag=           0 FMFlag=      100000 FMFlg1=         800
         NFxFlg=           0 DoJE=F BraDBF=F KetDBF=F FulRan=T
         wScrn=  0.000000 ICntrl=    100127 IOpCl=  0 I1Cent=           0 NGrid=           0
         NMat0=    1 NMatS0=      1 NMatT0=    0 NMatD0=    1 NMtDS0=    0 NMtDT0=    0
 Symmetry not used in FoFCou.
 Leave Link  703 at Sun Oct 13 09:51:01 2024, MaxMem=  2684354560 cpu:              66.5 elap:               2.6
 (Enter /usr/local/g16_AVX//g16/l716.exe)
 Dipole        =-2.01680203D+00 7.12806663D-06-1.66109198D-04
 Polarizability= 1.22277775D+02-2.74485490D-05 3.88062012D+01
                 2.17585636D-03 3.42872115D-07 3.88064606D+01
 Full mass-weighted force constant matrix:
 Low frequencies --- -364.4410  -18.2018  -18.1797   -0.0033    0.0007    0.0036
 Low frequencies ---   54.6620   54.6968  116.4003
 ******    1 imaginary frequencies (negative Signs) ****** 
 Diagonal vibrational polarizability:
      227.1718736      39.1812088      39.1302427
 Harmonic frequencies (cm**-1), IR intensities (KM/Mole), Raman scattering
 activities (A**4/AMU), depolarization ratios for plane and unpolarized
 incident light, reduced masses (AMU), force constants (mDyne/A),
 and normal coordinates:
                      1                      2                      3
                      A                      A                      A
 Frequencies --   -364.4410                53.7603                53.7912
 Red. masses --     11.9572                 8.2154                 8.2162
 Frc consts  --      0.9357                 0.0140                 0.0140
 IR Inten    --   1097.1279                 3.6602                 3.6590
  Atom  AN      X      Y      Z        X      Y      Z        X      Y      Z
     1   6     0.90   0.00  -0.00    -0.00  -0.32  -0.00     0.00   0.00  -0.32
     2  17    -0.14  -0.00   0.00    -0.00   0.12   0.00     0.00  -0.00   0.12
     3   1     0.10   0.00  -0.09    -0.00  -0.35  -0.00    -0.19   0.00  -0.34
     4   1     0.10   0.07   0.04     0.17  -0.35   0.00     0.10   0.00  -0.35
     5   1     0.10  -0.07   0.04    -0.17  -0.35  -0.00     0.10   0.00  -0.35
     6   6    -0.24  -0.00   0.00    -0.00  -0.50  -0.00     0.00   0.00  -0.50
     7   7    -0.24   0.00  -0.00     0.00   0.47   0.00    -0.00  -0.00   0.47
                      4                      5                      6
                      A                      A                      A
 Frequencies --    232.3981               258.3611               258.3771
 Red. masses --     18.2343                 5.0527                 5.0525
 Frc consts  --      0.5802                 0.1987                 0.1987
 IR Inten    --      5.6545                12.4926                12.4931
  Atom  AN      X      Y      Z        X      Y      Z        X      Y      Z
     1   6    -0.13  -0.00   0.00    -0.00   0.45   0.01     0.00  -0.01   0.45
     2  17     0.49   0.00  -0.00    -0.00  -0.09  -0.00    -0.00   0.00  -0.09
     3   1     0.04  -0.00   0.02     0.00   0.46   0.01     0.03  -0.01   0.47
     4   1     0.04  -0.02  -0.01    -0.02   0.47   0.02    -0.01  -0.01   0.46
     5   1     0.04   0.02  -0.01     0.02   0.47   0.01    -0.01  -0.02   0.46
     6   6    -0.60   0.00  -0.00     0.00  -0.37  -0.01     0.00   0.01  -0.37
     7   7    -0.61   0.00  -0.00     0.00   0.06   0.00     0.00  -0.00   0.06
                      7                      8                      9
                      A                      A                      A
 Frequencies --    980.0826               980.1779              1091.0537
 Red. masses --      1.0318                 1.0318                 1.0498
 Frc consts  --      0.5840                 0.5841                 0.7363
 IR Inten    --      0.0220                 0.0221                90.1613
  Atom  AN      X      Y      Z        X      Y      Z        X      Y      Z
     1   6    -0.00  -0.00  -0.04     0.00  -0.04   0.00    -0.04  -0.00   0.00
     2  17    -0.00   0.00   0.01     0.00   0.01  -0.00    -0.02   0.00  -0.00
     3   1     0.81   0.00   0.07    -0.01   0.09  -0.00     0.57  -0.00   0.07
     4   1    -0.42  -0.01   0.09    -0.69   0.07  -0.01     0.57  -0.06  -0.03
     5   1    -0.39   0.01   0.09     0.71   0.07   0.01     0.57   0.06  -0.03
     6   6     0.00  -0.00  -0.02     0.00  -0.02   0.00    -0.01  -0.00   0.00
     7   7    -0.00   0.00   0.00     0.00   0.00  -0.00    -0.02   0.00  -0.00
                     10                     11                     12
                      A                      A                      A
 Frequencies --   1414.1637              1414.2029              2176.3017
 Red. masses --      1.0969                 1.0969                12.7538
 Frc consts  --      1.2925                 1.2925                35.5900
 IR Inten    --      4.4336                 4.4319                 2.6641
  Atom  AN      X      Y      Z        X      Y      Z        X      Y      Z
     1   6    -0.00  -0.00  -0.09     0.00  -0.09   0.00     0.00   0.00   0.00
     2  17    -0.00  -0.00  -0.00     0.00  -0.00   0.00    -0.00  -0.00   0.00
     3   1    -0.12   0.02  -0.09     0.00   0.80   0.00    -0.05   0.00  -0.01
     4   1     0.06  -0.38   0.57     0.10   0.14  -0.40    -0.05   0.00   0.00
     5   1     0.06   0.39   0.58    -0.10   0.12   0.37    -0.05  -0.00   0.00
     6   6    -0.00   0.00   0.00     0.00   0.00  -0.00     0.76  -0.00   0.00
     7   7    -0.00   0.00   0.00     0.00   0.00  -0.00    -0.64   0.00  -0.00
                     13                     14                     15
                      A                      A                      A
 Frequencies --   3183.7665              3372.7769              3372.8895
 Red. masses --      1.0105                 1.1220                 1.1220
 Frc consts  --      6.0351                 7.5203                 7.5207
 IR Inten    --      1.0551                 1.3677                 1.3652
  Atom  AN      X      Y      Z        X      Y      Z        X      Y      Z
     1   6     0.02   0.00   0.00     0.00  -0.10  -0.00    -0.00   0.00  -0.10
     2  17    -0.00  -0.00  -0.00    -0.00   0.00   0.00    -0.00  -0.00   0.00
     3   1    -0.06  -0.00   0.57    -0.00  -0.01   0.02    -0.10  -0.00   0.81
     4   1    -0.06  -0.50  -0.29     0.09   0.61   0.36     0.05   0.34   0.18
     5   1    -0.06   0.50  -0.29    -0.09   0.59  -0.35     0.05  -0.37   0.20
     6   6     0.00  -0.00  -0.00     0.00   0.00   0.00     0.00  -0.00   0.00
     7   7     0.00   0.00   0.00     0.00  -0.00  -0.00     0.00   0.00  -0.00

 -------------------
 - Thermochemistry -
 -------------------
 Temperature   298.150 Kelvin.  Pressure   1.00000 Atm.
 Atom     1 has atomic number  6 and mass  12.00000
 Atom     2 has atomic number 17 and mass  34.96885
 Atom     3 has atomic number  1 and mass   1.00783
 Atom     4 has atomic number  1 and mass   1.00783
 Atom     5 has atomic number  1 and mass   1.00783
 Atom     6 has atomic number  6 and mass  12.00000
 Atom     7 has atomic number  7 and mass  14.00307
 Molecular mass:    75.99540 amu.
 Principal axes and moments of inertia in atomic units:
                           1         2         3
     Eigenvalues --    12.310841451.720971451.72198
           X            1.00000   0.00000  -0.00000
           Y           -0.00000   0.99995  -0.00957
           Z            0.00000   0.00957   0.99995
 This molecule is an asymmetric top.
 Rotational symmetry number  1.
 Rotational temperatures (Kelvin)      7.03558     0.05966     0.05966
 Rotational constants (GHZ):         146.59770     1.24317     1.24317
    1 imaginary frequencies ignored.
 Zero-point vibrational energy     112700.8 (Joules/Mol)
                                   26.93614 (Kcal/Mol)
 Warning -- explicit consideration of   5 degrees of freedom as
           vibrations may cause significant error
 Vibrational temperatures:     77.35    77.39   334.37   371.72   371.75
          (Kelvin)           1410.12  1410.26  1569.78  2034.67  2034.72
                             3131.21  4580.73  4852.67  4852.84
 
 Zero-point correction=                           0.042925 (Hartree/Particle)
 Thermal correction to Energy=                    0.048993
 Thermal correction to Enthalpy=                  0.049937
 Thermal correction to Gibbs Free Energy=         0.012630
 Sum of electronic and zero-point Energies=           -592.944217
 Sum of electronic and thermal Energies=              -592.938149
 Sum of electronic and thermal Enthalpies=            -592.937205
 Sum of electronic and thermal Free Energies=         -592.974512
 
                     E (Thermal)             CV                S
                      KCal/Mol        Cal/Mol-Kelvin    Cal/Mol-Kelvin
 Total                   30.744             16.497             78.520
 Electronic               0.000              0.000              0.000
 Translational            0.889              2.981             38.900
 Rotational               0.889              2.981             24.765
 Vibrational             28.966             10.535             14.855
 Vibration     1          0.596              1.976              4.674
 Vibration     2          0.596              1.976              4.673
 Vibration     3          0.653              1.791              1.860
 Vibration     4          0.667              1.749              1.673
 Vibration     5          0.667              1.749              1.673
                       Q            Log10(Q)             Ln(Q)
 Total Bot       0.155099D-05         -5.809392        -13.376619
 Total V=0       0.860867D+14         13.934936         32.086376
 Vib (Bot)       0.103300D-17        -17.985899        -41.414064
 Vib (Bot)    1  0.384381D+01          0.584762          1.346465
 Vib (Bot)    2  0.384159D+01          0.584511          1.345887
 Vib (Bot)    3  0.846610D+00         -0.072316         -0.166515
 Vib (Bot)    4  0.752387D+00         -0.123559         -0.284504
 Vib (Bot)    5  0.752335D+00         -0.123589         -0.284574
 Vib (V=0)       0.573361D+02          1.758428          4.048931
 Vib (V=0)    1  0.437620D+01          0.641097          1.476180
 Vib (V=0)    2  0.437400D+01          0.640878          1.475677
 Vib (V=0)    3  0.148323D+01          0.171210          0.394225
 Vib (V=0)    4  0.140338D+01          0.147174          0.338880
 Vib (V=0)    5  0.140333D+01          0.147160          0.338849
 Electronic      0.100000D+01          0.000000          0.000000
 Translational   0.260396D+08          7.415635         17.075130
 Rotational      0.576598D+05          4.760873         10.962315
 
                                                       RxCoord=0.39989 DE=54.88
                                                             IR Spectrum
 
      3      3                                     2                           1           1                                         
      3      1                                     1                           4           0    9                          22        
      7      8                                     7                           1           9    8                          53     5  
      3      4                                     6                           4           1    0                          82     4  
 
      X      X                                     X                           X           X                               XX     X  
                                                                               X           X                               X      X  
                                                                                           X                               X         
                                                                                           X                               X         
                                                                                           X                               X         
                                                                                           X                               X         
                                                                                           X                                         
                                                                                           X                                         
                                                                                           X                                         
                                                                                           X                                         
                                                                                           X                                         
                                                                                           X                                         
                                                                                           X                                         
                                                                                           X                                         
                                                                                           X                                         
                                                                                           X                                         
                                                                                           X                                         
                                                                                           X                                         
                                                                                           X                                         
                                                                                           X                                         
 
 -------------------------------------------------------------------
 Center     Atomic                   Forces (Hartrees/Bohr)
 Number     Number              X              Y              Z
 -------------------------------------------------------------------
      1        6          -0.005071019    0.000000169    0.000003986
      2       17           0.001063020    0.000000250    0.000002525
      3        1           0.000251440   -0.000002268    0.001024194
      4        1           0.000244888   -0.000907553   -0.000517213
      5        1           0.000245578    0.000909455   -0.000512503
      6        6           0.001041307   -0.000000074   -0.000000697
      7        7           0.002224785    0.000000021   -0.000000292
 -------------------------------------------------------------------
 Cartesian Forces:  Max     0.005071019 RMS     0.001314619
 Z-matrix is all fixed cartesians, so copy forces.
 Force constants in Cartesian coordinates: 
                1             2             3             4             5 
      1 -0.271481D-01
      2  0.000000D+00  0.676006D+00
      3  0.684256D-04 -0.102945D-05  0.675994D+00
      4  0.342039D-01  0.000000D+00 -0.411396D-05  0.533017D-01
      5  0.000000D+00 -0.221568D-01  0.000000D+00  0.000000D+00  0.118751D-01
      6 -0.708462D-05  0.000000D+00 -0.221548D-01  0.000000D+00  0.000000D+00
      7 -0.157889D-01 -0.103813D-03  0.445320D-01 -0.202574D-01 -0.258405D-04
      8 -0.946501D-04 -0.533368D-01  0.747538D-03  0.952677D-05  0.306559D-03
      9  0.404902D-01  0.747617D-03 -0.373997D+00 -0.408187D-02 -0.993368D-05
     10 -0.158084D-01 -0.385648D-01 -0.223861D-01 -0.202574D-01 -0.953311D-02
     11 -0.350663D-01 -0.293159D+00 -0.139185D+00  0.353106D-02  0.349916D-02
     12 -0.203563D-01 -0.139180D+00 -0.134120D+00  0.205053D-02  0.185318D-02
     13 -0.158079D-01  0.386681D-01 -0.222049D-01 -0.202580D-01  0.955892D-02
     14  0.351602D-01 -0.294456D+00  0.138439D+00 -0.354055D-02  0.351629D-02
     15 -0.201917D-01  0.138433D+00 -0.132826D+00  0.203408D-02 -0.184311D-02
     16  0.195804D-01  0.000000D+00 -0.127170D-05 -0.164277D-01  0.000000D+00
     17  0.000000D+00 -0.164510D-01  0.000000D+00  0.000000D+00  0.356389D-02
     18 -0.158735D-04  0.000000D+00 -0.164499D-01  0.843246D-05  0.000000D+00
     19  0.207689D-01  0.000000D+00 -0.406814D-05 -0.103051D-01  0.000000D+00
     20  0.000000D+00  0.355363D-02  0.000000D+00  0.000000D+00 -0.604198D-03
     21  0.123595D-04  0.000000D+00  0.355403D-02 -0.633257D-05  0.000000D+00
                6             7             8             9            10 
      6  0.118794D-01
      7  0.110240D-01  0.442132D-01
      8 -0.984645D-05  0.970912D-04  0.454715D-01
      9  0.457191D-02 -0.415716D-01 -0.782348D-03  0.381010D+00
     10 -0.553153D-02  0.165533D-02  0.284853D-02  0.247642D-02  0.442359D-01
     11  0.185251D-02 -0.702409D-03  0.427864D-02  0.385155D-02  0.360024D-01
     12  0.138059D-02 -0.371129D-02 -0.234866D-01 -0.717820D-02  0.208943D-01
     13 -0.548717D-02  0.165531D-02 -0.286002D-02  0.246306D-02  0.165372D-02
     14 -0.184250D-02  0.719675D-03  0.418680D-02 -0.379852D-02  0.356795D-02
     15  0.136338D-02 -0.370789D-02  0.235396D-01 -0.708634D-02  0.124972D-02
     16  0.129569D-05 -0.983335D-02  0.000000D+00 -0.372138D-03 -0.983518D-02
     17  0.000000D+00  0.176786D-04 -0.123263D-02 -0.112183D-04  0.657579D-02
     18  0.356376D-02 -0.760067D-02 -0.111813D-04  0.358234D-02  0.381903D-02
     19  0.125614D-05 -0.164426D-02 -0.137480D-05  0.595897D-03 -0.164400D-02
     20  0.000000D+00 -0.238162D-05  0.326008D-03  0.285356D-05 -0.896703D-03
     21 -0.604173D-03  0.103544D-02  0.286013D-05 -0.902767D-03 -0.521804D-03
               11            12            13            14            15 
     11  0.296415D+00
     12  0.145645D+00  0.130005D+00
     13 -0.357374D-02  0.123306D-02  0.442359D-01
     14 -0.128100D-01  0.136135D-01 -0.360988D-01  0.297772D+00
     15 -0.137196D-01  0.991572D-02  0.207252D-01 -0.144863D+00  0.128651D+00
     16  0.323572D-03  0.188462D-03 -0.983507D-02 -0.324396D-03  0.186930D-03
     17  0.236949D-02  0.208872D-02 -0.659362D-02  0.238899D-02 -0.207748D-02
     18  0.208996D-02 -0.191285D-04  0.378837D-02 -0.207874D-02 -0.385822D-04
     19 -0.514548D-03 -0.298722D-03 -0.164398D-02  0.515935D-03 -0.296298D-03
     20 -0.593243D-03 -0.533414D-03  0.899192D-03 -0.598236D-03  0.530552D-03
     21 -0.533694D-03  0.158986D-04 -0.517605D-03  0.530823D-03  0.208648D-04
               16            17            18            19            20 
     16  0.117763D+01
     17 -0.136793D-04  0.122252D-01
     18  0.439126D-03  0.000000D+00  0.122257D-01
     19 -0.115128D+01  0.134876D-04 -0.438411D-03  0.114575D+01
     20  0.136357D-04 -0.286397D-02  0.000000D+00 -0.135498D-04  0.780004D-03
     21 -0.442404D-03  0.000000D+00 -0.286425D-02  0.440347D-03  0.000000D+00
               21 
     21  0.780392D-03
 Leave Link  716 at Sun Oct 13 09:51:01 2024, MaxMem=  2684354560 cpu:               0.9 elap:               0.1
 (Enter /usr/local/g16_AVX//g16/l103.exe)

 GradGradGradGradGradGradGradGradGradGradGradGradGradGradGradGradGradGrad
 Berny optimization.
 Search for a local minimum.
 Step number   1 out of a maximum of    2
 All quantities printed in internal units (Hartrees-Bohrs-Radians)
 Second derivative matrix not updated -- analytic derivatives used.
 ITU=  0
     Eigenvalues ---   -0.06419   0.00111   0.00111   0.01791   0.01791
     Eigenvalues ---    0.03654   0.04302   0.04303   0.07681   0.10714
     Eigenvalues ---    0.10715   0.39715   0.98662   0.98664   2.31214
 Eigenvalue     1 is  -6.42D-02 should be greater than     0.000000 Eigenvector:
                          X1        X2        X7        X6        Z3
   1                    0.89084  -0.26142  -0.24077  -0.23759  -0.08012
                          Y5        Y4        Z4        Z5        X4
   1                   -0.06950   0.06932   0.04023   0.03990   0.03826
 Angle between quadratic step and forces=  10.76 degrees.
 Linear search not attempted -- first point.
 B after Tr=     0.001129    0.000008   -0.000106
         Rot=    1.000000    0.000000    0.000003    0.000000 Ang=   0.00 deg.
 Variable       Old X    -DE/DX   Delta X   Delta X   Delta X     New X
                                 (Linear)    (Quad)   (Total)
    X1       -0.08218  -0.00507   0.00000  -0.08156  -0.08043  -0.16261
    Y1        0.00001   0.00000   0.00000  -0.00002  -0.00001   0.00000
    Z1       -0.00026   0.00000   0.00000   0.00020   0.00009  -0.00018
    X2       -4.14475   0.00106   0.00000   0.01672   0.01785  -4.12690
    Y2       -0.00000   0.00000   0.00000   0.00002   0.00003   0.00002
    Z2        0.00010   0.00000   0.00000  -0.00023  -0.00036  -0.00026
    X3        0.18288   0.00025   0.00000   0.00339   0.00453   0.18741
    Y3        0.00472  -0.00000   0.00000  -0.00004  -0.00003   0.00469
    Z3       -2.01812   0.00102   0.00000   0.00960   0.00950  -2.00863
    X4        0.18330   0.00024   0.00000   0.00293   0.00405   0.18735
    Y4        1.74524  -0.00091   0.00000  -0.00823  -0.00822   1.73702
    Z4        1.01261  -0.00052   0.00000  -0.00440  -0.00451   1.00810
    X5        0.18329   0.00025   0.00000   0.00292   0.00404   0.18733
    Y5       -1.74993   0.00091   0.00000   0.00821   0.00822  -1.74170
    Z5        1.00445  -0.00051   0.00000  -0.00436  -0.00447   0.99999
    X6        4.39272   0.00104   0.00000   0.02347   0.02460   4.41732
    Y6        0.00001  -0.00000   0.00000  -0.00003  -0.00003  -0.00001
    Z6       -0.00044  -0.00000   0.00000   0.00049   0.00041  -0.00003
    X7        6.61690   0.00222   0.00000   0.02423   0.02536   6.64226
    Y7       -0.00002   0.00000   0.00000   0.00004   0.00004   0.00002
    Z7        0.00042  -0.00000   0.00000  -0.00059  -0.00066  -0.00024
         Item               Value     Threshold  Converged?
 Maximum Force            0.005071     0.000450     NO 
 RMS     Force            0.001315     0.000300     NO 
 Maximum Displacement     0.080431     0.001800     NO 
 RMS     Displacement     0.019947     0.001200     NO 
 Predicted change in Energy=-7.945968D-04
 GradGradGradGradGradGradGradGradGradGradGradGradGradGradGradGradGradGrad

 Leave Link  103 at Sun Oct 13 09:51:02 2024, MaxMem=  2684354560 cpu:               0.8 elap:               0.1
 (Enter /usr/local/g16_AVX//g16/l9999.exe)

 ----------------------------------------------------------------------

 Electric dipole moment (input orientation):
 (Debye = 10**-18 statcoulomb cm , SI units = C m)
                  (au)            (Debye)         (10**-30 SI)
   Tot        0.201680D+01      0.512620D+01      0.170992D+02
   x         -0.201680D+01     -0.512620D+01     -0.170992D+02
   y          0.000000D+00      0.000000D+00      0.000000D+00
   z         -0.166109D-03     -0.422207D-03     -0.140833D-02

 Dipole polarizability, Alpha (input orientation).
 (esu units = cm**3 , SI units = C**2 m**2 J**-1)
 Alpha(0;0):
               (au)            (10**-24 esu)      (10**-40 SI)
   iso        0.666301D+02      0.987357D+01      0.109858D+02
   aniso      0.834714D+02      0.123692D+02      0.137626D+02
   xx         0.122278D+03      0.181197D+02      0.201609D+02
   yx        -0.274485D-04     -0.406746D-05     -0.452565D-05
   yy         0.388062D+02      0.575049D+01      0.639828D+01
   zx         0.217586D-02      0.322429D-03      0.358750D-03
   zy         0.000000D+00      0.000000D+00      0.000000D+00
   zz         0.388065D+02      0.575052D+01      0.639832D+01

 ----------------------------------------------------------------------

 Dipole orientation:
     6         -0.00025779          0.00001105          0.08217665
    17          0.00044531         -0.00001843          4.14475329
     1         -2.01813861          0.00472454         -0.18271390
     1          1.01259892          1.74523851         -0.18337500
     1          1.00443051         -1.74992898         -0.18337723
     6         -0.00080021          0.00002687         -4.39272313
     7         -0.00012358          0.00000827         -6.61690249

 Electric dipole moment (dipole orientation):
 (Debye = 10**-18 statcoulomb cm , SI units = C m)
                  (au)            (Debye)         (10**-30 SI)
   Tot        0.201680D+01      0.512620D+01      0.170992D+02
   x          0.000000D+00      0.000000D+00      0.000000D+00
   y          0.000000D+00      0.000000D+00      0.000000D+00
   z          0.201680D+01      0.512620D+01      0.170992D+02

 Dipole polarizability, Alpha (dipole orientation).
 (esu units = cm**3 , SI units = C**2 m**2 J**-1)
 Alpha(0;0):
               (au)            (10**-24 esu)      (10**-40 SI)
   iso        0.666301D+02      0.987357D+01      0.109858D+02
   aniso      0.834714D+02      0.123692D+02      0.137626D+02
   xx         0.388065D+02      0.575052D+01      0.639832D+01
   yx         0.000000D+00      0.000000D+00      0.000000D+00
   yy         0.388062D+02      0.575049D+01      0.639828D+01
   zx         0.469906D-02      0.696329D-03      0.774771D-03
   zy        -0.267585D-03     -0.396520D-04     -0.441188D-04
   zz         0.122278D+03      0.181197D+02      0.201609D+02

 ----------------------------------------------------------------------
 1\1\GINC-NODO10\Freq\RB3LYP\6-31++G(d,p)\C2H3Cl1N1(1-)\ALANQF\13-Oct-2
 024\0\\#p b3lyp 6-31++g(d,p) scf=verytight NoSymm freq=noraman int=ult
 rafine\\RxCoord=0.39989 DE=54.88\\-1,1\C,-0.043486,0.000006,-0.00014\C
 l,-2.193309,-0.000002,0.000055\H,0.096776,0.002496,-1.067945\H,0.09699
 7,0.923542,0.535849\H,0.096992,-0.926021,0.531533\C,2.324529,0.000006,
 -0.000232\N,3.501514,-0.000008,0.000223\\Version=ES64L-G16RevB.01\HF=-
 592.9871425\RMSD=2.628e-09\RMSF=1.315e-03\ZeroPoint=0.0429255\Thermal=
 0.048993\Dipole=-1.9585903,0.0000071,-0.0001806\DipoleDeriv=3.3190069,
 0.0000058,-0.000176,0.0000049,0.0815178,0.0000005,-0.0002796,0.0000003
 ,0.081539,-2.0120116,-0.0000014,0.0000754,-0.0000065,-0.5108711,0.,0.0
 00104,0.,-0.5108702,-0.1556844,0.0000101,-0.0046648,0.0000656,0.069201
 4,0.0000659,-0.0279852,0.0000662,0.0407963,-0.155682,0.0040435,0.00236
 07,0.0242259,0.0479749,-0.0123293,0.014094,-0.0123181,0.0620494,-0.155
 6851,-0.0040562,0.0023421,-0.0242882,0.0478597,0.0122628,0.0139794,0.0
 122515,0.0621637,-0.7290346,-0.0000027,0.0000928,-0.0000136,-0.3256594
 ,0.0000001,0.000486,0.0000001,-0.3256561,-1.1109092,0.000001,-0.00003,
 0.000012,-0.4100234,0.,-0.0003987,0.,-0.4100222\Polar=122.2777751,-0.0
 000274,38.8062012,0.0021759,0.0000003,38.8064606\Quadrupole=-26.062471
 9,13.0314171,13.0310547,0.0000407,-0.0006301,0.0000029\PG=C01 [X(C2H3C
 l1N1)]\NImag=1\\-0.02714810,0.00000017,0.67600556,0.00006843,-0.000001
 03,0.67599367,0.03420387,0.00000023,-0.00000411,0.05330171,0.00000037,
 -0.02215675,0.,-0.00000020,0.01187506,-0.00000708,-0.00000004,-0.02215
 483,-0.00000073,-0.00000013,0.01187936,-0.01578887,-0.00010381,0.04453
 202,-0.02025739,-0.00002584,0.01102396,0.04421323,-0.00009465,-0.05333
 683,0.00074754,0.00000953,0.00030656,-0.00000985,0.00009709,0.04547146
 ,0.04049021,0.00074762,-0.37399661,-0.00408187,-0.00000993,0.00457191,
 -0.04157157,-0.00078235,0.38100968,-0.01580836,-0.03856482,-0.02238611
 ,-0.02025740,-0.00953311,-0.00553153,0.00165533,0.00284853,0.00247642,
 0.04423589,-0.03506631,-0.29315892,-0.13918530,0.00353106,0.00349916,0
 .00185251,-0.00070241,0.00427864,0.00385155,0.03600237,0.29641486,-0.0
 2035632,-0.13917992,-0.13412036,0.00205053,0.00185318,0.00138059,-0.00
 371129,-0.02348658,-0.00717820,0.02089428,0.14564453,0.13000549,-0.015
 80786,0.03866808,-0.02220488,-0.02025799,0.00955892,-0.00548717,0.0016
 5531,-0.00286002,0.00246306,0.00165372,-0.00357374,0.00123306,0.044235
 87,0.03516020,-0.29445572,0.13843879,-0.00354055,0.00351629,-0.0018425
 0,0.00071967,0.00418680,-0.00379852,0.00356795,-0.01281000,0.01361350,
 -0.03609881,0.29777188,-0.02019172,0.13843338,-0.13282602,0.00203408,-
 0.00184311,0.00136338,-0.00370789,0.02353956,-0.00708634,0.00124972,-0
 .01371956,0.00991572,0.02072517,-0.14486334,0.12865098,0.01958039,0.00
 000004,-0.00000127,-0.01642775,-0.00000007,0.00000130,-0.00983335,0.00
 000090,-0.00037214,-0.00983518,0.00032357,0.00018846,-0.00983507,-0.00
 032440,0.00018693,1.17762911,0.00000061,-0.01645098,-0.00000001,-0.000
 00027,0.00356389,0.,0.00001768,-0.00123263,-0.00001122,0.00657579,0.00
 236949,0.00208872,-0.00659362,0.00238899,-0.00207748,-0.00001368,0.012
 22521,-0.00001587,-0.00000002,-0.01644988,0.00000843,0.,0.00356376,-0.
 00760067,-0.00001118,0.00358234,0.00381903,0.00208996,-0.00001913,0.00
 378837,-0.00207874,-0.00003858,0.00043913,-0.00000002,0.01222574,0.020
 76893,0.00000011,-0.00000407,-0.01030506,-0.00000006,0.00000126,-0.001
 64426,-0.00000137,0.00059590,-0.00164400,-0.00051455,-0.00029872,-0.00
 164398,0.00051594,-0.00029630,-1.15127815,0.00001349,-0.00043841,1.145
 74650,-0.00000039,0.00355363,0.,0.00000020,-0.00060420,0.,-0.00000238,
 0.00032601,0.00000285,-0.00089670,-0.00059324,-0.00053341,0.00089919,-
 0.00059824,0.00053055,0.00001364,-0.00286397,0.,-0.00001355,0.00078000
 ,0.00001236,0.00000001,0.00355403,-0.00000633,0.,-0.00060417,0.0010354
 4,0.00000286,-0.00090277,-0.00052180,-0.00053369,0.00001590,-0.0005176
 0,0.00053082,0.00002086,-0.00044240,0.,-0.00286425,0.00044035,0.,0.000
 78039\\0.00507102,-0.00000017,-0.00000399,-0.00106302,-0.00000025,-0.0
 0000252,-0.00025144,0.00000227,-0.00102419,-0.00024489,0.00090755,0.00
 051721,-0.00024558,-0.00090945,0.00051250,-0.00104131,0.00000007,0.000
 00070,-0.00222479,-0.00000002,0.00000029\\\@


 FROM AN ANONYMOUS WRITER, ON PERSPECTIVE:

 MAN, DESPITE HIS ARTISTIC PRETENSIONS, HIS SOPHISTICATION AND MANY 
 ACCOMPLISHMENTS, OWES THE FACT OF HIS EXISTENCE TO A SIX-INCH LAYER OF 
 TOPSOIL AND THE FACT THAT IT RAINS.
 Job cpu time:       0 days  0 hours  3 minutes 47.4 seconds.
 Elapsed time:       0 days  0 hours  0 minutes  9.8 seconds.
 File lengths (MBytes):  RWF=     88 Int=      0 D2E=      0 Chk=      2 Scr=      2
 Normal termination of Gaussian 16 at Sun Oct 13 09:51:02 2024.
