 Entering Gaussian System, Link 0=g16
 Initial command:
 /usr/local/g16_AVX//g16/l1.exe "/scratch/alanqf/0106-54548.ixchel.mda.cinvestav.mx/Gau-23692.inp" -scrdir="/scratch/alanqf/0106-54548.ixchel.mda.cinvestav.mx/"
 Entering Link 1 = /usr/local/g16_AVX//g16/l1.exe PID=     23693.
  
 Copyright (c) 1988-2017, Gaussian, Inc.  All Rights Reserved.
  
 This is part of the Gaussian(R) 16 program.  It is based on
 the Gaussian(R) 09 system (copyright 2009, Gaussian, Inc.),
 the Gaussian(R) 03 system (copyright 2003, Gaussian, Inc.),
 the Gaussian(R) 98 system (copyright 1998, Gaussian, Inc.),
 the Gaussian(R) 94 system (copyright 1995, Gaussian, Inc.),
 the Gaussian 92(TM) system (copyright 1992, Gaussian, Inc.),
 the Gaussian 90(TM) system (copyright 1990, Gaussian, Inc.),
 the Gaussian 88(TM) system (copyright 1988, Gaussian, Inc.),
 the Gaussian 86(TM) system (copyright 1986, Carnegie Mellon
 University), and the Gaussian 82(TM) system (copyright 1983,
 Carnegie Mellon University). Gaussian is a federally registered
 trademark of Gaussian, Inc.
  
 This software contains proprietary and confidential information,
 including trade secrets, belonging to Gaussian, Inc.
  
 This software is provided under written license and may be
 used, copied, transmitted, or stored only in accord with that
 written license.
  
 The following legend is applicable only to US Government
 contracts under FAR:
  
                    RESTRICTED RIGHTS LEGEND
  
 Use, reproduction and disclosure by the US Government is
 subject to restrictions as set forth in subparagraphs (a)
 and (c) of the Commercial Computer Software - Restricted
 Rights clause in FAR 52.227-19.
  
 Gaussian, Inc.
 340 Quinnipiac St., Bldg. 40, Wallingford CT 06492
  
  
 ---------------------------------------------------------------
 Warning -- This program may not be used in any manner that
 competes with the business of Gaussian, Inc. or will provide
 assistance to any competitor of Gaussian, Inc.  The licensee
 of this program is prohibited from giving any competitor of
 Gaussian, Inc. access to this program.  By using this program,
 the user acknowledges that Gaussian, Inc. is engaged in the
 business of creating and licensing software in the field of
 computational chemistry and represents and warrants to the
 licensee that it is not a competitor of Gaussian, Inc. and that
 it will not use this program in any manner prohibited above.
 ---------------------------------------------------------------
  

 Cite this work as:
 Gaussian 16, Revision B.01,
 M. J. Frisch, G. W. Trucks, H. B. Schlegel, G. E. Scuseria, 
 M. A. Robb, J. R. Cheeseman, G. Scalmani, V. Barone, 
 G. A. Petersson, H. Nakatsuji, X. Li, M. Caricato, A. V. Marenich, 
 J. Bloino, B. G. Janesko, R. Gomperts, B. Mennucci, H. P. Hratchian, 
 J. V. Ortiz, A. F. Izmaylov, J. L. Sonnenberg, D. Williams-Young, 
 F. Ding, F. Lipparini, F. Egidi, J. Goings, B. Peng, A. Petrone, 
 T. Henderson, D. Ranasinghe, V. G. Zakrzewski, J. Gao, N. Rega, 
 G. Zheng, W. Liang, M. Hada, M. Ehara, K. Toyota, R. Fukuda, 
 J. Hasegawa, M. Ishida, T. Nakajima, Y. Honda, O. Kitao, H. Nakai, 
 T. Vreven, K. Throssell, J. A. Montgomery, Jr., J. E. Peralta, 
 F. Ogliaro, M. J. Bearpark, J. J. Heyd, E. N. Brothers, K. N. Kudin, 
 V. N. Staroverov, T. A. Keith, R. Kobayashi, J. Normand, 
 K. Raghavachari, A. P. Rendell, J. C. Burant, S. S. Iyengar, 
 J. Tomasi, M. Cossi, J. M. Millam, M. Klene, C. Adamo, R. Cammi, 
 J. W. Ochterski, R. L. Martin, K. Morokuma, O. Farkas, 
 J. B. Foresman, and D. J. Fox, Gaussian, Inc., Wallingford CT, 2016.
 
 ******************************************
 Gaussian 16:  ES64L-G16RevB.01 20-Dec-2017
                13-Oct-2024 
 ******************************************
 %NProcShared=26
 Will use up to   26 processors via shared memory.
 %MEM=20GB
 %chk=CHKfiles/0106.chk
 ---------------------------------------------------------------------
 #p b3lyp 6-31++g(d,p) scf=verytight NoSymm freq=noraman int=ultrafine
 ---------------------------------------------------------------------
 1/10=4,30=1,38=1/1,3;
 2/12=2,15=1,17=6,18=5,40=1/2;
 3/5=1,6=6,7=1111,11=2,25=1,30=1,71=2,74=-5,75=-5,140=1/1,2,3;
 4//1;
 5/5=2,17=3,38=5,98=1/2;
 8/6=4,10=90,11=11/1;
 11/6=1,8=1,9=11,15=111,16=1,31=1/1,2,10;
 10/6=1,31=1/2;
 6/7=2,8=2,9=2,10=2,28=1/1;
 7/8=1,10=1,25=1,30=1/1,2,3,16;
 1/10=4,30=1/3;
 99//99;
 Leave Link    1 at Sun Oct 13 09:50:52 2024, MaxMem=  2684354560 cpu:               1.3 elap:               0.1
 (Enter /usr/local/g16_AVX//g16/l101.exe)
 ------------------------
 RxCoord=0.49987 DE=54.64
 ------------------------
 Symbolic Z-matrix:
 Charge = -1 Multiplicity = 1
 C                    -0.05728   0.00001  -0.00014 
 Cl                   -2.19097  0.         0.00005 
 H                     0.09492   0.00249  -1.06658 
 H                     0.09517   0.92237   0.53515 
 H                     0.09516  -0.92484   0.53084 
 C                     2.32795   0.00001  -0.00023 
 N                     3.50497  -0.00001   0.00022 
 
 ITRead=  0  0  0  0  0  0  0
 MicOpt= -1 -1 -1 -1 -1 -1 -1
 NAtoms=      7 NQM=        7 NQMF=       0 NMMI=      0 NMMIF=      0
                NMic=       0 NMicF=      0.
                    Isotopes and Nuclear Properties:
 (Nuclear quadrupole moments (NQMom) in fm**2, nuclear magnetic moments (NMagM)
  in nuclear magnetons)

  Atom         1           2           3           4           5           6           7
 IAtWgt=          12          35           1           1           1          12          14
 AtmWgt=  12.0000000  34.9688527   1.0078250   1.0078250   1.0078250  12.0000000  14.0030740
 NucSpn=           0           3           1           1           1           0           2
 AtZEff=  -0.0000000  -0.0000000  -0.0000000  -0.0000000  -0.0000000  -0.0000000  -0.0000000
 NQMom=    0.0000000  -8.1650000   0.0000000   0.0000000   0.0000000   0.0000000   2.0440000
 NMagM=    0.0000000   0.8218740   2.7928460   2.7928460   2.7928460   0.0000000   0.4037610
 AtZNuc=   6.0000000  17.0000000   1.0000000   1.0000000   1.0000000   6.0000000   7.0000000
 Leave Link  101 at Sun Oct 13 09:50:52 2024, MaxMem=  2684354560 cpu:               2.8 elap:               0.1
 (Enter /usr/local/g16_AVX//g16/l103.exe)

 GradGradGradGradGradGradGradGradGradGradGradGradGradGradGradGradGradGrad
 Berny optimization.
 Initialization pass.
 Trust Radius=3.00D-01 FncErr=1.00D-07 GrdErr=1.00D-07 EigMax=2.50D+02 EigMin=1.00D-04
 Number of steps in this run=      2 maximum allowed number of steps=      2.
 GradGradGradGradGradGradGradGradGradGradGradGradGradGradGradGradGradGrad

 Leave Link  103 at Sun Oct 13 09:50:52 2024, MaxMem=  2684354560 cpu:               0.5 elap:               0.0
 (Enter /usr/local/g16_AVX//g16/l202.exe)
                          Input orientation:                          
 ---------------------------------------------------------------------
 Center     Atomic      Atomic             Coordinates (Angstroms)
 Number     Number       Type             X           Y           Z
 ---------------------------------------------------------------------
      1          6           0       -0.057283    0.000006   -0.000139
      2         17           0       -2.190972   -0.000002    0.000053
      3          1           0        0.094917    0.002492   -1.066580
      4          1           0        0.095165    0.922365    0.535152
      5          1           0        0.095160   -0.924840    0.530843
      6          6           0        2.327949    0.000006   -0.000227
      7          7           0        3.504968   -0.000008    0.000224
 ---------------------------------------------------------------------
                    Distance matrix (angstroms):
                    1          2          3          4          5
     1  C    0.000000
     2  Cl   2.133689   0.000000
     3  H    1.077250   2.522499   0.000000
     4  H    1.077276   2.522601   1.847082   0.000000
     5  H    1.077275   2.522591   1.847080   1.847210   0.000000
     6  C    2.385232   4.518921   2.474580   2.474409   2.474414
     7  N    3.562251   5.695940   3.573027   3.572629   3.572627
                    6          7
     6  C    0.000000
     7  N    1.177019   0.000000
 Symmetry turned off by external request.
 This structure is nearly, but not quite of a higher symmetry.
 Consider Symm=Loose if the higher symmetry is desired.
 Stoichiometry    C2H3ClN(1-)
 Framework group  C1[X(C2H3ClN)]
 Deg. of freedom    15
 Full point group                 C1      NOp   1
 Rotational constants (GHZ):         146.9737310           1.2426151           1.2426141
 Leave Link  202 at Sun Oct 13 09:50:52 2024, MaxMem=  2684354560 cpu:               0.2 elap:               0.0
 (Enter /usr/local/g16_AVX//g16/l301.exe)
 Standard basis: 6-31++G(d,p) (6D, 7F)
 Ernie: Thresh=  0.10000D-02 Tol=  0.10000D-05 Strict=F.
    98 basis functions,   176 primitive gaussians,    98 cartesian basis functions
    20 alpha electrons       20 beta electrons
       nuclear repulsion energy       108.7658269724 Hartrees.
 IExCor=  402 DFT=T Ex+Corr=B3LYP ExCW=0 ScaHFX=  0.200000
 ScaDFX=  0.800000  0.720000  1.000000  0.810000 ScalE2=  1.000000  1.000000
 IRadAn=      5 IRanWt=     -1 IRanGd=            0 ICorTp=0 IEmpDi=  4
 NAtoms=    7 NActive=    7 NUniq=    7 SFac= 1.00D+00 NAtFMM=   60 NAOKFM=F Big=F
 Integral buffers will be    131072 words long.
 Raffenetti 2 integral format.
 Two-electron integral symmetry is turned off.
 Leave Link  301 at Sun Oct 13 09:50:52 2024, MaxMem=  2684354560 cpu:               1.3 elap:               0.1
 (Enter /usr/local/g16_AVX//g16/l302.exe)
 NPDir=0 NMtPBC=     1 NCelOv=     1 NCel=       1 NClECP=     1 NCelD=      1
         NCelK=      1 NCelE2=     1 NClLst=     1 CellRange=     0.0.
 One-electron integrals computed using PRISM.
 NBasis=    98 RedAO= T EigKep=  1.21D-04  NBF=    98
 NBsUse=    98 1.00D-06 EigRej= -1.00D+00 NBFU=    98
 Precomputing XC quadrature grid using
 IXCGrd= 4 IRadAn=           5 IRanWt=          -1 IRanGd=           0 AccXCQ= 0.00D+00.
 Generated NRdTot=       0 NPtTot=           0 NUsed=           0 NTot=          32
 NSgBfM=    98    98    98    98    98 MxSgAt=     7 MxSgA2=     7.
 Leave Link  302 at Sun Oct 13 09:50:53 2024, MaxMem=  2684354560 cpu:               3.9 elap:               0.2
 (Enter /usr/local/g16_AVX//g16/l303.exe)
 DipDrv:  MaxL=1.
 Leave Link  303 at Sun Oct 13 09:50:53 2024, MaxMem=  2684354560 cpu:               0.8 elap:               0.1
 (Enter /usr/local/g16_AVX//g16/l401.exe)
 ExpMin= 3.60D-02 ExpMax= 2.52D+04 ExpMxC= 3.78D+03 IAcc=3 IRadAn=         5 AccDes= 0.00D+00
 Harris functional with IExCor=  402 and IRadAn=       5 diagonalized for initial guess.
 HarFok:  IExCor=  402 AccDes= 0.00D+00 IRadAn=         5 IDoV= 1 UseB2=F ITyADJ=14
 ICtDFT=  3500011 ScaDFX=  1.000000  1.000000  1.000000  1.000000
 FoFCou: FMM=F IPFlag=           0 FMFlag=      100000 FMFlg1=           0
         NFxFlg=           0 DoJE=T BraDBF=F KetDBF=T FulRan=T
         wScrn=  0.000000 ICntrl=       500 IOpCl=  0 I1Cent=   200000004 NGrid=           0
         NMat0=    1 NMatS0=      1 NMatT0=    0 NMatD0=    1 NMtDS0=    0 NMtDT0=    0
 Symmetry not used in FoFCou.
 Harris En= -593.048116523427    
 JPrj=0 DoOrth=F DoCkMO=F.
 Leave Link  401 at Sun Oct 13 09:50:53 2024, MaxMem=  2684354560 cpu:               5.8 elap:               0.3
 (Enter /usr/local/g16_AVX//g16/l502.exe)
 Keep R1 ints in memory in canonical form, NReq=35752935.
 FoFCou: FMM=F IPFlag=           0 FMFlag=           0 FMFlg1=           0
         NFxFlg=           0 DoJE=F BraDBF=F KetDBF=F FulRan=T
         wScrn=  0.000000 ICntrl=       600 IOpCl=  0 I1Cent=           0 NGrid=           0
         NMat0=    1 NMatS0=   4851 NMatT0=    0 NMatD0=    1 NMtDS0=    0 NMtDT0=    0
 Symmetry not used in FoFCou.
 Two-electron integral symmetry not used.
 Closed shell SCF:
 Using DIIS extrapolation, IDIIS=  1040.
 NGot=  2684354560 LenX=  2672563405 LenY=  2672553360
 Requested convergence on RMS density matrix=1.00D-08 within 128 cycles.
 Requested convergence on MAX density matrix=1.00D-06.
 Requested convergence on             energy=1.00D-06.
 No special actions if energy rises.

 Cycle   1  Pass 1  IDiag  1:
 E= -592.846052618893    
 DIIS: error= 3.31D-02 at cycle   1 NSaved=   1.
 NSaved= 1 IEnMin= 1 EnMin= -592.846052618893     IErMin= 1 ErrMin= 3.31D-02
 ErrMax= 3.31D-02  0.00D+00 EMaxC= 1.00D-01 BMatC= 1.19D-01 BMatP= 1.19D-01
 IDIUse=3 WtCom= 6.69D-01 WtEn= 3.31D-01
 Coeff-Com:  0.100D+01
 Coeff-En:   0.100D+01
 Coeff:      0.100D+01
 Gap=     0.370 Goal=   None    Shift=    0.000
 GapD=    0.370 DampG=1.000 DampE=0.500 DampFc=0.5000 IDamp=-1.
 Damping current iteration by 5.00D-01
 RMSDP=3.50D-02 MaxDP=1.01D+00              OVMax= 3.27D-01

 Cycle   2  Pass 1  IDiag  1:
 E= -592.885100642198     Delta-E=       -0.039048023305 Rises=F Damp=T
 DIIS: error= 1.15D-02 at cycle   2 NSaved=   2.
 NSaved= 2 IEnMin= 2 EnMin= -592.885100642198     IErMin= 2 ErrMin= 1.15D-02
 ErrMax= 1.15D-02  0.00D+00 EMaxC= 1.00D-01 BMatC= 1.55D-02 BMatP= 1.19D-01
 IDIUse=3 WtCom= 8.85D-01 WtEn= 1.15D-01
 Coeff-Com:  0.194D+00 0.806D+00
 Coeff-En:   0.342D+00 0.658D+00
 Coeff:      0.211D+00 0.789D+00
 Gap=     0.228 Goal=   None    Shift=    0.000
 RMSDP=1.56D-02 MaxDP=5.24D-01 DE=-3.90D-02 OVMax= 2.33D-01

 Cycle   3  Pass 1  IDiag  1:
 E= -592.975034631164     Delta-E=       -0.089933988966 Rises=F Damp=F
 DIIS: error= 1.60D-02 at cycle   3 NSaved=   3.
 NSaved= 3 IEnMin= 3 EnMin= -592.975034631164     IErMin= 2 ErrMin= 1.15D-02
 ErrMax= 1.60D-02  0.00D+00 EMaxC= 1.00D-01 BMatC= 1.29D-02 BMatP= 1.55D-02
 IDIUse=3 WtCom= 8.40D-01 WtEn= 1.60D-01
 Coeff-Com:  0.639D-01 0.476D+00 0.460D+00
 Coeff-En:   0.000D+00 0.000D+00 0.100D+01
 Coeff:      0.537D-01 0.400D+00 0.547D+00
 Gap=     0.215 Goal=   None    Shift=    0.000
 RMSDP=2.02D-03 MaxDP=3.55D-02 DE=-8.99D-02 OVMax= 6.35D-02

 Cycle   4  Pass 1  IDiag  1:
 E= -592.979547770793     Delta-E=       -0.004513139629 Rises=F Damp=F
 DIIS: error= 1.36D-02 at cycle   4 NSaved=   4.
 NSaved= 4 IEnMin= 4 EnMin= -592.979547770793     IErMin= 2 ErrMin= 1.15D-02
 ErrMax= 1.36D-02  0.00D+00 EMaxC= 1.00D-01 BMatC= 8.34D-03 BMatP= 1.29D-02
 IDIUse=3 WtCom= 8.64D-01 WtEn= 1.36D-01
 Coeff-Com: -0.398D-02 0.923D-01 0.434D+00 0.478D+00
 Coeff-En:   0.000D+00 0.000D+00 0.415D+00 0.585D+00
 Coeff:     -0.344D-02 0.798D-01 0.431D+00 0.493D+00
 Gap=     0.205 Goal=   None    Shift=    0.000
 RMSDP=1.13D-03 MaxDP=1.95D-02 DE=-4.51D-03 OVMax= 3.22D-02

 Cycle   5  Pass 1  IDiag  1:
 E= -592.986769653165     Delta-E=       -0.007221882372 Rises=F Damp=F
 DIIS: error= 2.27D-03 at cycle   5 NSaved=   5.
 NSaved= 5 IEnMin= 5 EnMin= -592.986769653165     IErMin= 5 ErrMin= 2.27D-03
 ErrMax= 2.27D-03  0.00D+00 EMaxC= 1.00D-01 BMatC= 4.71D-04 BMatP= 8.34D-03
 IDIUse=3 WtCom= 9.77D-01 WtEn= 2.27D-02
 Coeff-Com: -0.595D-02 0.180D-01 0.216D+00 0.301D+00 0.472D+00
 Coeff-En:   0.000D+00 0.000D+00 0.000D+00 0.206D-01 0.979D+00
 Coeff:     -0.581D-02 0.176D-01 0.211D+00 0.294D+00 0.483D+00
 Gap=     0.208 Goal=   None    Shift=    0.000
 RMSDP=4.40D-04 MaxDP=6.73D-03 DE=-7.22D-03 OVMax= 1.29D-02

 Cycle   6  Pass 1  IDiag  1:
 E= -592.987317884039     Delta-E=       -0.000548230874 Rises=F Damp=F
 DIIS: error= 3.38D-04 at cycle   6 NSaved=   6.
 NSaved= 6 IEnMin= 6 EnMin= -592.987317884039     IErMin= 6 ErrMin= 3.38D-04
 ErrMax= 3.38D-04  0.00D+00 EMaxC= 1.00D-01 BMatC= 1.15D-05 BMatP= 4.71D-04
 IDIUse=3 WtCom= 9.97D-01 WtEn= 3.38D-03
 Coeff-Com: -0.197D-02-0.563D-03 0.633D-01 0.937D-01 0.214D+00 0.632D+00
 Coeff-En:   0.000D+00 0.000D+00 0.000D+00 0.000D+00 0.000D+00 0.100D+01
 Coeff:     -0.197D-02-0.561D-03 0.631D-01 0.934D-01 0.213D+00 0.633D+00
 Gap=     0.207 Goal=   None    Shift=    0.000
 RMSDP=6.39D-05 MaxDP=1.29D-03 DE=-5.48D-04 OVMax= 1.40D-03

 Cycle   7  Pass 1  IDiag  1:
 E= -592.987329341182     Delta-E=       -0.000011457142 Rises=F Damp=F
 DIIS: error= 7.74D-05 at cycle   7 NSaved=   7.
 NSaved= 7 IEnMin= 7 EnMin= -592.987329341182     IErMin= 7 ErrMin= 7.74D-05
 ErrMax= 7.74D-05  0.00D+00 EMaxC= 1.00D-01 BMatC= 8.05D-07 BMatP= 1.15D-05
 IDIUse=1 WtCom= 1.00D+00 WtEn= 0.00D+00
 Coeff-Com: -0.201D-03-0.826D-03 0.701D-02 0.106D-01 0.451D-01 0.273D+00
 Coeff-Com:  0.666D+00
 Coeff:     -0.201D-03-0.826D-03 0.701D-02 0.106D-01 0.451D-01 0.273D+00
 Coeff:      0.666D+00
 Gap=     0.207 Goal=   None    Shift=    0.000
 RMSDP=1.96D-05 MaxDP=4.90D-04 DE=-1.15D-05 OVMax= 4.97D-04

 Cycle   8  Pass 1  IDiag  1:
 E= -592.987330285352     Delta-E=       -0.000000944170 Rises=F Damp=F
 DIIS: error= 2.55D-05 at cycle   8 NSaved=   8.
 NSaved= 8 IEnMin= 8 EnMin= -592.987330285352     IErMin= 8 ErrMin= 2.55D-05
 ErrMax= 2.55D-05  0.00D+00 EMaxC= 1.00D-01 BMatC= 7.93D-08 BMatP= 8.05D-07
 IDIUse=1 WtCom= 1.00D+00 WtEn= 0.00D+00
 Coeff-Com:  0.159D-03-0.659D-03-0.269D-02-0.343D-02 0.232D-02 0.647D-01
 Coeff-Com:  0.303D+00 0.637D+00
 Coeff:      0.159D-03-0.659D-03-0.269D-02-0.343D-02 0.232D-02 0.647D-01
 Coeff:      0.303D+00 0.637D+00
 Gap=     0.207 Goal=   None    Shift=    0.000
 RMSDP=3.75D-06 MaxDP=9.18D-05 DE=-9.44D-07 OVMax= 8.34D-05

 Cycle   9  Pass 1  IDiag  1:
 E= -592.987330374986     Delta-E=       -0.000000089635 Rises=F Damp=F
 DIIS: error= 3.91D-06 at cycle   9 NSaved=   9.
 NSaved= 9 IEnMin= 9 EnMin= -592.987330374986     IErMin= 9 ErrMin= 3.91D-06
 ErrMax= 3.91D-06  0.00D+00 EMaxC= 1.00D-01 BMatC= 8.19D-10 BMatP= 7.93D-08
 IDIUse=1 WtCom= 1.00D+00 WtEn= 0.00D+00
 Coeff-Com:  0.597D-04-0.126D-03-0.888D-03-0.107D-02-0.124D-02 0.106D-02
 Coeff-Com:  0.386D-01 0.132D+00 0.832D+00
 Coeff:      0.597D-04-0.126D-03-0.888D-03-0.107D-02-0.124D-02 0.106D-02
 Coeff:      0.386D-01 0.132D+00 0.832D+00
 Gap=     0.207 Goal=   None    Shift=    0.000
 RMSDP=1.41D-06 MaxDP=3.36D-05 DE=-8.96D-08 OVMax= 9.06D-06

 Cycle  10  Pass 1  IDiag  1:
 E= -592.987330375982     Delta-E=       -0.000000000995 Rises=F Damp=F
 DIIS: error= 3.31D-07 at cycle  10 NSaved=  10.
 NSaved=10 IEnMin=10 EnMin= -592.987330375982     IErMin=10 ErrMin= 3.31D-07
 ErrMax= 3.31D-07  0.00D+00 EMaxC= 1.00D-01 BMatC= 1.02D-11 BMatP= 8.19D-10
 IDIUse=1 WtCom= 1.00D+00 WtEn= 0.00D+00
 Coeff-Com:  0.550D-05-0.274D-05-0.578D-04-0.701D-04-0.181D-03-0.990D-03
 Coeff-Com: -0.229D-02 0.617D-02 0.102D+00 0.896D+00
 Coeff:      0.550D-05-0.274D-05-0.578D-04-0.701D-04-0.181D-03-0.990D-03
 Coeff:     -0.229D-02 0.617D-02 0.102D+00 0.896D+00
 Gap=     0.207 Goal=   None    Shift=    0.000
 RMSDP=7.86D-08 MaxDP=1.92D-06 DE=-9.95D-10 OVMax= 1.66D-06

 Cycle  11  Pass 1  IDiag  1:
 E= -592.987330375996     Delta-E=       -0.000000000015 Rises=F Damp=F
 DIIS: error= 5.82D-08 at cycle  11 NSaved=  11.
 NSaved=11 IEnMin=11 EnMin= -592.987330375996     IErMin=11 ErrMin= 5.82D-08
 ErrMax= 5.82D-08  0.00D+00 EMaxC= 1.00D-01 BMatC= 3.28D-13 BMatP= 1.02D-11
 IDIUse=1 WtCom= 1.00D+00 WtEn= 0.00D+00
 Coeff-Com: -0.568D-06 0.169D-05 0.349D-05 0.415D-05-0.144D-04-0.898D-04
 Coeff-Com: -0.852D-03-0.724D-03 0.106D-02 0.122D+00 0.878D+00
 Coeff:     -0.568D-06 0.169D-05 0.349D-05 0.415D-05-0.144D-04-0.898D-04
 Coeff:     -0.852D-03-0.724D-03 0.106D-02 0.122D+00 0.878D+00
 Gap=     0.207 Goal=   None    Shift=    0.000
 RMSDP=1.28D-08 MaxDP=2.71D-07 DE=-1.46D-11 OVMax= 2.34D-07

 Cycle  12  Pass 1  IDiag  1:
 E= -592.987330375997     Delta-E=       -0.000000000001 Rises=F Damp=F
 DIIS: error= 7.75D-09 at cycle  12 NSaved=  12.
 NSaved=12 IEnMin=12 EnMin= -592.987330375997     IErMin=12 ErrMin= 7.75D-09
 ErrMax= 7.75D-09  0.00D+00 EMaxC= 1.00D-01 BMatC= 6.43D-15 BMatP= 3.28D-13
 IDIUse=1 WtCom= 1.00D+00 WtEn= 0.00D+00
 Coeff-Com: -0.266D-06 0.449D-06 0.109D-05 0.131D-05-0.517D-06 0.253D-05
 Coeff-Com: -0.751D-04-0.243D-03-0.168D-02 0.376D-02 0.155D+00 0.843D+00
 Coeff:     -0.266D-06 0.449D-06 0.109D-05 0.131D-05-0.517D-06 0.253D-05
 Coeff:     -0.751D-04-0.243D-03-0.168D-02 0.376D-02 0.155D+00 0.843D+00
 Gap=     0.207 Goal=   None    Shift=    0.000
 RMSDP=2.72D-09 MaxDP=4.91D-08 DE=-1.36D-12 OVMax= 4.06D-08

 SCF Done:  E(RB3LYP) =  -592.987330376     A.U. after   12 cycles
            NFock= 12  Conv=0.27D-08     -V/T= 2.0047
 KE= 5.902303084324D+02 PE=-1.627633055168D+03 EE= 3.356495893868D+02
 Leave Link  502 at Sun Oct 13 09:50:55 2024, MaxMem=  2684354560 cpu:              35.4 elap:               1.6
 (Enter /usr/local/g16_AVX//g16/l801.exe)
 DoSCS=F DFT=T ScalE2(SS,OS)=  1.000000  1.000000
 Range of M.O.s used for correlation:     1    98
 NBasis=    98 NAE=    20 NBE=    20 NFC=     0 NFV=     0
 NROrb=     98 NOA=    20 NOB=    20 NVA=    78 NVB=    78

 **** Warning!!: The largest alpha MO coefficient is  0.29283850D+02

 Leave Link  801 at Sun Oct 13 09:50:55 2024, MaxMem=  2684354560 cpu:               0.7 elap:               0.1
 (Enter /usr/local/g16_AVX//g16/l1101.exe)
 Using compressed storage, NAtomX=     7.
 Will process      8 centers per pass.
 Leave Link 1101 at Sun Oct 13 09:50:55 2024, MaxMem=  2684354560 cpu:               3.5 elap:               0.2
 (Enter /usr/local/g16_AVX//g16/l1102.exe)
 Symmetrizing basis deriv contribution to polar:
 IMax=3 JMax=2 DiffMx= 0.00D+00
 Leave Link 1102 at Sun Oct 13 09:50:55 2024, MaxMem=  2684354560 cpu:               0.7 elap:               0.1
 (Enter /usr/local/g16_AVX//g16/l1110.exe)
 Forming Gx(P) for the SCF density, NAtomX=     7.
 Integral derivatives from FoFJK, PRISM(SPDF).
 Do as many integral derivatives as possible in FoFJK.
 G2DrvN: MDV=    2684353864.
 G2DrvN: will do     8 centers at a time, making    1 passes.
 Calling FoFCou, ICntrl=  3107 FMM=F I1Cent=   0 AccDes= 0.00D+00.
 FoFJK:  IHMeth= 1 ICntrl=    3107 DoSepK=F KAlg= 0 I1Cent=           0 FoldK=F
 IRaf=         0 NMat=       1 IRICut=       1 DoRegI=T DoRafI=F ISym2E= 0 IDoP0=0 IntGTp=1.
 FoFCou: FMM=F IPFlag=           0 FMFlag=      100000 FMFlg1=           0
         NFxFlg=           0 DoJE=F BraDBF=F KetDBF=F FulRan=T
         wScrn=  0.000000 ICntrl=      3107 IOpCl=  0 I1Cent=           0 NGrid=           0
         NMat0=    1 NMatS0=      1 NMatT0=    0 NMatD0=    1 NMtDS0=    0 NMtDT0=    0
 Symmetry not used in FoFCou.
 End of G2Drv F.D. properties file   721 does not exist.
 End of G2Drv F.D. properties file   722 does not exist.
 End of G2Drv F.D. properties file   788 does not exist.
 Leave Link 1110 at Sun Oct 13 09:50:57 2024, MaxMem=  2684354560 cpu:              38.8 elap:               1.5
 (Enter /usr/local/g16_AVX//g16/l1002.exe)
 Minotr:  Closed shell wavefunction.
          IDoAtm=1111111
          Direct CPHF calculation.
          Differentiating once with respect to electric field.
                with respect to dipole field.
          Differentiating once with respect to nuclear coordinates.
          Requested convergence is 1.0D-08 RMS, and 1.0D-07 maximum.
          Secondary convergence is 1.0D-12 RMS, and 1.0D-12 maximum.
          NewPWx=T KeepS1=F KeepF1=F KeepIn=T MapXYZ=F SortEE=F KeepMc=T.
         2136 words used for storage of precomputed grid.
 Keep R1 ints in memory in canonical form, NReq=35668397.
 FoFCou: FMM=F IPFlag=           0 FMFlag=           0 FMFlg1=           0
         NFxFlg=           0 DoJE=F BraDBF=F KetDBF=F FulRan=T
         wScrn=  0.000000 ICntrl=       600 IOpCl=  0 I1Cent=           0 NGrid=           0
         NMat0=    1 NMatS0=   4851 NMatT0=    0 NMatD0=    1 NMtDS0=    0 NMtDT0=    0
 Symmetry not used in FoFCou.
 Two-electron integral symmetry not used.
          MDV=    2684354560 using IRadAn=       1.
          Solving linear equations simultaneously, MaxMat=       0.
          There are    24 degrees of freedom in the 1st order CPHF.  IDoFFX=6 NUNeed=     3.
     21 vectors produced by pass  0 Test12= 6.50D-15 4.17D-09 XBig12= 1.44D+02 7.83D+00.
 AX will form    21 AO Fock derivatives at one time.
     21 vectors produced by pass  1 Test12= 6.50D-15 4.17D-09 XBig12= 4.47D+01 1.97D+00.
     21 vectors produced by pass  2 Test12= 6.50D-15 4.17D-09 XBig12= 7.31D-01 2.76D-01.
     21 vectors produced by pass  3 Test12= 6.50D-15 4.17D-09 XBig12= 2.95D-03 1.25D-02.
     21 vectors produced by pass  4 Test12= 6.50D-15 4.17D-09 XBig12= 1.09D-05 7.68D-04.
     17 vectors produced by pass  5 Test12= 6.50D-15 4.17D-09 XBig12= 1.65D-08 3.05D-05.
      6 vectors produced by pass  6 Test12= 6.50D-15 4.17D-09 XBig12= 1.88D-11 9.41D-07.
      1 vectors produced by pass  7 Test12= 6.50D-15 4.17D-09 XBig12= 1.84D-14 2.92D-08.
 InvSVY:  IOpt=1 It=  1 EMax= 1.07D-14
 Solved reduced A of dimension   129 with    24 vectors.
 FullF1:  Do perturbations      1 to       3.
 Isotropic polarizability for W=    0.000000       66.32 Bohr**3.
 End of Minotr F.D. properties file   721 does not exist.
 End of Minotr F.D. properties file   722 does not exist.
 End of Minotr F.D. properties file   788 does not exist.
 Leave Link 1002 at Sun Oct 13 09:50:59 2024, MaxMem=  2684354560 cpu:              53.8 elap:               2.1
 (Enter /usr/local/g16_AVX//g16/l601.exe)
 Copying SCF densities to generalized density rwf, IOpCl= 0 IROHF=0.

 **********************************************************************

            Population analysis using the SCF Density.

 **********************************************************************

 Alpha  occ. eigenvalues -- -101.35603 -14.12598 -10.11044  -9.99542  -9.27092
 Alpha  occ. eigenvalues --   -7.03231  -7.02659  -7.02659  -0.68061  -0.63771
 Alpha  occ. eigenvalues --   -0.54217  -0.30564  -0.30563  -0.23212  -0.18909
 Alpha  occ. eigenvalues --   -0.13948  -0.13948  -0.12729  -0.12729  -0.09539
 Alpha virt. eigenvalues --    0.11203   0.12513   0.14874   0.14874   0.16011
 Alpha virt. eigenvalues --    0.19103   0.20369   0.20369   0.22313   0.22314
 Alpha virt. eigenvalues --    0.24745   0.24745   0.25060   0.25861   0.25862
 Alpha virt. eigenvalues --    0.25929   0.30983   0.34239   0.34239   0.37390
 Alpha virt. eigenvalues --    0.37404   0.37405   0.38136   0.45733   0.47007
 Alpha virt. eigenvalues --    0.73432   0.76838   0.76839   0.77039   0.80099
 Alpha virt. eigenvalues --    0.80100   0.87252   0.87252   0.88900   0.97955
 Alpha virt. eigenvalues --    0.99812   1.04213   1.04214   1.08190   1.08190
 Alpha virt. eigenvalues --    1.09837   1.09838   1.12883   1.17143   1.17143
 Alpha virt. eigenvalues --    1.24394   1.32304   1.39014   1.51283   1.60158
 Alpha virt. eigenvalues --    1.60160   1.74945   1.74945   1.77102   1.77102
 Alpha virt. eigenvalues --    1.83040   2.12996   2.14814   2.14824   2.17226
 Alpha virt. eigenvalues --    2.17227   2.17480   2.56569   2.62267   2.62273
 Alpha virt. eigenvalues --    2.80389   2.80389   2.83056   2.91851   2.91862
 Alpha virt. eigenvalues --    3.25044   3.45153   3.57767   3.57778   4.19721
 Alpha virt. eigenvalues --    4.45958   4.49215   4.58072
          Condensed to atoms (all electrons):
               1          2          3          4          5          6
     1  C    5.406832  -0.168130   0.430607   0.430611   0.430612  -0.157350
     2  Cl  -0.168130  17.696742  -0.049366  -0.049360  -0.049360   0.099890
     3  H    0.430607  -0.049366   0.496773  -0.020288  -0.020288  -0.047741
     4  H    0.430611  -0.049360  -0.020288   0.496755  -0.020273  -0.047740
     5  H    0.430612  -0.049360  -0.020288  -0.020273   0.496756  -0.047740
     6  C   -0.157350   0.099890  -0.047741  -0.047740  -0.047740   5.736023
     7  N   -0.023890  -0.002367  -0.001808  -0.001812  -0.001812   0.712589
               7
     1  C   -0.023890
     2  Cl  -0.002367
     3  H   -0.001808
     4  H   -0.001812
     5  H   -0.001812
     6  C    0.712589
     7  N    6.880155
 Mulliken charges:
               1
     1  C   -0.349291
     2  Cl  -0.478049
     3  H    0.212112
     4  H    0.212106
     5  H    0.212106
     6  C   -0.247930
     7  N   -0.561055
 Sum of Mulliken charges =  -1.00000
 Mulliken charges with hydrogens summed into heavy atoms:
               1
     1  C    0.287033
     2  Cl  -0.478049
     6  C   -0.247930
     7  N   -0.561055
 APT charges:
               1
     1  C    1.145179
     2  Cl  -1.002298
     3  H   -0.013894
     4  H   -0.013880
     5  H   -0.013882
     6  C   -0.456550
     7  N   -0.644675
 Sum of APT charges =  -1.00000
 APT charges with hydrogens summed into heavy atoms:
               1
     1  C    1.103524
     2  Cl  -1.002298
     6  C   -0.456550
     7  N   -0.644675
 Electronic spatial extent (au):  <R**2>=            844.7556
 Charge=             -1.0000 electrons
 Dipole moment (field-independent basis, Debye):
    X=             -5.3940    Y=              0.0000    Z=             -0.0004  Tot=              5.3940
 Quadrupole moment (field-independent basis, Debye-Ang):
   XX=            -87.8712   YY=            -35.2719   ZZ=            -35.2725
   XY=              0.0001   XZ=             -0.0008   YZ=              0.0000
 Traceless Quadrupole moment (field-independent basis, Debye-Ang):
   XX=            -35.0660   YY=             17.5333   ZZ=             17.5327
   XY=              0.0001   XZ=             -0.0008   YZ=              0.0000
 Octapole moment (field-independent basis, Debye-Ang**2):
  XXX=           -131.7644  YYY=             -0.0073  ZZZ=             -1.0438  XYY=             -7.2538
  XXY=              0.0003  XXZ=             -0.0077  XZZ=             -7.2542  YZZ=              0.0073
  YYZ=              1.0453  XYZ=              0.0000
 Hexadecapole moment (field-independent basis, Debye-Ang**3):
 XXXX=          -1755.4710 YYYY=            -55.4140 ZZZZ=            -55.4133 XXXY=              0.0013
 XXXZ=             -0.0348 YYYX=             -0.0010 YYYZ=              0.0000 ZZZX=             -0.1476
 ZZZY=             -0.0000 XXYY=           -216.0370 XXZZ=           -216.0369 YYZZ=            -18.4718
 XXYZ=              0.0000 YYXZ=              0.1482 ZZXY=              0.0011
 N-N= 1.087658269724D+02 E-N=-1.627633054382D+03  KE= 5.902303084324D+02
  Exact polarizability: 121.312  -0.000  38.826   0.002   0.000  38.826
 Approx polarizability: 156.203  -0.000  48.704   0.005   0.000  48.703
 No NMR shielding tensors so no spin-rotation constants.
 Leave Link  601 at Sun Oct 13 09:50:59 2024, MaxMem=  2684354560 cpu:               2.6 elap:               0.1
 (Enter /usr/local/g16_AVX//g16/l701.exe)
 ... and contract with generalized density number  0.
 Compute integral second derivatives.
 Leave Link  701 at Sun Oct 13 09:50:59 2024, MaxMem=  2684354560 cpu:               4.9 elap:               0.2
 (Enter /usr/local/g16_AVX//g16/l702.exe)
 L702 exits ... SP integral derivatives will be done elsewhere.
 Leave Link  702 at Sun Oct 13 09:50:59 2024, MaxMem=  2684354560 cpu:               0.6 elap:               0.0
 (Enter /usr/local/g16_AVX//g16/l703.exe)
 Integral derivatives from FoFJK, PRISM(SPDF).
 Compute integral second derivatives, UseDBF=F ICtDFT=           0.
 Calling FoFJK, ICntrl=    100127 FMM=F ISym2X=0 I1Cent= 0 IOpClX= 0 NMat=1 NMatS=1 NMatT=0.
 FoFJK:  IHMeth= 1 ICntrl=  100127 DoSepK=F KAlg= 0 I1Cent=           0 FoldK=F
 IRaf=         0 NMat=       1 IRICut=       1 DoRegI=T DoRafI=F ISym2E= 0 IDoP0=0 IntGTp=1.
 FoFCou: FMM=F IPFlag=           0 FMFlag=      100000 FMFlg1=         800
         NFxFlg=           0 DoJE=F BraDBF=F KetDBF=F FulRan=T
         wScrn=  0.000000 ICntrl=    100127 IOpCl=  0 I1Cent=           0 NGrid=           0
         NMat0=    1 NMatS0=      1 NMatT0=    0 NMatD0=    1 NMtDS0=    0 NMtDT0=    0
 Symmetry not used in FoFCou.
 Leave Link  703 at Sun Oct 13 09:51:02 2024, MaxMem=  2684354560 cpu:              66.4 elap:               2.6
 (Enter /usr/local/g16_AVX//g16/l716.exe)
 Dipole        =-2.12214461D+00 6.96989895D-06-1.64900487D-04
 Polarizability= 1.21312494D+02-2.87600432D-05 3.88259281D+01
                 2.32369747D-03 1.17584600D-07 3.88261359D+01
 Full mass-weighted force constant matrix:
 Low frequencies --- -346.6855  -22.2723  -22.2610    0.0038    0.0038    0.0042
 Low frequencies ---   45.1088   45.1455  116.5474
 ******    1 imaginary frequencies (negative Signs) ****** 
 Diagonal vibrational polarizability:
      243.6220615      51.6251303      51.5384148
 Harmonic frequencies (cm**-1), IR intensities (KM/Mole), Raman scattering
 activities (A**4/AMU), depolarization ratios for plane and unpolarized
 incident light, reduced masses (AMU), force constants (mDyne/A),
 and normal coordinates:
                      1                      2                      3
                      A                      A                      A
 Frequencies --   -346.6855                42.7767                42.8093
 Red. masses --     11.8008                 8.3690                 8.3697
 Frc consts  --      0.8357                 0.0090                 0.0090
 IR Inten    --   1064.6149                 3.1436                 3.1425
  Atom  AN      X      Y      Z        X      Y      Z        X      Y      Z
     1   6     0.89   0.00  -0.00    -0.00  -0.31  -0.00     0.00   0.00  -0.31
     2  17    -0.14  -0.00   0.00    -0.00   0.12   0.00     0.00  -0.00   0.12
     3   1     0.12   0.00  -0.09    -0.00  -0.34  -0.00    -0.20   0.00  -0.34
     4   1     0.12   0.08   0.05     0.17  -0.34   0.00     0.10   0.00  -0.34
     5   1     0.12  -0.08   0.05    -0.17  -0.34  -0.00     0.10  -0.00  -0.34
     6   6    -0.24  -0.00   0.00    -0.00  -0.51  -0.00     0.00   0.00  -0.51
     7   7    -0.24   0.00  -0.00     0.00   0.48   0.00    -0.00  -0.00   0.48
                      4                      5                      6
                      A                      A                      A
 Frequencies --    233.4366               253.7224               253.7383
 Red. masses --     18.2126                 4.9585                 4.9584
 Frc consts  --      0.5847                 0.1881                 0.1881
 IR Inten    --      6.5931                12.7473                12.7477
  Atom  AN      X      Y      Z        X      Y      Z        X      Y      Z
     1   6    -0.13  -0.00   0.00    -0.00   0.45   0.01     0.00  -0.01   0.45
     2  17     0.49   0.00  -0.00     0.00  -0.09  -0.00    -0.00   0.00  -0.09
     3   1     0.05  -0.00   0.03     0.00   0.46   0.01     0.05  -0.01   0.47
     4   1     0.05  -0.02  -0.01    -0.04   0.47   0.01    -0.02  -0.01   0.47
     5   1     0.05   0.02  -0.01     0.04   0.47   0.01    -0.02  -0.01   0.47
     6   6    -0.60   0.00  -0.00    -0.00  -0.36  -0.01     0.00   0.01  -0.36
     7   7    -0.61   0.00  -0.00    -0.00   0.06   0.00     0.00  -0.00   0.06
                      7                      8                      9
                      A                      A                      A
 Frequencies --    979.9096               980.0114              1099.8517
 Red. masses --      1.0352                 1.0352                 1.0505
 Frc consts  --      0.5856                 0.5858                 0.7487
 IR Inten    --      0.0202                 0.0203                88.6782
  Atom  AN      X      Y      Z        X      Y      Z        X      Y      Z
     1   6    -0.00  -0.00  -0.04     0.00  -0.04   0.00    -0.04  -0.00   0.00
     2  17    -0.00   0.00   0.01     0.00   0.01  -0.00    -0.02   0.00  -0.00
     3   1     0.81   0.00   0.07    -0.01   0.10  -0.00     0.57  -0.00   0.07
     4   1    -0.41  -0.01   0.09    -0.69   0.08  -0.01     0.57  -0.06  -0.04
     5   1    -0.39   0.01   0.09     0.70   0.08   0.01     0.57   0.06  -0.04
     6   6     0.00  -0.00  -0.02     0.00  -0.02   0.00    -0.01  -0.00   0.00
     7   7    -0.00   0.00   0.00     0.00   0.00  -0.00    -0.02   0.00  -0.00
                     10                     11                     12
                      A                      A                      A
 Frequencies --   1415.8858              1415.9306              2176.1990
 Red. masses --      1.0954                 1.0954                12.7580
 Frc consts  --      1.2938                 1.2939                35.5984
 IR Inten    --      4.5223                 4.5201                 3.2232
  Atom  AN      X      Y      Z        X      Y      Z        X      Y      Z
     1   6    -0.00  -0.00  -0.09     0.00  -0.09   0.00     0.00  -0.00   0.00
     2  17    -0.00  -0.00  -0.00     0.00  -0.00   0.00    -0.00  -0.00   0.00
     3   1    -0.13   0.02  -0.09     0.00   0.80   0.00    -0.05   0.00  -0.01
     4   1     0.07  -0.38   0.57     0.11   0.14  -0.40    -0.05   0.01   0.00
     5   1     0.06   0.39   0.58    -0.11   0.12   0.37    -0.05  -0.01   0.00
     6   6    -0.00   0.00   0.00     0.00   0.00  -0.00     0.76  -0.00   0.00
     7   7    -0.00   0.00   0.00     0.00   0.00  -0.00    -0.64   0.00  -0.00
                     13                     14                     15
                      A                      A                      A
 Frequencies --   3181.9297              3368.8811              3368.9915
 Red. masses --      1.0110                 1.1217                 1.1217
 Frc consts  --      6.0311                 7.5004                 7.5008
 IR Inten    --      1.3200                 1.2171                 1.2144
  Atom  AN      X      Y      Z        X      Y      Z        X      Y      Z
     1   6     0.02   0.00   0.00     0.00  -0.10  -0.00    -0.00   0.00  -0.10
     2  17    -0.00  -0.00  -0.00    -0.00   0.00   0.00    -0.00  -0.00   0.00
     3   1    -0.07  -0.00   0.57    -0.00  -0.01   0.02    -0.11  -0.00   0.80
     4   1    -0.07  -0.50  -0.29     0.10   0.61   0.36     0.05   0.34   0.18
     5   1    -0.07   0.50  -0.29    -0.09   0.59  -0.35     0.06  -0.37   0.20
     6   6     0.00  -0.00  -0.00     0.00   0.00   0.00     0.00  -0.00   0.00
     7   7     0.00   0.00   0.00     0.00  -0.00  -0.00     0.00   0.00  -0.00

 -------------------
 - Thermochemistry -
 -------------------
 Temperature   298.150 Kelvin.  Pressure   1.00000 Atm.
 Atom     1 has atomic number  6 and mass  12.00000
 Atom     2 has atomic number 17 and mass  34.96885
 Atom     3 has atomic number  1 and mass   1.00783
 Atom     4 has atomic number  1 and mass   1.00783
 Atom     5 has atomic number  1 and mass   1.00783
 Atom     6 has atomic number  6 and mass  12.00000
 Atom     7 has atomic number  7 and mass  14.00307
 Molecular mass:    75.99540 amu.
 Principal axes and moments of inertia in atomic units:
                           1         2         3
     Eigenvalues --    12.279351452.373451452.37459
           X            1.00000   0.00000  -0.00000
           Y           -0.00000   0.99996  -0.00843
           Z            0.00000   0.00843   0.99996
 This molecule is an asymmetric top.
 Rotational symmetry number  1.
 Rotational temperatures (Kelvin)      7.05363     0.05964     0.05964
 Rotational constants (GHZ):         146.97373     1.24262     1.24261
    1 imaginary frequencies ignored.
 Zero-point vibrational energy     112533.2 (Joules/Mol)
                                   26.89607 (Kcal/Mol)
 Warning -- explicit consideration of   5 degrees of freedom as
           vibrations may cause significant error
 Vibrational temperatures:     61.55    61.59   335.86   365.05   365.07
          (Kelvin)           1409.87  1410.02  1582.44  2037.14  2037.21
                             3131.06  4578.09  4847.07  4847.23
 
 Zero-point correction=                           0.042862 (Hartree/Particle)
 Thermal correction to Energy=                    0.048986
 Thermal correction to Enthalpy=                  0.049930
 Thermal correction to Gibbs Free Energy=         0.012169
 Sum of electronic and zero-point Energies=           -592.944469
 Sum of electronic and thermal Energies=              -592.938345
 Sum of electronic and thermal Enthalpies=            -592.937400
 Sum of electronic and thermal Free Energies=         -592.975162
 
                     E (Thermal)             CV                S
                      KCal/Mol        Cal/Mol-Kelvin    Cal/Mol-Kelvin
 Total                   30.739             16.511             79.475
 Electronic               0.000              0.000              0.000
 Translational            0.889              2.981             38.900
 Rotational               0.889              2.981             24.764
 Vibrational             28.962             10.549             15.812
 Vibration     1          0.595              1.980              5.126
 Vibration     2          0.595              1.980              5.125
 Vibration     3          0.654              1.790              1.852
 Vibration     4          0.665              1.757              1.705
 Vibration     5          0.665              1.756              1.704
                       Q            Log10(Q)             Ln(Q)
 Total Bot       0.252782D-05         -5.597254        -12.888154
 Total V=0       0.131130D+15         14.117702         32.507211
 Vib (Bot)       0.168500D-17        -17.773401        -40.924767
 Vib (Bot)    1  0.483574D+01          0.684463          1.576035
 Vib (Bot)    2  0.483204D+01          0.684131          1.575269
 Vib (Bot)    3  0.842456D+00         -0.074453         -0.171433
 Vib (Bot)    4  0.767867D+00         -0.114714         -0.264138
 Vib (Bot)    5  0.767813D+00         -0.114744         -0.264209
 Vib (V=0)       0.874089D+02          1.941556          4.470597
 Vib (V=0)    1  0.536152D+01          0.729288          1.679248
 Vib (V=0)    2  0.535784D+01          0.728990          1.678561
 Vib (V=0)    3  0.147966D+01          0.170162          0.391812
 Vib (V=0)    4  0.141631D+01          0.151158          0.348053
 Vib (V=0)    5  0.141626D+01          0.151144          0.348021
 Electronic      0.100000D+01          0.000000          0.000000
 Translational   0.260396D+08          7.415635         17.075130
 Rotational      0.576118D+05          4.760512         10.961483
 
                                                       RxCoord=0.49987 DE=54.64
                                                             IR Spectrum
 
      3      3                                    2                            1           1                                         
      3      1                                    1                            4           1    9                          22        
      6      8                                    7                            1           0    8                          53      4 
      9      2                                    6                            6           0    0                          43      3 
 
      X      X                                    X                            X           X                               XX      X 
                                                                               X           X                               X         
                                                                                           X                               X         
                                                                                           X                               X         
                                                                                           X                               X         
                                                                                           X                               X         
                                                                                           X                                         
                                                                                           X                                         
                                                                                           X                                         
                                                                                           X                                         
                                                                                           X                                         
                                                                                           X                                         
                                                                                           X                                         
                                                                                           X                                         
                                                                                           X                                         
                                                                                           X                                         
                                                                                           X                                         
                                                                                           X                                         
                                                                                           X                                         
                                                                                           X                                         
 
 -------------------------------------------------------------------
 Center     Atomic                   Forces (Hartrees/Bohr)
 Number     Number              X              Y              Z
 -------------------------------------------------------------------
      1        6          -0.006575011    0.000000128    0.000003141
      2       17           0.001691761    0.000000260    0.000003021
      3        1           0.000249669   -0.000002272    0.001022731
      4        1           0.000240996   -0.000908072   -0.000516069
      5        1           0.000241691    0.000910001   -0.000511372
      6        6           0.001407524   -0.000000056   -0.000001540
      7        7           0.002743370    0.000000010    0.000000088
 -------------------------------------------------------------------
 Cartesian Forces:  Max     0.006575011 RMS     0.001676240
 Z-matrix is all fixed cartesians, so copy forces.
 Force constants in Cartesian coordinates: 
                1             2             3             4             5 
      1 -0.188449D-01
      2  0.000000D+00  0.673208D+00
      3  0.724827D-04  0.000000D+00  0.673189D+00
      4  0.329036D-01  0.000000D+00 -0.387475D-05  0.550346D-01
      5  0.000000D+00 -0.230130D-01  0.000000D+00  0.000000D+00  0.124518D-01
      6 -0.645472D-05  0.000000D+00 -0.230109D-01 -0.188194D-05  0.000000D+00
      7 -0.173789D-01 -0.111552D-03  0.478742D-01 -0.204867D-01 -0.266483D-04
      8 -0.102134D-03 -0.531637D-01  0.743440D-03  0.996306D-05  0.314542D-03
      9  0.437256D-01  0.743516D-03 -0.372208D+00 -0.426912D-02 -0.103411D-04
     10 -0.174032D-01 -0.414616D-01 -0.240664D-01 -0.204855D-01 -0.983654D-02
     11 -0.378701D-01 -0.291778D+00 -0.138480D+00  0.369338D-02  0.363798D-02
     12 -0.219833D-01 -0.138475D+00 -0.133537D+00  0.214507D-02  0.192923D-02
     13 -0.174026D-01  0.415726D-01 -0.238717D-01 -0.204861D-01  0.986315D-02
     14  0.379715D-01 -0.293067D+00  0.137738D+00 -0.370331D-02  0.365582D-02
     15 -0.218057D-01  0.137732D+00 -0.132249D+00  0.212787D-02 -0.191876D-02
     16  0.179856D-01  0.000000D+00  0.000000D+00 -0.161399D-01  0.000000D+00
     17  0.000000D+00 -0.155716D-01  0.000000D+00  0.000000D+00  0.355548D-02
     18 -0.144564D-04  0.000000D+00 -0.155701D-01  0.822383D-05  0.000000D+00
     19  0.201405D-01  0.000000D+00 -0.373650D-05 -0.103401D-01  0.000000D+00
     20  0.000000D+00  0.338567D-02  0.000000D+00  0.000000D+00 -0.602601D-03
     21  0.117445D-04  0.000000D+00  0.338597D-02 -0.628634D-05  0.000000D+00
                6             7             8             9            10 
      6  0.124560D-01
      7  0.113754D-01  0.453981D-01
      8 -0.102554D-04  0.104935D-03  0.454955D-01
      9  0.475486D-02 -0.449588D-01 -0.778182D-03  0.379395D+00
     10 -0.570760D-02  0.175290D-02  0.313956D-02  0.263924D-02  0.454252D-01
     11  0.192841D-02 -0.696385D-03  0.419032D-02  0.379931D-02  0.389376D-01
     12  0.143260D-02 -0.404516D-02 -0.235511D-01 -0.733427D-02  0.225971D-01
     13 -0.566185D-02  0.175288D-02 -0.315181D-02  0.262454D-02  0.175142D-02
     14 -0.191799D-02  0.715204D-03  0.409795D-02 -0.374598D-02  0.385430D-02
     15  0.141471D-02 -0.404180D-02  0.236044D-01 -0.724190D-02  0.142179D-02
     16  0.115607D-05 -0.948983D-02  0.000000D+00 -0.349431D-03 -0.949246D-02
     17  0.000000D+00  0.166775D-04 -0.126622D-02 -0.111481D-04  0.620708D-02
     18  0.355530D-02 -0.717429D-02 -0.111135D-04  0.351910D-02  0.360488D-02
     19  0.119511D-05 -0.154844D-02 -0.135612D-05  0.587962D-03 -0.154837D-02
     20  0.000000D+00 -0.223104D-05  0.331585D-03  0.282480D-05 -0.840450D-03
     21 -0.602570D-03  0.970440D-03  0.283127D-05 -0.885228D-03 -0.489073D-03
               11            12            13            14            15 
     11  0.295213D+00
     12  0.144930D+00  0.129614D+00
     13 -0.386089D-02  0.140381D-02  0.454251D-01
     14 -0.129988D-01  0.136191D-01 -0.390419D-01  0.296563D+00
     15 -0.137257D-01  0.986085D-02  0.224144D-01 -0.144153D+00  0.128266D+00
     16  0.304135D-03  0.177178D-03 -0.949237D-02 -0.304908D-03  0.175742D-03
     17  0.231382D-02  0.207576D-02 -0.622390D-02  0.233319D-02 -0.206459D-02
     18  0.207702D-02 -0.602765D-04  0.357594D-02 -0.206588D-02 -0.795924D-04
     19 -0.507758D-03 -0.294752D-03 -0.154836D-02  0.509125D-03 -0.292359D-03
     20 -0.578751D-03 -0.528224D-03  0.842784D-03 -0.583694D-03  0.525390D-03
     21 -0.528512D-03  0.245090D-04 -0.485140D-03  0.525669D-03  0.294250D-04
               16            17            18            19            20 
     16  0.117766D+01
     17 -0.136769D-04  0.110036D-01
     18  0.434869D-03  0.000000D+00  0.110041D-01
     19 -0.115104D+01  0.135047D-04 -0.435173D-03  0.114588D+01
     20  0.136393D-04 -0.236821D-02  0.000000D+00 -0.135613D-04  0.416001D-03
     21 -0.438548D-03  0.000000D+00 -0.236851D-02  0.436863D-03  0.000000D+00
               21 
     21  0.416398D-03
 Leave Link  716 at Sun Oct 13 09:51:02 2024, MaxMem=  2684354560 cpu:               0.8 elap:               0.1
 (Enter /usr/local/g16_AVX//g16/l103.exe)

 GradGradGradGradGradGradGradGradGradGradGradGradGradGradGradGradGradGrad
 Berny optimization.
 Search for a local minimum.
 Step number   1 out of a maximum of    2
 All quantities printed in internal units (Hartrees-Bohrs-Radians)
 Second derivative matrix not updated -- analytic derivatives used.
 ITU=  0
     Eigenvalues ---   -0.05769   0.00073   0.00073   0.01694   0.01694
     Eigenvalues ---    0.03672   0.04343   0.04344   0.07849   0.10720
     Eigenvalues ---    0.10721   0.39874   0.98317   0.98318   2.31197
 Eigenvalue     1 is  -5.77D-02 should be greater than     0.000000 Eigenvector:
                          X1        X2        X7        X6        Z3
   1                    0.88565  -0.25911  -0.24596  -0.24223  -0.08658
                          Y5        Y4        X4        X5        X3
   1                   -0.07511   0.07491   0.04770   0.04770   0.04764
 Angle between quadratic step and forces=   8.39 degrees.
 Linear search not attempted -- first point.
 B after Tr=     0.002687    0.000011   -0.000167
         Rot=    1.000000    0.000000    0.000005    0.000001 Ang=   0.00 deg.
 Variable       Old X    -DE/DX   Delta X   Delta X   Delta X     New X
                                 (Linear)    (Quad)   (Total)
    X1       -0.10825  -0.00658   0.00000  -0.11748  -0.11479  -0.22304
    Y1        0.00001   0.00000   0.00000  -0.00003  -0.00001  -0.00000
    Z1       -0.00026   0.00000   0.00000   0.00032   0.00015  -0.00011
    X2       -4.14034   0.00169   0.00000   0.02925   0.03194  -4.10840
    Y2       -0.00000   0.00000   0.00000   0.00003   0.00004   0.00004
    Z2        0.00010   0.00000   0.00000  -0.00037  -0.00058  -0.00048
    X3        0.17937   0.00025   0.00000   0.00258   0.00529   0.18465
    Y3        0.00471  -0.00000   0.00000  -0.00006  -0.00005   0.00466
    Z3       -2.01554   0.00102   0.00000   0.01370   0.01353  -2.00201
    X4        0.17984   0.00024   0.00000   0.00188   0.00456   0.18440
    Y4        1.74302  -0.00091   0.00000  -0.01167  -0.01166   1.73136
    Z4        1.01129  -0.00052   0.00000  -0.00622  -0.00639   1.00490
    X5        0.17983   0.00024   0.00000   0.00186   0.00454   0.18436
    Y5       -1.74769   0.00091   0.00000   0.01164   0.01165  -1.73604
    Z5        1.00315  -0.00051   0.00000  -0.00617  -0.00633   0.99682
    X6        4.39919   0.00141   0.00000   0.03107   0.03376   4.43294
    Y6        0.00001  -0.00000   0.00000  -0.00005  -0.00004  -0.00003
    Z6       -0.00043  -0.00000   0.00000   0.00075   0.00063   0.00020
    X7        6.62343   0.00274   0.00000   0.03203   0.03472   6.65815
    Y7       -0.00002   0.00000   0.00000   0.00006   0.00006   0.00005
    Z7        0.00042   0.00000   0.00000  -0.00091  -0.00101  -0.00059
         Item               Value     Threshold  Converged?
 Maximum Force            0.006575     0.000450     NO 
 RMS     Force            0.001676     0.000300     NO 
 Maximum Displacement     0.114795     0.001800     NO 
 RMS     Displacement     0.028577     0.001200     NO 
 Predicted change in Energy=-1.476335D-03
 GradGradGradGradGradGradGradGradGradGradGradGradGradGradGradGradGradGrad

 Leave Link  103 at Sun Oct 13 09:51:02 2024, MaxMem=  2684354560 cpu:               0.6 elap:               0.0
 (Enter /usr/local/g16_AVX//g16/l9999.exe)

 ----------------------------------------------------------------------

 Electric dipole moment (input orientation):
 (Debye = 10**-18 statcoulomb cm , SI units = C m)
                  (au)            (Debye)         (10**-30 SI)
   Tot        0.212214D+01      0.539395D+01      0.179923D+02
   x         -0.212214D+01     -0.539395D+01     -0.179923D+02
   y          0.000000D+00      0.000000D+00      0.000000D+00
   z         -0.164900D-03     -0.419135D-03     -0.139808D-02

 Dipole polarizability, Alpha (input orientation).
 (esu units = cm**3 , SI units = C**2 m**2 J**-1)
 Alpha(0;0):
               (au)            (10**-24 esu)      (10**-40 SI)
   iso        0.663215D+02      0.982784D+01      0.109349D+02
   aniso      0.824865D+02      0.122232D+02      0.136002D+02
   xx         0.121312D+03      0.179767D+02      0.200017D+02
   yx        -0.287600D-04     -0.426180D-05     -0.474189D-05
   yy         0.388259D+02      0.575341D+01      0.640153D+01
   zx         0.232370D-02      0.344336D-03      0.383126D-03
   zy         0.000000D+00      0.000000D+00      0.000000D+00
   zz         0.388261D+02      0.575344D+01      0.640157D+01

 ----------------------------------------------------------------------

 Dipole orientation:
     6         -0.00025426          0.00001098          0.10824920
    17          0.00042188         -0.00001738          4.14033701
     1         -2.01555801          0.00471641         -0.17921050
     1          1.01128246          1.74301451         -0.17990864
     1          1.00312817         -1.74769701         -0.17991003
     6         -0.00077080          0.00002579         -4.39918600
     7         -0.00009137          0.00000664         -6.62342961

 Electric dipole moment (dipole orientation):
 (Debye = 10**-18 statcoulomb cm , SI units = C m)
                  (au)            (Debye)         (10**-30 SI)
   Tot        0.212214D+01      0.539395D+01      0.179923D+02
   x          0.000000D+00      0.000000D+00      0.000000D+00
   y          0.000000D+00      0.000000D+00      0.000000D+00
   z          0.212214D+01      0.539395D+01      0.179923D+02

 Dipole polarizability, Alpha (dipole orientation).
 (esu units = cm**3 , SI units = C**2 m**2 J**-1)
 Alpha(0;0):
               (au)            (10**-24 esu)      (10**-40 SI)
   iso        0.663215D+02      0.982784D+01      0.109349D+02
   aniso      0.824865D+02      0.122232D+02      0.136002D+02
   xx         0.388261D+02      0.575344D+01      0.640157D+01
   yx         0.000000D+00      0.000000D+00      0.000000D+00
   yy         0.388259D+02      0.575341D+01      0.640153D+01
   zx         0.408587D-02      0.605464D-03      0.673670D-03
   zy        -0.242169D-03     -0.358858D-04     -0.399283D-04
   zz         0.121312D+03      0.179767D+02      0.200017D+02

 ----------------------------------------------------------------------
 1\1\GINC-NODO7\Freq\RB3LYP\6-31++G(d,p)\C2H3Cl1N1(1-)\ALANQF\13-Oct-20
 24\0\\#p b3lyp 6-31++g(d,p) scf=verytight NoSymm freq=noraman int=ultr
 afine\\RxCoord=0.49987 DE=54.64\\-1,1\C,-0.057283,0.000006,-0.000139\C
 l,-2.190972,-0.000002,0.000053\H,0.094917,0.002492,-1.06658\H,0.095165
 ,0.922365,0.535152\H,0.09516,-0.92484,0.530843\C,2.327949,0.000006,-0.
 000227\N,3.504968,-0.000008,0.000224\\Version=ES64L-G16RevB.01\HF=-592
 .9873304\RMSD=2.721e-09\RMSF=1.676e-03\ZeroPoint=0.0428616\Thermal=0.0
 489857\Dipole=-2.0641208,0.0000069,-0.00018\DipoleDeriv=3.2740075,0.00
 00058,-0.0001711,0.000005,0.0807529,0.0000004,-0.0002797,0.0000003,0.0
 807771,-2.0100361,-0.0000015,0.0000767,-0.0000066,-0.4984298,0.,0.0000
 988,0.,-0.4984281,-0.1499741,0.0000111,-0.005119,0.0000673,0.0694734,0
 .0000711,-0.0287448,0.0000714,0.0388186,-0.149966,0.0044359,0.0025872,
 0.0248896,0.0465684,-0.0133051,0.0144819,-0.0132922,0.0617572,-0.14996
 93,-0.0044497,0.0025667,-0.0249538,0.0464441,0.0132334,0.0143642,0.013
 2203,0.0618805,-0.7020731,-0.0000028,0.0000965,-0.0000133,-0.3337902,0
 .0000001,0.0004711,0.0000001,-0.333788,-1.111989,0.0000012,-0.000037,0
 .0000118,-0.4110189,0.,-0.0003916,0.,-0.4110173\Polar=121.3124938,-0.0
 000288,38.8259281,0.0023237,0.0000001,38.8261359\Quadrupole=-26.070698
 5,13.0355536,13.0351449,0.0000409,-0.0006299,0.000003\PG=C01 [X(C2H3Cl
 1N1)]\NImag=1\\-0.01884487,0.00000018,0.67320780,0.00007248,-0.0000008
 3,0.67318938,0.03290358,0.00000023,-0.00000387,0.05503463,0.00000036,-
 0.02301304,0.,-0.00000019,0.01245183,-0.00000645,-0.00000004,-0.023010
 91,-0.00000188,-0.00000012,0.01245602,-0.01737895,-0.00011155,0.047874
 21,-0.02048668,-0.00002665,0.01137544,0.04539810,-0.00010213,-0.053163
 69,0.00074344,0.00000996,0.00031454,-0.00001026,0.00010494,0.04549551,
 0.04372565,0.00074352,-0.37220799,-0.00426912,-0.00001034,0.00475486,-
 0.04495884,-0.00077818,0.37939544,-0.01740322,-0.04146158,-0.02406640,
 -0.02048546,-0.00983654,-0.00570760,0.00175290,0.00313956,0.00263924,0
 .04542519,-0.03787013,-0.29177765,-0.13848036,0.00369338,0.00363798,0.
 00192841,-0.00069638,0.00419032,0.00379931,0.03893764,0.29521305,-0.02
 198329,-0.13847465,-0.13353693,0.00214507,0.00192923,0.00143260,-0.004
 04516,-0.02355108,-0.00733427,0.02259715,0.14492988,0.12961352,-0.0174
 0265,0.04157257,-0.02387172,-0.02048606,0.00986315,-0.00566185,0.00175
 288,-0.00315181,0.00262454,0.00175142,-0.00386089,0.00140381,0.0454251
 3,0.03797152,-0.29306747,0.13773776,-0.00370331,0.00365582,-0.00191799
 ,0.00071520,0.00409795,-0.00374598,0.00385430,-0.01299877,0.01361909,-
 0.03904192,0.29656296,-0.02180567,0.13773201,-0.13224942,0.00212787,-0
 .00191876,0.00141471,-0.00404180,0.02360436,-0.00724190,0.00142179,-0.
 01372575,0.00986085,0.02241442,-0.14415266,0.12826593,0.01798558,0.000
 00004,-0.00000097,-0.01613989,-0.00000007,0.00000116,-0.00948983,0.000
 00084,-0.00034943,-0.00949246,0.00030414,0.00017718,-0.00949237,-0.000
 30491,0.00017574,1.17766459,0.00000058,-0.01557163,-0.00000001,-0.0000
 0027,0.00355548,0.,0.00001668,-0.00126622,-0.00001115,0.00620708,0.002
 31382,0.00207576,-0.00622390,0.00233319,-0.00206459,-0.00001368,0.0110
 0357,-0.00001446,-0.00000002,-0.01557011,0.00000822,0.,0.00355530,-0.0
 0717429,-0.00001111,0.00351910,0.00360488,0.00207702,-0.00006028,0.003
 57594,-0.00206588,-0.00007959,0.00043487,-0.00000001,0.01100409,0.0201
 4051,0.00000011,-0.00000374,-0.01034012,-0.00000006,0.00000120,-0.0015
 4844,-0.00000136,0.00058796,-0.00154837,-0.00050776,-0.00029475,-0.001
 54836,0.00050913,-0.00029236,-1.15103563,0.00001350,-0.00043517,1.1458
 8041,-0.00000038,0.00338567,0.,0.00000020,-0.00060260,0.,-0.00000223,0
 .00033159,0.00000282,-0.00084045,-0.00057875,-0.00052822,0.00084278,-0
 .00058369,0.00052539,0.00001364,-0.00236821,0.,-0.00001356,0.00041600,
 0.00001174,0.00000001,0.00338597,-0.00000629,0.,-0.00060257,0.00097044
 ,0.00000283,-0.00088523,-0.00048907,-0.00052851,0.00002451,-0.00048514
 ,0.00052567,0.00002943,-0.00043855,0.,-0.00236851,0.00043686,0.,0.0004
 1640\\0.00657501,-0.00000013,-0.00000314,-0.00169176,-0.00000026,-0.00
 000302,-0.00024967,0.00000227,-0.00102273,-0.00024100,0.00090807,0.000
 51607,-0.00024169,-0.00091000,0.00051137,-0.00140752,0.00000006,0.0000
 0154,-0.00274337,-0.00000001,-0.00000009\\\@


 FROM AN ANONYMOUS WRITER, ON PERSPECTIVE:

 MAN, DESPITE HIS ARTISTIC PRETENSIONS, HIS SOPHISTICATION AND MANY 
 ACCOMPLISHMENTS, OWES THE FACT OF HIS EXISTENCE TO A SIX-INCH LAYER OF 
 TOPSOIL AND THE FACT THAT IT RAINS.
 Job cpu time:       0 days  0 hours  3 minutes 46.6 seconds.
 Elapsed time:       0 days  0 hours  0 minutes  9.7 seconds.
 File lengths (MBytes):  RWF=     88 Int=      0 D2E=      0 Chk=      2 Scr=      2
 Normal termination of Gaussian 16 at Sun Oct 13 09:51:02 2024.
