RxCoord=0.49987 DE=54.64                                                
Freq      RB3LYP                                                      6-31++G(d,p)        
Number of atoms                            I                7
Info1-9                                    I   N=           9
          16          16           0           0           0         100
           6          18        -502
Full Title                                 C   N=           2
RxCoord=0.49987 DE=54.64
Route                                      C   N=           6
#p b3lyp 6-31++g(d,p) scf=verytight NoSymm freq=noraman int=
ultrafine   
Charge                                     I               -1
Multiplicity                               I                1
Number of electrons                        I               40
Number of alpha electrons                  I               20
Number of beta electrons                   I               20
Number of basis functions                  I               98
Number of independent functions            I               98
Number of point charges in /Mol/           I                0
Number of translation vectors              I                0
Atomic numbers                             I   N=           7
           6          17           1           1           1           6
           7
Nuclear charges                            R   N=           7
  6.00000000E+00  1.70000000E+01  1.00000000E+00  1.00000000E+00  1.00000000E+00
  6.00000000E+00  7.00000000E+00
Current cartesian coordinates              R   N=          21
 -1.08249182E-01  1.13383567E-05 -2.62671931E-04 -4.14033703E+00 -3.77945225E-06
  1.00155485E-04  1.79367135E-01  4.70919750E-03 -2.01554409E+00  1.79835787E-01
  1.74301724E+00  1.01129072E+00  1.79826338E-01 -1.74769431E+00  1.00314789E+00
  4.39918604E+00  1.13383567E-05 -4.28967830E-04  6.62342960E+00 -1.51178090E-05
  4.23298652E-04
Number of symbols in /Mol/                 I                0
Force Field                                I                0
Atom Types                                 C   N=           7
                                                            
                        
Int Atom Types                             I   N=           7
           0           0           0           0           0           0
           0
MM charges                                 R   N=           7
  0.00000000E+00  0.00000000E+00  0.00000000E+00  0.00000000E+00  0.00000000E+00
  0.00000000E+00  0.00000000E+00
Integer atomic weights                     I   N=           7
          12          35           1           1           1          12
          14
Real atomic weights                        R   N=           7
  1.20000000E+01  3.49688527E+01  1.00782504E+00  1.00782504E+00  1.00782504E+00
  1.20000000E+01  1.40030740E+01
Atom fragment info                         I   N=           7
           0           0           0           0           0           0
           0
Atom residue num                           I   N=           7
           0           0           0           0           0           0
           0
Nuclear spins                              I   N=           7
           0           3           1           1           1           0
           2
Nuclear ZEff                               R   N=           7
 -3.60000000E+00 -1.42400000E+01 -1.00000000E+00 -1.00000000E+00 -1.00000000E+00
 -3.60000000E+00 -4.55000000E+00
Nuclear ZNuc                               R   N=           7
  6.00000000E+00  1.70000000E+01  1.00000000E+00  1.00000000E+00  1.00000000E+00
  6.00000000E+00  7.00000000E+00
Nuclear QMom                               R   N=           7
  0.00000000E+00 -8.16500000E+00  0.00000000E+00  0.00000000E+00  0.00000000E+00
  0.00000000E+00  2.04400000E+00
Nuclear GFac                               R   N=           7
  0.00000000E+00  8.21874000E-01  2.79284600E+00  2.79284600E+00  2.79284600E+00
  0.00000000E+00  4.03761000E-01
MicOpt                                     I   N=           7
          -1          -1          -1          -1          -1          -1
          -1
Number of residues                         I                0
Number of secondary structures             I                0
Number of contracted shells                I               33
Number of primitive shells                 I               72
Pure/Cartesian d shells                    I                1
Pure/Cartesian f shells                    I                0
Highest angular momentum                   I                2
Largest degree of contraction              I                6
Shell types                                I   N=          33
           0          -1          -1          -1           2           0
          -1          -1          -1          -1           2           0
           0           0           1           0           0           0
           1           0           0           0           1           0
          -1          -1          -1           2           0          -1
          -1          -1           2
Number of primitives per shell             I   N=          33
           6           3           1           1           1           6
           6           3           1           1           1           3
           1           1           1           3           1           1
           1           3           1           1           1           6
           3           1           1           1           6           3
           1           1           1
Shell to atom map                          I   N=          33
           1           1           1           1           1           2
           2           2           2           2           2           3
           3           3           3           4           4           4
           4           5           5           5           5           6
           6           6           6           6           7           7
           7           7           7
Primitive exponents                        R   N=          72
  3.04752488E+03  4.57369518E+02  1.03948685E+02  2.92101553E+01  9.28666296E+00
  3.16392696E+00  7.86827235E+00  1.88128854E+00  5.44249258E-01  1.68714478E-01
  4.38000000E-02  8.00000000E-01  2.51801000E+04  3.78035000E+03  8.60474000E+02
  2.42145000E+02  7.73349000E+01  2.62470000E+01  4.91765000E+02  1.16984000E+02
  3.74153000E+01  1.37834000E+01  5.45215000E+00  2.22588000E+00  3.18649000E+00
  1.14427000E+00  4.20377000E-01  1.42657000E-01  4.83000000E-02  7.50000000E-01
  1.87311370E+01  2.82539436E+00  6.40121692E-01  1.61277759E-01  3.60000000E-02
  1.10000000E+00  1.87311370E+01  2.82539436E+00  6.40121692E-01  1.61277759E-01
  3.60000000E-02  1.10000000E+00  1.87311370E+01  2.82539436E+00  6.40121692E-01
  1.61277759E-01  3.60000000E-02  1.10000000E+00  3.04752488E+03  4.57369518E+02
  1.03948685E+02  2.92101553E+01  9.28666296E+00  3.16392696E+00  7.86827235E+00
  1.88128854E+00  5.44249258E-01  1.68714478E-01  4.38000000E-02  8.00000000E-01
  4.17351146E+03  6.27457911E+02  1.42902093E+02  4.02343293E+01  1.28202129E+01
  4.39043701E+00  1.16263619E+01  2.71627981E+00  7.72218397E-01  2.12031498E-01
  6.39000000E-02  8.00000000E-01
Contraction coefficients                   R   N=          72
  1.83473713E-03  1.40373228E-02  6.88426223E-02  2.32184443E-01  4.67941348E-01
  3.62311985E-01 -1.19332420E-01 -1.60854152E-01  1.14345644E+00  1.00000000E+00
  1.00000000E+00  1.00000000E+00  1.83295985E-03  1.40341988E-02  6.90973943E-02
  2.37451980E-01  4.83033960E-01  3.39855972E-01 -2.29739142E-03 -3.07137189E-02
 -1.12528069E-01  4.50163278E-02  5.89353363E-01  4.65206287E-01 -2.51828028E-01
  6.15892514E-02  1.06018433E+00  1.00000000E+00  1.00000000E+00  1.00000000E+00
  3.34946043E-02  2.34726953E-01  8.13757326E-01  1.00000000E+00  1.00000000E+00
  1.00000000E+00  3.34946043E-02  2.34726953E-01  8.13757326E-01  1.00000000E+00
  1.00000000E+00  1.00000000E+00  3.34946043E-02  2.34726953E-01  8.13757326E-01
  1.00000000E+00  1.00000000E+00  1.00000000E+00  1.83473713E-03  1.40373228E-02
  6.88426223E-02  2.32184443E-01  4.67941348E-01  3.62311985E-01 -1.19332420E-01
 -1.60854152E-01  1.14345644E+00  1.00000000E+00  1.00000000E+00  1.00000000E+00
  1.83477216E-03  1.39946270E-02  6.85865518E-02  2.32240873E-01  4.69069948E-01
  3.60455199E-01 -1.14961182E-01 -1.69117479E-01  1.14585195E+00  1.00000000E+00
  1.00000000E+00  1.00000000E+00
P(S=P) Contraction coefficients            R   N=          72
  0.00000000E+00  0.00000000E+00  0.00000000E+00  0.00000000E+00  0.00000000E+00
  0.00000000E+00  6.89990666E-02  3.16423961E-01  7.44308291E-01  1.00000000E+00
  1.00000000E+00  0.00000000E+00  0.00000000E+00  0.00000000E+00  0.00000000E+00
  0.00000000E+00  0.00000000E+00  0.00000000E+00  3.98940088E-03  3.03177067E-02
  1.29880029E-01  3.27951072E-01  4.53527100E-01  2.52154056E-01 -1.42993147E-02
  3.23572333E-01  7.43507765E-01  1.00000000E+00  1.00000000E+00  0.00000000E+00
  0.00000000E+00  0.00000000E+00  0.00000000E+00  0.00000000E+00  0.00000000E+00
  0.00000000E+00  0.00000000E+00  0.00000000E+00  0.00000000E+00  0.00000000E+00
  0.00000000E+00  0.00000000E+00  0.00000000E+00  0.00000000E+00  0.00000000E+00
  0.00000000E+00  0.00000000E+00  0.00000000E+00  0.00000000E+00  0.00000000E+00
  0.00000000E+00  0.00000000E+00  0.00000000E+00  0.00000000E+00  6.89990666E-02
  3.16423961E-01  7.44308291E-01  1.00000000E+00  1.00000000E+00  0.00000000E+00
  0.00000000E+00  0.00000000E+00  0.00000000E+00  0.00000000E+00  0.00000000E+00
  0.00000000E+00  6.75797439E-02  3.23907296E-01  7.40895140E-01  1.00000000E+00
  1.00000000E+00  0.00000000E+00
Coordinates of each shell                  R   N=          99
 -1.08249182E-01  1.13383567E-05 -2.62671931E-04 -1.08249182E-01  1.13383567E-05
 -2.62671931E-04 -1.08249182E-01  1.13383567E-05 -2.62671931E-04 -1.08249182E-01
  1.13383567E-05 -2.62671931E-04 -1.08249182E-01  1.13383567E-05 -2.62671931E-04
 -4.14033703E+00 -3.77945225E-06  1.00155485E-04 -4.14033703E+00 -3.77945225E-06
  1.00155485E-04 -4.14033703E+00 -3.77945225E-06  1.00155485E-04 -4.14033703E+00
 -3.77945225E-06  1.00155485E-04 -4.14033703E+00 -3.77945225E-06  1.00155485E-04
 -4.14033703E+00 -3.77945225E-06  1.00155485E-04  1.79367135E-01  4.70919750E-03
 -2.01554409E+00  1.79367135E-01  4.70919750E-03 -2.01554409E+00  1.79367135E-01
  4.70919750E-03 -2.01554409E+00  1.79367135E-01  4.70919750E-03 -2.01554409E+00
  1.79835787E-01  1.74301724E+00  1.01129072E+00  1.79835787E-01  1.74301724E+00
  1.01129072E+00  1.79835787E-01  1.74301724E+00  1.01129072E+00  1.79835787E-01
  1.74301724E+00  1.01129072E+00  1.79826338E-01 -1.74769431E+00  1.00314789E+00
  1.79826338E-01 -1.74769431E+00  1.00314789E+00  1.79826338E-01 -1.74769431E+00
  1.00314789E+00  1.79826338E-01 -1.74769431E+00  1.00314789E+00  4.39918604E+00
  1.13383567E-05 -4.28967830E-04  4.39918604E+00  1.13383567E-05 -4.28967830E-04
  4.39918604E+00  1.13383567E-05 -4.28967830E-04  4.39918604E+00  1.13383567E-05
 -4.28967830E-04  4.39918604E+00  1.13383567E-05 -4.28967830E-04  6.62342960E+00
 -1.51178090E-05  4.23298652E-04  6.62342960E+00 -1.51178090E-05  4.23298652E-04
  6.62342960E+00 -1.51178090E-05  4.23298652E-04  6.62342960E+00 -1.51178090E-05
  4.23298652E-04  6.62342960E+00 -1.51178090E-05  4.23298652E-04
Num ILSW                                   I              100
ILSW                                       I   N=         100
           0           1           0           0           2           0
           0           0           0           0         402          -1
           5           0           0           0           2           0
           0           0           0           0           1           0
           1           1           0           0           0           0
           0           0      100000           0          -1           0
           0           0           0           0           0           0
           0           0           0           1           0           0
           0 -2000000000           1           0           0           0
           0           0           4          52           0           0
           0           0           5           0           0           0
           0           0           0           7           0           1
           0           0           0           0           0           0
           0           0           0           0           0           0
           0           0           0           0           0           0
           0           0           0           0           0           0
           0           0           0           0
Num RLSW                                   I               52
RLSW                                       R   N=          52
  8.00000000E-01  7.20000000E-01  1.00000000E+00  8.10000000E-01  2.00000000E-01
  0.00000000E+00  0.00000000E+00  1.00000000E+00  0.00000000E+00  0.00000000E+00
  0.00000000E+00  0.00000000E+00  1.00000000E+00  0.00000000E+00  0.00000000E+00
  0.00000000E+00  0.00000000E+00  1.00000000E+00  0.00000000E+00  0.00000000E+00
  0.00000000E+00  0.00000000E+00  1.00000000E+00  0.00000000E+00  0.00000000E+00
  0.00000000E+00  0.00000000E+00  1.00000000E+00  0.00000000E+00  0.00000000E+00
  0.00000000E+00  0.00000000E+00  1.00000000E+00  0.00000000E+00  0.00000000E+00
  0.00000000E+00  0.00000000E+00  0.00000000E+00  1.00000000E+00  1.00000000E+00
  0.00000000E+00  1.00000000E+00  0.00000000E+00  0.00000000E+00  0.00000000E+00
  0.00000000E+00  0.00000000E+00  0.00000000E+00  0.00000000E+00  0.00000000E+00
  0.00000000E+00  0.00000000E+00
MxBond                                     I                4
NBond                                      I   N=           7
           4           1           1           1           1           1
           1
IBond                                      I   N=          28
           2           3           4           5           1           0
           0           0           1           0           0           0
           1           0           0           0           1           0
           0           0           7           0           0           0
           6           0           0           0
RBond                                      R   N=          28
  1.00000000E+00  1.00000000E+00  1.00000000E+00  1.00000000E+00  1.00000000E+00
  0.00000000E+00  0.00000000E+00  0.00000000E+00  1.00000000E+00  0.00000000E+00
  0.00000000E+00  0.00000000E+00  1.00000000E+00  0.00000000E+00  0.00000000E+00
  0.00000000E+00  1.00000000E+00  0.00000000E+00  0.00000000E+00  0.00000000E+00
  3.00000000E+00  0.00000000E+00  0.00000000E+00  0.00000000E+00  3.00000000E+00
  0.00000000E+00  0.00000000E+00  0.00000000E+00
Virial Ratio                               R      2.004671095171126E+00
SCF Energy                                 R     -5.929873303759974E+02
Total Energy                               R     -5.929873303759974E+02
RMS Force                                  R      1.676239873543037E-03
RMS Density                                R      2.721369572536962E-09
NImag                                      I                1
Job Status                                 I                1
Nuclear derivative order                   I                2
External E-field                           R   N=          35
  0.00000000E+00  0.00000000E+00  0.00000000E+00  0.00000000E+00  0.00000000E+00
  0.00000000E+00  0.00000000E+00  0.00000000E+00  0.00000000E+00  0.00000000E+00
  0.00000000E+00  0.00000000E+00  0.00000000E+00  0.00000000E+00  0.00000000E+00
  0.00000000E+00  0.00000000E+00  0.00000000E+00  0.00000000E+00  0.00000000E+00
  0.00000000E+00  0.00000000E+00  0.00000000E+00  0.00000000E+00  0.00000000E+00
  0.00000000E+00  0.00000000E+00  0.00000000E+00  0.00000000E+00  0.00000000E+00
  0.00000000E+00  0.00000000E+00  0.00000000E+00  0.00000000E+00  0.00000000E+00
IOpCl                                      I                0
IROHF                                      I                0
Alpha Orbital Energies                     R   N=          98
 -1.01356030E+02 -1.41259838E+01 -1.01104371E+01 -9.99542415E+00 -9.27091526E+00
 -7.03230721E+00 -7.02659187E+00 -7.02659180E+00 -6.80605251E-01 -6.37705841E-01
 -5.42172119E-01 -3.05644316E-01 -3.05627862E-01 -2.32117028E-01 -1.89093921E-01
 -1.39480246E-01 -1.39478873E-01 -1.27286591E-01 -1.27286509E-01 -9.53920490E-02
  1.12032394E-01  1.25126855E-01  1.48743934E-01  1.48744482E-01  1.60106920E-01
  1.91033008E-01  2.03685721E-01  2.03688897E-01  2.23132221E-01  2.23135501E-01
  2.47446132E-01  2.47446364E-01  2.50604213E-01  2.58613655E-01  2.58618199E-01
  2.59291644E-01  3.09834574E-01  3.42387434E-01  3.42393660E-01  3.73895829E-01
  3.74041834E-01  3.74050137E-01  3.81356212E-01  4.57329535E-01  4.70065679E-01
  7.34318393E-01  7.68381974E-01  7.68387265E-01  7.70393854E-01  8.00988316E-01
  8.01003560E-01  8.72515814E-01  8.72516896E-01  8.89000029E-01  9.79548278E-01
  9.98119944E-01  1.04213249E+00  1.04214491E+00  1.08189636E+00  1.08190182E+00
  1.09836732E+00  1.09838071E+00  1.12882612E+00  1.17143094E+00  1.17143177E+00
  1.24394032E+00  1.32304208E+00  1.39014488E+00  1.51283241E+00  1.60157589E+00
  1.60159970E+00  1.74944544E+00  1.74944724E+00  1.77101630E+00  1.77101809E+00
  1.83040445E+00  2.12995936E+00  2.14814369E+00  2.14823886E+00  2.17226203E+00
  2.17226908E+00  2.17480353E+00  2.56568558E+00  2.62267166E+00  2.62273072E+00
  2.80388863E+00  2.80389124E+00  2.83056347E+00  2.91850623E+00  2.91862209E+00
  3.25043978E+00  3.45152880E+00  3.57767075E+00  3.57778006E+00  4.19720728E+00
  4.45958240E+00  4.49215093E+00  4.58072082E+00
Alpha MO coefficients                      R   N=        9604
 -1.59313993E-06 -7.51697850E-05 -1.37221752E-05  2.27442350E-11  1.45237222E-09
  1.53923680E-05 -1.24403731E-04 -8.15203521E-10  4.50333590E-09 -1.68380594E-04
  6.59819485E-05  5.86391632E-10  9.26570770E-09  8.88807727E-05  1.40116350E-05
  1.40097213E-05  4.85594553E-10 -4.93279704E-09 -2.96900206E-11  9.95997550E-01
  1.51503462E-02  2.16646160E-05  1.28485813E-10 -1.94327134E-09 -2.10576620E-02
 -8.73213009E-06 -2.11206070E-11  1.50224152E-09  1.85820792E-03 -6.14764171E-05
 -2.71614506E-10  4.55551180E-09 -2.26109073E-04  3.19283342E-05  2.63763034E-10
 -5.24110030E-09  7.50270705E-03  7.52783233E-03  7.52783241E-03 -8.55222527E-11
  2.66509027E-09  1.43059683E-12 -6.06596117E-06 -1.25454323E-05  5.49104246E-05
  2.33081945E-05  3.29752486E-09 -1.36003884E-06 -6.06143184E-06 -1.25402896E-05
  5.48912426E-05  2.33071020E-05  1.17503266E-06  6.80434687E-07 -6.06223337E-06
 -1.25401653E-05  5.48926023E-05  2.33072602E-05 -1.17792756E-06  6.74938845E-07
 -1.56354762E-06 -5.39040024E-06  2.84569429E-06  1.01389349E-10 -3.78761355E-09
 -1.43263655E-04 -1.72747561E-04  1.16119662E-09 -3.34442957E-08 -1.26113925E-04
 -5.25668815E-05  1.04261510E-10 -3.39085302E-09 -8.13348881E-06 -1.43262825E-06
 -1.43264448E-06  2.06109504E-10 -7.64032898E-09  2.52319897E-12 -3.04219066E-06
 -1.34127894E-05 -3.36113920E-07 -5.67812670E-11  2.29112652E-09  1.89171002E-04
 -9.11805708E-05  1.40321676E-09 -4.70007603E-08  1.41543519E-04 -3.85477512E-06
  6.19634590E-10 -2.13888063E-08  2.67321080E-06 -7.63837011E-06 -7.63835441E-06
 -2.01637984E-10  6.65972770E-09  2.36767578E-13 -4.80168305E-06  2.57980078E-06
 -2.94453432E-05  5.54907724E-11  2.59783070E-09  9.10238217E-05  5.81551116E-05
 -1.67161686E-10 -2.60315415E-08  1.41698104E-03  6.68797049E-04  3.79006541E-09
 -1.73889833E-07 -2.89629671E-05 -8.59322282E-06 -8.59335649E-06 -1.66143341E-11
  4.25316663E-09  5.93868683E-11  1.46706609E-07  1.59955882E-06  4.91690244E-07
  4.88583811E-12 -3.53504417E-10  5.43754746E-06 -3.04777370E-06 -2.65809959E-11
  2.01831041E-09 -5.20978629E-05  9.64717778E-06  1.13323612E-10 -6.26086316E-09
  3.14751238E-04  5.48342078E-05 -1.24787188E-09  5.24284017E-08  5.84681116E-06
  1.34965444E-06  1.34982297E-06 -3.14886550E-11  7.62063131E-10 -1.35672529E-11
  1.12584907E-06 -1.00252053E-04 -1.48027601E-04 -7.62973076E-06  1.42104737E-08
 -6.09717897E-06  1.11698953E-06 -1.00182649E-04 -1.48177722E-04 -7.62467185E-06
  5.27092275E-06  3.06132071E-06  1.11705234E-06 -1.00182069E-04 -1.48182187E-04
 -7.62449676E-06 -5.28502355E-06  3.03662293E-06  8.37539757E-05  2.06188089E-04
 -3.30529146E-04  3.67455222E-09 -1.19153292E-07 -1.77210381E-04 -3.29231142E-04
  5.33720408E-09 -1.68799959E-07  6.20759381E-04  1.47587229E-03 -1.20779631E-08
  3.82592814E-07 -8.07446571E-04 -8.65659817E-06 -8.65714758E-06  1.08903843E-08
 -3.51293529E-07  1.16297133E-11  9.92704625E-01  3.44638872E-02 -1.50193203E-03
  1.79869133E-08 -5.75254975E-07  5.10007536E-03  1.87304444E-04 -2.49525468E-09
  7.61118796E-08 -3.03536363E-03 -6.17281326E-05 -1.28793906E-09  4.40786388E-08
 -7.66538646E-03 -8.41769327E-03 -8.41769344E-03 -1.02360800E-08  3.29993293E-07
 -6.63175522E-12  9.93091286E-01  4.92400092E-02 -1.34112751E-04 -1.90588278E-09
 -9.46760533E-08 -1.63039195E-02 -5.71405774E-04  1.23831192E-08  6.41642104E-07
  4.09848113E-03 -2.58305167E-03 -4.63136681E-09  6.47225041E-07 -9.28160990E-03
 -8.51204309E-03 -8.51215055E-03  2.36100499E-10  1.22273718E-07  5.69631197E-10
 -7.32914461E-06 -5.28933478E-05 -3.39687457E-05  1.18437918E-10  4.25069087E-09
 -3.14428090E-04  1.87151004E-04 -8.17450044E-10 -2.32785548E-08  1.69726405E-03
  1.03519482E-03  8.49945138E-09 -9.69328285E-08 -3.39308588E-03 -1.37863148E-03
 -8.42981530E-09  4.24356873E-08  2.17083265E-04 -1.04087954E-04 -1.04094033E-04
  2.13775927E-09 -3.95143691E-08  3.95314949E-10 -1.84873820E-04  3.04798273E-03
 -8.63060374E-04  6.55488669E-05  4.50399266E-07 -1.93528260E-04 -1.84950551E-04
  3.04735116E-03 -8.63573012E-04  6.55899966E-05  1.67418000E-04  9.71455122E-05
 -1.84951234E-04  3.04737262E-03 -8.63581626E-04  6.55911469E-05 -1.67868622E-04
  9.63621097E-05 -3.68920788E-06 -2.09204809E-04  4.98191931E-05  1.50655701E-09
 -1.02817843E-08 -1.94736528E-03 -3.25491159E-03  1.69883513E-08 -7.04513926E-07
  1.45241418E-03  1.37432111E-04 -1.17534548E-09 -2.73228392E-07  5.31088043E-05
 -4.19184367E-05 -4.19070653E-05  2.98215103E-09 -9.26553200E-08 -1.32351684E-10
 -7.44458405E-05 -3.20254681E-04  2.99423611E-05 -2.60281149E-09  7.80102840E-08
  3.72753376E-03 -1.42009977E-03  2.75203590E-08 -8.45362846E-07  9.34209445E-05
 -2.39075253E-04 -8.47295235E-10  2.43050589E-07 -6.78672688E-05 -1.60726385E-04
 -1.60727188E-04 -1.96951568E-09  4.96827535E-08  1.60215594E-11 -5.77355118E-05
 -2.10542765E-04 -5.27950229E-05  3.20685419E-10 -5.91127228E-11  6.42637187E-04
  8.19912092E-04 -2.46015897E-09 -1.04573679E-07  2.27946388E-03  1.20627360E-02
  2.46687743E-08 -8.01245780E-07  1.15783535E-04 -4.22925963E-05 -4.22985996E-05
 -5.15560149E-10 -1.16961047E-08 -1.31959442E-10  2.25953761E-07  9.42913537E-06
  1.12408541E-05  8.09473134E-11 -2.91410128E-09  1.72181929E-05 -7.60115754E-05
 -5.08417432E-10  1.79692018E-08 -3.70372624E-04  5.31694663E-04  2.58368868E-09
 -7.85069054E-08  1.01491848E-02  2.76058752E-03  1.77906988E-08 -3.37063210E-07
  7.01062906E-05 -1.26525625E-06 -1.26277802E-06  5.87061628E-10 -1.27607881E-08
 -3.30961906E-11 -2.97394740E-05 -4.54435663E-04  3.12830371E-04 -1.97075855E-05
 -3.03235135E-08  1.30367684E-05 -2.97546401E-05 -4.54292080E-04  3.13325060E-04
 -1.96589747E-05 -1.12869175E-05 -6.54322728E-06 -2.97550911E-05 -4.54294049E-04
  3.13346865E-04 -1.96599533E-05  1.13169546E-05 -6.49021273E-06  9.92835675E-01
  4.94594951E-02  1.63168926E-03 -2.29194404E-08  7.60451084E-07 -1.03872177E-02
  2.95282412E-04  1.19199949E-08 -4.25941774E-07 -1.71957938E-02  4.06427786E-03
  2.23528874E-08 -1.21266757E-06 -8.47770829E-03 -9.72383432E-03 -9.72383584E-03
 -1.73813855E-08  5.57728988E-07  5.38990610E-11 -4.72722772E-04  1.54897378E-04
  3.73323672E-04 -4.08263107E-09  1.36307554E-07 -2.32625774E-03  1.03407657E-03
 -1.61129132E-08  4.99148922E-07  9.36522662E-03 -4.35096496E-03  3.23995187E-08
 -8.26383533E-07 -1.84322728E-04  2.21380948E-04  2.21381458E-04  6.47818379E-09
 -2.11177721E-07  4.31921503E-12 -3.83592234E-05  2.12177320E-05  1.48567353E-04
  1.01423498E-09 -1.02639338E-08  1.40440803E-03 -1.87915029E-03  1.76186388E-09
  1.66850982E-07 -6.12741899E-03  2.94084070E-02  5.94746741E-08 -2.26673122E-06
 -1.81093074E-04 -2.61859746E-05 -2.62212635E-05 -1.34976992E-09  1.18191471E-08
  1.99547336E-09 -2.84621141E-01  1.02275355E+00  2.55885268E-03  1.62923264E-08
 -2.25958636E-07  7.57223417E-02  4.88156071E-04  1.42569388E-09 -4.87687116E-08
 -2.45329010E-02 -1.68296945E-03 -5.27811200E-09  1.47984061E-07  3.98697437E-02
  1.23119737E-02  5.42602800E-08 -1.30028425E-06 -1.54408453E-02 -1.55347843E-02
 -1.55347883E-02  8.13593003E-10 -1.33431654E-08  3.20871194E-11 -4.30951725E-05
 -5.13526518E-04 -5.17815090E-04 -4.47161083E-05 -2.86626788E-08  1.20966620E-05
 -4.31306727E-05 -5.13478572E-04 -5.17061872E-04 -4.46481503E-05 -1.04480139E-05
 -6.05623843E-06 -4.31293699E-05 -5.13460972E-04 -5.17110162E-04 -4.46543124E-05
  1.04780980E-05 -6.00908012E-06  1.36458416E-05  4.95677687E-05  2.90462317E-05
 -2.44541500E-09  7.44867702E-08 -8.13017757E-04 -4.51042560E-04  1.14538707E-08
 -3.18256321E-07 -2.33149754E-02  1.09171584E-02 -1.92760226E-08 -6.79064525E-07
  9.39887932E-05  1.64269259E-05  1.64253346E-05  1.99530898E-10 -6.08152766E-09
  7.12991168E-11 -3.23904148E-05 -1.06581546E-04 -7.66302798E-06 -1.22589269E-09
  6.21249536E-08  9.46077982E-04 -1.93899118E-05  4.38122277E-09 -2.58326321E-07
 -7.78798634E-05 -2.15430956E-03 -1.70231878E-09  6.19322684E-07 -9.99906139E-05
 -6.92984704E-05 -6.92982078E-05  6.60605072E-10 -1.75357123E-08 -2.67698405E-11
  9.66796367E-05  6.70600581E-04 -4.98400186E-04 -4.73318627E-10  5.21528797E-08
 -5.73570108E-04  5.87071827E-04  1.89214897E-08  2.57174089E-07 -1.18063391E-03
 -6.21976405E-02 -1.24136405E-07  3.30687369E-06 -3.21944591E-04  2.95226192E-04
  2.95163466E-04 -4.25075352E-09  8.63222102E-09  4.76094192E-09  7.66465330E-04
 -2.85509613E-03  9.90511370E-01  5.56302582E-06 -7.12984487E-05  7.29147434E-05
  3.09496249E-02  1.71543584E-07 -2.28084697E-06  2.06559426E-03 -1.38037035E-02
 -7.23507579E-08  1.10055136E-06 -5.22889744E-02 -1.03442696E-02 -7.37167640E-08
  1.68741797E-06  2.05764592E-04 -1.14016042E-04 -1.14022278E-04  4.89479942E-10
 -1.67828496E-08  7.03775513E-11 -1.89181229E-04  1.56464929E-03 -5.00129964E-03
 -2.84623372E-04 -3.60689529E-08  1.47996220E-05 -1.89333913E-04  1.56440570E-03
 -5.00246478E-03 -2.84552349E-04 -1.27297952E-05 -7.37352161E-06 -1.89315369E-04
  1.56441368E-03 -5.00252401E-03 -2.84564464E-04  1.27664416E-05 -7.31723059E-06
 -5.67956372E-05 -2.56397011E-04 -7.95677584E-05  5.19884635E-09 -1.86778331E-07
  2.85800767E-03  1.05154629E-03 -3.35440011E-08  1.10218066E-06  7.00814009E-02
 -2.70567486E-02 -1.06127658E-08  3.28499050E-06 -1.44308801E-05 -9.33422914E-05
 -9.33411022E-05 -2.55799182E-09  8.88099460E-08 -8.58705197E-11 -1.79616820E-05
 -5.72766580E-05  3.38460731E-05  1.38158210E-09 -8.70707564E-08 -2.91651850E-04
  4.17670966E-04 -8.70336465E-09  4.82197489E-07 -9.63728640E-03  7.48627945E-03
 -1.28977164E-08 -8.50284125E-07 -7.35018682E-05 -2.61481844E-05 -2.61512440E-05
 -2.54213496E-11  4.06205985E-09 -2.61350895E-12 -1.46589857E-09 -7.12346080E-09
  1.76686555E-09 -5.41899838E-05 -9.46839335E-07  4.12027963E-08 -7.89195325E-09
  2.41635537E-04  4.22724404E-06  3.78124360E-08  1.49560409E-07  2.49703984E-04
  4.34818798E-06 -1.84102863E-09 -6.38374105E-07  6.35251400E-07 -1.13856739E-04
 -1.98860813E-06 -7.02845038E-05  1.61978940E-10 -3.71367397E-10 -4.31725768E-06
  9.90693981E-01  1.73025346E-02  4.42804053E-10 -1.31781193E-07  2.95858861E-02
  5.16718943E-04 -8.50392520E-09  4.90292540E-08 -1.15650440E-02 -2.01983193E-04
  1.02707956E-07  1.08005405E-08  5.13493239E-03  8.96808879E-05 -2.96998974E-09
  4.48820082E-08 -4.30853775E-08  1.74026106E-04  3.03922125E-06  4.70440648E-06
  1.55765167E-06 -9.27962149E-06  6.39900736E-05  2.69618242E-06 -2.45274510E-05
 -1.56370455E-06 -8.98933655E-05  5.34721653E-04 -3.69460601E-03 -1.55560458E-04
 -8.11830726E-05 -3.32827948E-05  8.83327021E-05 -5.25507560E-04  3.63064090E-03
  1.52872576E-04 -8.03531229E-05  3.15979179E-05  1.55360097E-10  9.07737956E-10
  5.73269789E-10  5.79844915E-05  1.01240032E-06 -4.05997099E-09  7.67540987E-10
 -2.44213978E-04 -4.26482846E-06 -1.56036026E-07  6.07520552E-08  1.02154658E-03
  1.78500723E-05 -4.85760317E-11  2.27564985E-08 -2.24731391E-08  1.18907415E-06
  2.06792698E-08  2.45090823E-06  1.10927957E-10  4.41368181E-10 -3.49521496E-10
 -2.35737902E-05 -4.12346652E-07 -3.18902104E-09  2.26621086E-09  1.42393941E-04
  2.48982497E-06  1.86239977E-08 -1.47258180E-08 -3.60986938E-04 -6.31542623E-06
 -1.15969098E-10  2.46360572E-08 -2.39049048E-08 -1.72699381E-05 -3.01520484E-07
  2.66491463E-06 -3.87086539E-09 -1.30420999E-08  2.89496777E-08  9.46231945E-07
 -5.42019071E-05  1.47167718E-07 -2.33437882E-07 -4.21191047E-06  2.41566776E-04
  4.34646971E-07  5.08694489E-06 -4.36345557E-06  2.49101294E-04 -4.43526421E-08
 -6.09084037E-05  6.09326013E-05  1.98806961E-06 -1.13836518E-04  7.36680078E-07
 -1.37114882E-08  6.28975019E-08  7.14305862E-05 -1.73025341E-02  9.90693982E-01
  2.24253983E-08  2.08094361E-06 -5.16719660E-04  2.95858734E-02 -3.23082141E-07
 -7.95105391E-07  2.01984912E-04 -1.15650226E-02  4.13534269E-06  1.59681738E-06
 -8.96847033E-05  5.13503254E-03  2.04513684E-08  4.11337215E-06 -4.10602202E-06
 -3.03959870E-06  1.74029844E-04 -4.81747542E-08  1.02873376E-04 -6.12503561E-04
  4.22922908E-03  1.78108207E-04  6.03459435E-07 -9.95534864E-05 -5.00870322E-05
  2.97952901E-04 -2.05865886E-03 -8.66817570E-05 -3.11417028E-05 -4.28525097E-05
 -5.27805906E-05  3.14010655E-04 -2.16952583E-03 -9.13514788E-05  3.37893258E-05
 -4.36826045E-05  9.62238195E-09  4.28658532E-08 -2.28296918E-08 -1.01276827E-06