RxCoord=0.59984 DE=54.37                                                
Freq      RB3LYP                                                      6-31++G(d,p)        
Number of atoms                            I                7
Info1-9                                    I   N=           9
          16          16           0           0           0         100
           6          18        -502
Full Title                                 C   N=           2
RxCoord=0.59984 DE=54.37
Route                                      C   N=           6
#p b3lyp 6-31++g(d,p) scf=verytight NoSymm freq=noraman int=
ultrafine   
Charge                                     I               -1
Multiplicity                               I                1
Number of electrons                        I               40
Number of alpha electrons                  I               20
Number of beta electrons                   I               20
Number of basis functions                  I               98
Number of independent functions            I               98
Number of point charges in /Mol/           I                0
Number of translation vectors              I                0
Atomic numbers                             I   N=           7
           6          17           1           1           1           6
           7
Nuclear charges                            R   N=           7
  6.00000000E+00  1.70000000E+01  1.00000000E+00  1.00000000E+00  1.00000000E+00
  6.00000000E+00  7.00000000E+00
Current cartesian coordinates              R   N=          21
 -1.34293387E-01  1.32280829E-05 -2.62671931E-04 -4.13588672E+00 -1.88972612E-06
  9.63760324E-05  1.75425166E-01  4.70163860E-03 -2.01281533E+00  1.75950510E-01
  1.74066453E+00  1.00988854E+00  1.75941061E-01 -1.74533026E+00  1.00176272E+00
  4.40562623E+00  9.44863062E-06 -4.17629474E-04  6.62995482E+00 -1.51178090E-05
  4.25188378E-04
Number of symbols in /Mol/                 I                0
Force Field                                I                0
Atom Types                                 C   N=           7
                                                            
                        
Int Atom Types                             I   N=           7
           0           0           0           0           0           0
           0
MM charges                                 R   N=           7
  0.00000000E+00  0.00000000E+00  0.00000000E+00  0.00000000E+00  0.00000000E+00
  0.00000000E+00  0.00000000E+00
Integer atomic weights                     I   N=           7
          12          35           1           1           1          12
          14
Real atomic weights                        R   N=           7
  1.20000000E+01  3.49688527E+01  1.00782504E+00  1.00782504E+00  1.00782504E+00
  1.20000000E+01  1.40030740E+01
Atom fragment info                         I   N=           7
           0           0           0           0           0           0
           0
Atom residue num                           I   N=           7
           0           0           0           0           0           0
           0
Nuclear spins                              I   N=           7
           0           3           1           1           1           0
           2
Nuclear ZEff                               R   N=           7
 -3.60000000E+00 -1.42400000E+01 -1.00000000E+00 -1.00000000E+00 -1.00000000E+00
 -3.60000000E+00 -4.55000000E+00
Nuclear ZNuc                               R   N=           7
  6.00000000E+00  1.70000000E+01  1.00000000E+00  1.00000000E+00  1.00000000E+00
  6.00000000E+00  7.00000000E+00
Nuclear QMom                               R   N=           7
  0.00000000E+00 -8.16500000E+00  0.00000000E+00  0.00000000E+00  0.00000000E+00
  0.00000000E+00  2.04400000E+00
Nuclear GFac                               R   N=           7
  0.00000000E+00  8.21874000E-01  2.79284600E+00  2.79284600E+00  2.79284600E+00
  0.00000000E+00  4.03761000E-01
MicOpt                                     I   N=           7
          -1          -1          -1          -1          -1          -1
          -1
Number of residues                         I                0
Number of secondary structures             I                0
Number of contracted shells                I               33
Number of primitive shells                 I               72
Pure/Cartesian d shells                    I                1
Pure/Cartesian f shells                    I                0
Highest angular momentum                   I                2
Largest degree of contraction              I                6
Shell types                                I   N=          33
           0          -1          -1          -1           2           0
          -1          -1          -1          -1           2           0
           0           0           1           0           0           0
           1           0           0           0           1           0
          -1          -1          -1           2           0          -1
          -1          -1           2
Number of primitives per shell             I   N=          33
           6           3           1           1           1           6
           6           3           1           1           1           3
           1           1           1           3           1           1
           1           3           1           1           1           6
           3           1           1           1           6           3
           1           1           1
Shell to atom map                          I   N=          33
           1           1           1           1           1           2
           2           2           2           2           2           3
           3           3           3           4           4           4
           4           5           5           5           5           6
           6           6           6           6           7           7
           7           7           7
Primitive exponents                        R   N=          72
  3.04752488E+03  4.57369518E+02  1.03948685E+02  2.92101553E+01  9.28666296E+00
  3.16392696E+00  7.86827235E+00  1.88128854E+00  5.44249258E-01  1.68714478E-01
  4.38000000E-02  8.00000000E-01  2.51801000E+04  3.78035000E+03  8.60474000E+02
  2.42145000E+02  7.73349000E+01  2.62470000E+01  4.91765000E+02  1.16984000E+02
  3.74153000E+01  1.37834000E+01  5.45215000E+00  2.22588000E+00  3.18649000E+00
  1.14427000E+00  4.20377000E-01  1.42657000E-01  4.83000000E-02  7.50000000E-01
  1.87311370E+01  2.82539436E+00  6.40121692E-01  1.61277759E-01  3.60000000E-02
  1.10000000E+00  1.87311370E+01  2.82539436E+00  6.40121692E-01  1.61277759E-01
  3.60000000E-02  1.10000000E+00  1.87311370E+01  2.82539436E+00  6.40121692E-01
  1.61277759E-01  3.60000000E-02  1.10000000E+00  3.04752488E+03  4.57369518E+02
  1.03948685E+02  2.92101553E+01  9.28666296E+00  3.16392696E+00  7.86827235E+00
  1.88128854E+00  5.44249258E-01  1.68714478E-01  4.38000000E-02  8.00000000E-01
  4.17351146E+03  6.27457911E+02  1.42902093E+02  4.02343293E+01  1.28202129E+01
  4.39043701E+00  1.16263619E+01  2.71627981E+00  7.72218397E-01  2.12031498E-01
  6.39000000E-02  8.00000000E-01
Contraction coefficients                   R   N=          72
  1.83473713E-03  1.40373228E-02  6.88426223E-02  2.32184443E-01  4.67941348E-01
  3.62311985E-01 -1.19332420E-01 -1.60854152E-01  1.14345644E+00  1.00000000E+00
  1.00000000E+00  1.00000000E+00  1.83295985E-03  1.40341988E-02  6.90973943E-02
  2.37451980E-01  4.83033960E-01  3.39855972E-01 -2.29739142E-03 -3.07137189E-02
 -1.12528069E-01  4.50163278E-02  5.89353363E-01  4.65206287E-01 -2.51828028E-01
  6.15892514E-02  1.06018433E+00  1.00000000E+00  1.00000000E+00  1.00000000E+00
  3.34946043E-02  2.34726953E-01  8.13757326E-01  1.00000000E+00  1.00000000E+00
  1.00000000E+00  3.34946043E-02  2.34726953E-01  8.13757326E-01  1.00000000E+00
  1.00000000E+00  1.00000000E+00  3.34946043E-02  2.34726953E-01  8.13757326E-01
  1.00000000E+00  1.00000000E+00  1.00000000E+00  1.83473713E-03  1.40373228E-02
  6.88426223E-02  2.32184443E-01  4.67941348E-01  3.62311985E-01 -1.19332420E-01
 -1.60854152E-01  1.14345644E+00  1.00000000E+00  1.00000000E+00  1.00000000E+00
  1.83477216E-03  1.39946270E-02  6.85865518E-02  2.32240873E-01  4.69069948E-01
  3.60455199E-01 -1.14961182E-01 -1.69117479E-01  1.14585195E+00  1.00000000E+00
  1.00000000E+00  1.00000000E+00
P(S=P) Contraction coefficients            R   N=          72
  0.00000000E+00  0.00000000E+00  0.00000000E+00  0.00000000E+00  0.00000000E+00
  0.00000000E+00  6.89990666E-02  3.16423961E-01  7.44308291E-01  1.00000000E+00
  1.00000000E+00  0.00000000E+00  0.00000000E+00  0.00000000E+00  0.00000000E+00
  0.00000000E+00  0.00000000E+00  0.00000000E+00  3.98940088E-03  3.03177067E-02
  1.29880029E-01  3.27951072E-01  4.53527100E-01  2.52154056E-01 -1.42993147E-02
  3.23572333E-01  7.43507765E-01  1.00000000E+00  1.00000000E+00  0.00000000E+00
  0.00000000E+00  0.00000000E+00  0.00000000E+00  0.00000000E+00  0.00000000E+00
  0.00000000E+00  0.00000000E+00  0.00000000E+00  0.00000000E+00  0.00000000E+00
  0.00000000E+00  0.00000000E+00  0.00000000E+00  0.00000000E+00  0.00000000E+00
  0.00000000E+00  0.00000000E+00  0.00000000E+00  0.00000000E+00  0.00000000E+00
  0.00000000E+00  0.00000000E+00  0.00000000E+00  0.00000000E+00  6.89990666E-02
  3.16423961E-01  7.44308291E-01  1.00000000E+00  1.00000000E+00  0.00000000E+00
  0.00000000E+00  0.00000000E+00  0.00000000E+00  0.00000000E+00  0.00000000E+00
  0.00000000E+00  6.75797439E-02  3.23907296E-01  7.40895140E-01  1.00000000E+00
  1.00000000E+00  0.00000000E+00
Coordinates of each shell                  R   N=          99
 -1.34293387E-01  1.32280829E-05 -2.62671931E-04 -1.34293387E-01  1.32280829E-05
 -2.62671931E-04 -1.34293387E-01  1.32280829E-05 -2.62671931E-04 -1.34293387E-01
  1.32280829E-05 -2.62671931E-04 -1.34293387E-01  1.32280829E-05 -2.62671931E-04
 -4.13588672E+00 -1.88972612E-06  9.63760324E-05 -4.13588672E+00 -1.88972612E-06
  9.63760324E-05 -4.13588672E+00 -1.88972612E-06  9.63760324E-05 -4.13588672E+00
 -1.88972612E-06  9.63760324E-05 -4.13588672E+00 -1.88972612E-06  9.63760324E-05
 -4.13588672E+00 -1.88972612E-06  9.63760324E-05  1.75425166E-01  4.70163860E-03
 -2.01281533E+00  1.75425166E-01  4.70163860E-03 -2.01281533E+00  1.75425166E-01
  4.70163860E-03 -2.01281533E+00  1.75425166E-01  4.70163860E-03 -2.01281533E+00
  1.75950510E-01  1.74066453E+00  1.00988854E+00  1.75950510E-01  1.74066453E+00
  1.00988854E+00  1.75950510E-01  1.74066453E+00  1.00988854E+00  1.75950510E-01
  1.74066453E+00  1.00988854E+00  1.75941061E-01 -1.74533026E+00  1.00176272E+00
  1.75941061E-01 -1.74533026E+00  1.00176272E+00  1.75941061E-01 -1.74533026E+00
  1.00176272E+00  1.75941061E-01 -1.74533026E+00  1.00176272E+00  4.40562623E+00
  9.44863062E-06 -4.17629474E-04  4.40562623E+00  9.44863062E-06 -4.17629474E-04
  4.40562623E+00  9.44863062E-06 -4.17629474E-04  4.40562623E+00  9.44863062E-06
 -4.17629474E-04  4.40562623E+00  9.44863062E-06 -4.17629474E-04  6.62995482E+00
 -1.51178090E-05  4.25188378E-04  6.62995482E+00 -1.51178090E-05  4.25188378E-04
  6.62995482E+00 -1.51178090E-05  4.25188378E-04  6.62995482E+00 -1.51178090E-05
  4.25188378E-04  6.62995482E+00 -1.51178090E-05  4.25188378E-04
Num ILSW                                   I              100
ILSW                                       I   N=         100
           0           1           0           0           2           0
           0           0           0           0         402          -1
           5           0           0           0           2           0
           0           0           0           0           1           0
           1           1           0           0           0           0
           0           0      100000           0          -1           0
           0           0           0           0           0           0
           0           0           0           1           0           0
           0 -2000000000           1           0           0           0
           0           0           4          52           0           0
           0           0           5           0           0           0
           0           0           0           7           0           1
           0           0           0           0           0           0
           0           0           0           0           0           0
           0           0           0           0           0           0
           0           0           0           0           0           0
           0           0           0           0
Num RLSW                                   I               52
RLSW                                       R   N=          52
  8.00000000E-01  7.20000000E-01  1.00000000E+00  8.10000000E-01  2.00000000E-01
  0.00000000E+00  0.00000000E+00  1.00000000E+00  0.00000000E+00  0.00000000E+00
  0.00000000E+00  0.00000000E+00  1.00000000E+00  0.00000000E+00  0.00000000E+00
  0.00000000E+00  0.00000000E+00  1.00000000E+00  0.00000000E+00  0.00000000E+00
  0.00000000E+00  0.00000000E+00  1.00000000E+00  0.00000000E+00  0.00000000E+00
  0.00000000E+00  0.00000000E+00  1.00000000E+00  0.00000000E+00  0.00000000E+00
  0.00000000E+00  0.00000000E+00  1.00000000E+00  0.00000000E+00  0.00000000E+00
  0.00000000E+00  0.00000000E+00  0.00000000E+00  1.00000000E+00  1.00000000E+00
  0.00000000E+00  1.00000000E+00  0.00000000E+00  0.00000000E+00  0.00000000E+00
  0.00000000E+00  0.00000000E+00  0.00000000E+00  0.00000000E+00  0.00000000E+00
  0.00000000E+00  0.00000000E+00
MxBond                                     I                4
NBond                                      I   N=           7
           4           1           1           1           1           1
           1
IBond                                      I   N=          28
           2           3           4           5           1           0
           0           0           1           0           0           0
           1           0           0           0           1           0
           0           0           7           0           0           0
           6           0           0           0
RBond                                      R   N=          28
  1.00000000E+00  1.00000000E+00  1.00000000E+00  1.00000000E+00  1.00000000E+00
  0.00000000E+00  0.00000000E+00  0.00000000E+00  1.00000000E+00  0.00000000E+00
  0.00000000E+00  0.00000000E+00  1.00000000E+00  0.00000000E+00  0.00000000E+00
  0.00000000E+00  1.00000000E+00  0.00000000E+00  0.00000000E+00  0.00000000E+00
  3.00000000E+00  0.00000000E+00  0.00000000E+00  0.00000000E+00  3.00000000E+00
  0.00000000E+00  0.00000000E+00  0.00000000E+00
Virial Ratio                               R      2.004663724595696E+00
SCF Energy                                 R     -5.929875636100970E+02
Total Energy                               R     -5.929875636100970E+02
RMS Force                                  R      2.006848102761893E-03
RMS Density                                R      2.822156057976186E-09
NImag                                      I                1
Job Status                                 I                1
Nuclear derivative order                   I                2
External E-field                           R   N=          35
  0.00000000E+00  0.00000000E+00  0.00000000E+00  0.00000000E+00  0.00000000E+00
  0.00000000E+00  0.00000000E+00  0.00000000E+00  0.00000000E+00  0.00000000E+00
  0.00000000E+00  0.00000000E+00  0.00000000E+00  0.00000000E+00  0.00000000E+00
  0.00000000E+00  0.00000000E+00  0.00000000E+00  0.00000000E+00  0.00000000E+00
  0.00000000E+00  0.00000000E+00  0.00000000E+00  0.00000000E+00  0.00000000E+00
  0.00000000E+00  0.00000000E+00  0.00000000E+00  0.00000000E+00  0.00000000E+00
  0.00000000E+00  0.00000000E+00  0.00000000E+00  0.00000000E+00  0.00000000E+00
IOpCl                                      I                0
IROHF                                      I                0
Alpha Orbital Energies                     R   N=          98
 -1.01359068E+02 -1.41238398E+01 -1.01097600E+01 -9.99279370E+00 -9.27399027E+00
 -7.03548827E+00 -7.02960609E+00 -7.02960600E+00 -6.78465709E-01 -6.41159450E-01
 -5.41894562E-01 -3.05116253E-01 -3.05097360E-01 -2.31848436E-01 -1.90249884E-01
 -1.41651729E-01 -1.41649981E-01 -1.25407700E-01 -1.25407587E-01 -9.39182764E-02
  1.12163276E-01  1.25200835E-01  1.48731350E-01  1.48731546E-01  1.60422944E-01
  1.91105471E-01  2.04178986E-01  2.04181516E-01  2.22872451E-01  2.22877163E-01
  2.47941231E-01  2.47941441E-01  2.50344958E-01  2.59367950E-01  2.59371769E-01
  2.60082126E-01  3.10128085E-01  3.42455387E-01  3.42463755E-01  3.74344027E-01
  3.74957098E-01  3.74962675E-01  3.80859906E-01  4.58241615E-01  4.70656756E-01
  7.31725800E-01  7.66918319E-01  7.66923320E-01  7.68639907E-01  7.99919528E-01
  7.99936256E-01  8.74049774E-01  8.74051827E-01  8.88032153E-01  9.82311757E-01
  1.00043144E+00  1.04014031E+00  1.04015452E+00  1.08059485E+00  1.08060248E+00
  1.09768731E+00  1.09770432E+00  1.12820479E+00  1.17277293E+00  1.17277384E+00
  1.24480726E+00  1.32523947E+00  1.38605345E+00  1.51184619E+00  1.60087898E+00
  1.60090725E+00  1.75159713E+00  1.75159905E+00  1.77341128E+00  1.77341286E+00
  1.83045420E+00  2.13137131E+00  2.15213006E+00  2.15223675E+00  2.17437933E+00
  2.17438658E+00  2.17577645E+00  2.57163551E+00  2.61443920E+00  2.61450901E+00
  2.80616274E+00  2.80616617E+00  2.83080850E+00  2.92391193E+00  2.92404328E+00
  3.25167145E+00  3.44853801E+00  3.57579204E+00  3.57591392E+00  4.19865831E+00
  4.46004611E+00  4.48999640E+00  4.57728208E+00
Alpha MO coefficients                      R   N=        9604
 -1.66284422E-06 -7.33761923E-05 -1.64300532E-05  1.43408274E-11  1.99726136E-09
  1.42100733E-05 -1.22140412E-04 -7.59216385E-10  2.52077455E-09 -1.70354618E-04
  4.82526622E-05  5.75260746E-10  1.21976856E-08  8.90521308E-05  1.50021667E-05
  1.49998313E-05  4.84364028E-10 -4.38363550E-09 -1.18481246E-11  9.95997535E-01
  1.51504099E-02  2.25938273E-05  1.41122609E-10 -1.93019667E-09 -2.10575118E-02
 -9.26661189E-06 -1.98453289E-11  1.55224329E-09  1.85780567E-03 -6.21181488E-05
 -2.93455077E-10  4.69646248E-09 -2.38802420E-04  2.84548046E-05  2.43542095E-10
 -4.73270627E-09  7.50228049E-03  7.52788797E-03  7.52788804E-03 -9.22987128E-11
  2.83168184E-09  1.33289276E-12 -6.52630027E-06 -1.14711101E-05  5.35296457E-05
  2.30290595E-05  4.19615372E-09 -1.74636385E-06 -6.51992319E-06 -1.14663526E-05
  5.35069062E-05  2.30277652E-05  1.50950866E-06  8.74784722E-07 -6.52066565E-06
 -1.14663059E-05  5.35083108E-05  2.30278766E-05 -1.51330649E-06  8.67732861E-07
 -1.57640488E-06 -5.25477181E-06  2.81870153E-06  8.60799140E-11 -3.81768837E-09
 -1.43488310E-04 -1.71271142E-04  1.13484920E-09 -3.29737237E-08 -1.05815763E-04
 -5.97480855E-05  1.12229567E-10 -2.31080202E-09 -8.40475075E-06 -1.48214861E-06
 -1.48217578E-06  1.82808547E-10 -7.58091419E-09  2.05672510E-12 -3.07241789E-06
 -1.34721926E-05 -3.61150824E-07 -4.58961112E-11  2.20002401E-09  1.89159193E-04
 -9.12421013E-05  1.27096028E-09 -4.61448256E-08  1.38051693E-04 -1.63902529E-06
  5.42286383E-10 -2.13376178E-08  2.70161514E-06 -7.75422556E-06 -7.75420957E-06
 -1.84295476E-10  6.60619676E-09  3.69029969E-13 -4.25115568E-06  4.22718381E-06
 -2.82391357E-05  7.37353970E-11  2.53094789E-09  8.19032009E-05  5.38817144E-05
 -1.44802536E-10 -2.78717308E-08  1.37950101E-03  6.33934469E-04  2.85128146E-09
 -1.70467872E-07 -2.81291813E-05 -7.32013290E-06 -7.32070682E-06  3.76128996E-12
  4.34106075E-09  4.58384700E-11  1.46243872E-07  1.63529975E-06  4.22865325E-07
  5.12784306E-12 -3.64081457E-10  5.39026249E-06 -2.67859422E-06 -2.82250720E-11
  2.07947625E-09 -5.19915282E-05  8.18888297E-06  1.14731552E-10 -6.22765405E-09
  2.94339118E-04  4.84704195E-05 -1.00130747E-09  5.24983370E-08  5.89359682E-06
  1.48851439E-06  1.48873463E-06 -2.20653549E-11  7.15900778E-10 -1.31036926E-11
  1.34617780E-06 -9.78408064E-05 -1.50161495E-04 -7.26501772E-06  1.42655491E-08
 -6.12183513E-06  1.33607205E-06 -9.77677695E-05 -1.50313711E-04 -7.26034377E-06
  5.29233210E-06  3.07365756E-06  1.33608544E-06 -9.77671109E-05 -1.50317653E-04
 -7.26019744E-06 -5.30649643E-06  3.04889148E-06  8.38288920E-05  2.05860325E-04
 -3.27577190E-04  3.41151876E-09 -1.17290290E-07 -1.83990573E-04 -3.37979670E-04
  4.87464656E-09 -1.66812563E-07  6.82761480E-04  1.44539494E-03 -1.17690158E-08
  3.82665419E-07 -8.04256268E-04 -8.89314790E-06 -8.89377776E-06  1.00877041E-08
 -3.46293914E-07  9.72195674E-12  9.92703870E-01  3.44635605E-02 -1.49492118E-03
  1.65627506E-08 -5.65076861E-07  5.11157367E-03  1.80531067E-04 -2.19399591E-09
  7.15498051E-08 -3.03458914E-03 -5.40807024E-05 -9.43000327E-10  4.12317092E-08
 -7.66842129E-03 -8.41873297E-03 -8.41873314E-03 -9.49177626E-09  3.25663332E-07
 -6.36026365E-12  9.93086915E-01  4.92477214E-02 -1.64419492E-04 -2.32036508E-10
 -1.12146194E-07 -1.62758813E-02 -4.87606413E-04  1.06670121E-08  7.28208705E-07
  4.28266181E-03 -2.75499551E-03 -4.14838856E-09  7.10108555E-07 -9.28044829E-03
 -8.52791870E-03 -8.52803844E-03  6.73383820E-10  1.28499942E-07  1.55586023E-09
 -7.39886026E-06 -5.41421807E-05 -3.38887154E-05  9.26754701E-11  4.97487227E-09
 -3.11289073E-04  1.93702419E-04 -6.41132501E-10 -2.81479012E-08  1.77224035E-03
  1.07069433E-03  8.28578266E-09 -9.21652375E-08 -3.63450513E-03 -1.44566693E-03
 -8.92403248E-09  3.49760049E-08  2.10224003E-04 -1.07260188E-04 -1.07268157E-04
  2.06400011E-09 -3.85327915E-08  3.77204695E-10 -1.83507091E-04  3.04719824E-03
 -8.79004576E-04  6.50456959E-05  4.37709159E-07 -1.88164415E-04 -1.83587841E-04
  3.04646258E-03 -8.79563061E-04  6.50863541E-05  1.62781819E-04  9.44495308E-05
 -1.83585951E-04  3.04647600E-03 -8.79567846E-04  6.50870040E-05 -1.63220001E-04
  9.36885744E-05 -5.05176125E-06 -2.02379051E-04  4.97551352E-05  1.18865072E-09
 -4.50542437E-09 -1.86801708E-03 -3.10181474E-03  1.66748348E-08 -6.98946782E-07
  1.60058369E-03  1.32798125E-04  3.18021306E-10 -2.95531556E-07  5.15007878E-05
 -4.16842791E-05 -4.16710009E-05  2.36069390E-09 -8.53467758E-08 -1.12935066E-10
 -7.25496340E-05 -3.10862954E-04  2.94045978E-05 -2.20188665E-09  7.29129705E-08
  3.58596284E-03 -1.36031257E-03  2.37973707E-08 -7.89135442E-07 -2.39120976E-06
 -2.25548967E-04 -1.63931914E-09  2.69820638E-07 -6.72013291E-05 -1.57210268E-04
 -1.57211315E-04 -1.66596895E-09  4.38745549E-08  1.46988105E-11 -5.47950350E-05
 -2.06292532E-04 -5.70592508E-05  2.41576681E-10  2.07771221E-09  6.23349052E-04
  8.09971678E-04 -1.47826716E-09 -1.32105087E-07  1.77173391E-03  1.16964263E-02
  1.91764555E-08 -7.58981252E-07  1.10938591E-04 -4.17927452E-05 -4.17977916E-05
 -6.13027995E-10 -1.30959406E-08 -5.02283847E-11  2.32026455E-07  9.53240898E-06
  1.09313734E-05  9.42946433E-11 -3.05443880E-09  1.77682000E-05 -7.36886113E-05
 -5.80457658E-10  1.86773283E-08 -3.64298997E-04  5.25021447E-04  2.74362395E-09
 -7.93690960E-08  1.00610837E-02  2.71841736E-03  1.87591626E-08 -3.29128409E-07
  6.94524940E-05 -8.58666811E-07 -8.55862748E-07  6.29065961E-10 -1.24529120E-08
 -3.02622323E-11 -3.03202898E-05 -4.54553013E-04  3.02068921E-04 -2.01874203E-05
 -2.76609874E-08  1.18656722E-05 -3.03353855E-05 -4.54373219E-04  3.02503409E-04
 -2.01300585E-05 -1.02782942E-05 -5.95571773E-06 -3.03358583E-05 -4.54372553E-04
  3.02519178E-04 -2.01305482E-05  1.03056771E-05 -5.90759635E-06  9.92835270E-01
  4.94567362E-02  1.65244067E-03 -2.11551616E-08  7.55502635E-07 -1.04110555E-02
  2.29957733E-04  1.00411385E-08 -4.21283566E-07 -1.65616013E-02  3.80198315E-03
  9.87609356E-09 -1.13403745E-06 -8.47562195E-03 -9.72502762E-03 -9.72502964E-03
 -1.60851678E-08  5.51360036E-07  4.98351981E-11 -4.74239502E-04  1.48848992E-04
  3.78360069E-04 -3.77356751E-09  1.36343739E-07 -2.26027206E-03  1.00981591E-03
 -1.48225132E-08  4.82665731E-07  9.34661225E-03 -4.29837869E-03  3.50713732E-08
 -8.51809389E-07 -1.91443475E-04  2.18960419E-04  2.18960932E-04  5.95303715E-09
 -2.09418804E-07  2.31414592E-12 -4.11970260E-05  3.16198575E-05  1.52752879E-04
  9.88822749E-10 -7.64445785E-09  1.50148834E-03 -1.85464883E-03  2.82177365E-09
  1.64627838E-07 -7.31129006E-03  3.00672286E-02  5.39389914E-08 -2.32128081E-06
 -2.15350548E-04 -2.97996863E-05 -2.98446301E-05 -1.37850320E-09  1.27318617E-08
  2.11829565E-09 -2.84620511E-01  1.02275436E+00  2.66565585E-03  1.80087750E-08
 -2.23095705E-07  7.57396458E-02  4.86734776E-04  1.44281869E-09 -4.91891183E-08
 -2.46320561E-02 -1.67847010E-03 -5.23670958E-09  1.47999267E-07  4.10743760E-02
  1.26139297E-02  5.81608902E-08 -1.34022496E-06 -1.54340278E-02 -1.55366922E-02
 -1.55366964E-02  9.50683846E-10 -1.39628000E-08  3.96456266E-11 -4.48225142E-05
 -5.35023510E-04 -4.33496299E-04 -4.56331892E-05 -2.30064496E-08  9.65118759E-06
 -4.48605241E-05 -5.34989104E-04 -4.32618785E-04 -4.55465030E-05 -8.32938498E-06
 -4.82548204E-06 -4.48592943E-05 -5.34969243E-04 -4.32670413E-04 -4.55527196E-05
  8.35373866E-06 -4.78831416E-06  1.42570358E-05  5.39079078E-05  3.01975483E-05
 -2.08016278E-09  7.41782162E-08 -7.72566443E-04 -3.87406577E-04  9.77839756E-09
 -3.01127950E-07 -2.35655144E-02  1.10777245E-02 -4.11407545E-08 -6.45720522E-07
  9.29245539E-05  1.67472275E-05  1.67451101E-05  1.32387233E-10 -4.66583575E-09
  6.77667561E-11 -3.00936489E-05 -9.74381388E-05 -8.73145609E-06 -7.80969403E-10
  6.02099527E-08  8.50697086E-04  1.43615345E-05  2.08932837E-09 -2.38317645E-07
  2.63559408E-06 -2.23201068E-03  8.50364006E-09  5.99145525E-07 -9.72071351E-05
 -6.43144996E-05 -6.43140794E-05  6.17651227E-10 -1.87163240E-08 -2.84686919E-11
  9.74988314E-05  7.26031669E-04 -4.76954350E-04 -2.34922254E-11  4.92398173E-08
 -5.53175682E-04  6.52292146E-04  1.60390514E-08  3.51585864E-07  1.45124292E-03
 -6.22514525E-02 -1.03946161E-07  3.17656701E-06 -4.03404594E-04  3.00850001E-04
  3.00759386E-04 -4.32662383E-09  1.28601399E-08  4.81249126E-09  7.96650405E-04
 -2.97489045E-03  9.90505395E-01  5.72274071E-06 -6.66100015E-05  5.59961845E-05
  3.09663565E-02  1.76637513E-07 -2.14542276E-06  2.22430943E-03 -1.37727726E-02
 -7.44632586E-08  1.05091384E-06 -5.36339610E-02 -1.06531006E-02 -8.05065992E-08
  1.73561234E-06  2.12043487E-04 -1.33668647E-04 -1.33675831E-04  5.88718693E-10
 -2.05498960E-08  6.55054447E-11 -1.96895628E-04  1.55765335E-03 -5.06912433E-03
 -2.86432695E-04 -1.57385197E-08  6.14061564E-06 -1.97099627E-04  1.55734704E-03
 -5.07018963E-03 -2.86329061E-04 -5.22562621E-06 -3.02207228E-06 -1.97080896E-04
  1.55734989E-03 -5.07023228E-03 -2.86341257E-04  5.24203923E-06 -3.00069214E-06
 -5.50487393E-05 -2.49215577E-04 -8.13093223E-05  3.95284058E-09 -1.77838357E-07
  2.88266298E-03  1.12464936E-03 -2.86276784E-08  1.08178134E-06  6.89278168E-02
 -2.66541147E-02  4.59990497E-08  3.06017676E-06 -9.83292453E-06 -9.08229659E-05
 -9.08212952E-05 -2.58171528E-09  9.25049224E-08 -7.54534845E-11 -1.73030324E-05
 -5.32775924E-05  3.35080390E-05  6.81672100E-10 -8.48538472E-08 -3.54663338E-04
  4.55651174E-04 -5.78798632E-09  4.86129142E-07 -9.67111091E-03  7.44664919E-03
 -3.65896546E-08 -7.44221538E-07 -7.63646048E-05 -2.45462887E-05 -2.45495762E-05
  2.41008675E-10  6.11366326E-10 -1.15892152E-13 -1.43487746E-09 -7.28652829E-09
  2.34974039E-09 -5.48526519E-05 -9.31381512E-07  4.00500759E-08 -1.16692710E-08
  2.52299343E-04  4.28828352E-06  2.24361524E-08  1.25889292E-07  2.52898492E-04
  4.27897836E-06 -1.64950305E-09 -6.27308622E-07  6.24444275E-07 -1.08324228E-04
 -1.83837871E-06 -7.24557581E-05  3.41471354E-10 -9.87964573E-10 -4.59181393E-06
  9.90703231E-01  1.68134865E-02  5.48211048E-10 -1.40039404E-07  2.95839039E-02
  5.02075712E-04 -9.44070970E-09  5.04902190E-08 -1.15679026E-02 -1.96320632E-04
  8.81618056E-08  6.09183571E-09  5.13684983E-03  8.71769834E-05 -3.39566926E-09
  4.37842947E-08 -4.16147484E-08  1.79373528E-04  3.04402552E-06  4.77973749E-06
  1.46069653E-06 -8.84524520E-06  6.20881528E-05  2.65676922E-06 -2.52094241E-05
 -1.51396521E-06 -8.71058288E-05  5.26598316E-04 -3.70453447E-03 -1.58374284E-04
 -8.12126140E-05 -3.28990165E-05  8.56428311E-05 -5.17818238E-04  3.64246783E-03
  1.55726647E-04 -8.04234305E-05  3.12429049E-05  9.32917560E-11  6.90714731E-10
  5.12451402E-10  5.77897802E-05  9.80426974E-07 -1.42404576E-08 -8.98525284E-09
 -2.42623328E-04 -4.11685409E-06 -1.23644027E-07  4.31132943E-08  1.02228145E-03
  1.73544079E-05 -6.18173780E-10  2.26279850E-08 -2.22712072E-08  1.00141438E-06
  1.69303538E-08  2.55628092E-06 -1.61090816E-10 -6.71281575E-10 -2.96351598E-10
 -2.34919610E-05 -3.99194783E-07  1.03711061E-08 -4.22741781E-09  1.41876384E-04
  2.41005959E-06  1.99167118E-08 -1.01032621E-08 -3.62291139E-04 -6.15684367E-06
 -1.58055856E-11  2.26510250E-08 -2.32993882E-08 -1.71699919E-05 -2.91279386E-07
  2.64599023E-06 -8.33159445E-09 -3.65245026E-08  2.93590205E-08  9.30680616E-07
 -5.48658805E-05  2.68219331E-07 -2.26297660E-07 -4.27357578E-06  2.52192501E-04
  3.95556575E-07  6.02200068E-06 -4.29352164E-06  2.52221170E-04 -4.76269518E-08
 -6.28032769E-05  6.28188668E-05  1.83802713E-06 -1.08301091E-04  7.23941786E-07
 -1.46991230E-08  6.77923942E-08  6.67466740E-05 -1.68134860E-02  9.90703232E-01
  2.32588812E-08  1.92996491E-06 -5.02076540E-04  2.95838895E-02 -3.66484961E-07
 -7.25524786E-07  1.96322749E-04 -1.15678744E-02  4.95066974E-06  1.80038615E-06
 -8.71824353E-05  5.13695348E-03  1.83019560E-08  4.18073625E-06 -4.16919529E-06
 -3.04444612E-06  1.79378256E-04 -4.65369901E-08  9.96959870E-05 -6.03489370E-04
  4.24173829E-03  1.81393531E-04  6.00871711E-07 -9.94002915E-05 -4.85884418E-05
  2.93735019E-04 -2.06646419E-03 -8.83488469E-05 -3.08138932E-05 -4.33454187E-05
 -5.11142284E-05  3.09039296E-04 -2.17404535E-03 -9.29497381E-05  3.33855432E-05
 -4.41345206E-05  1.09784730E-08  4.89504593E-08 -2.11551240E-08 -9.80851888E-07