 Entering Gaussian System, Link 0=g16
 Initial command:
 /usr/local/g16_AVX//g16/l1.exe "/scratch/alanqf/0107-54549.ixchel.mda.cinvestav.mx/Gau-34922.inp" -scrdir="/scratch/alanqf/0107-54549.ixchel.mda.cinvestav.mx/"
 Entering Link 1 = /usr/local/g16_AVX//g16/l1.exe PID=     34923.
  
 Copyright (c) 1988-2017, Gaussian, Inc.  All Rights Reserved.
  
 This is part of the Gaussian(R) 16 program.  It is based on
 the Gaussian(R) 09 system (copyright 2009, Gaussian, Inc.),
 the Gaussian(R) 03 system (copyright 2003, Gaussian, Inc.),
 the Gaussian(R) 98 system (copyright 1998, Gaussian, Inc.),
 the Gaussian(R) 94 system (copyright 1995, Gaussian, Inc.),
 the Gaussian 92(TM) system (copyright 1992, Gaussian, Inc.),
 the Gaussian 90(TM) system (copyright 1990, Gaussian, Inc.),
 the Gaussian 88(TM) system (copyright 1988, Gaussian, Inc.),
 the Gaussian 86(TM) system (copyright 1986, Carnegie Mellon
 University), and the Gaussian 82(TM) system (copyright 1983,
 Carnegie Mellon University). Gaussian is a federally registered
 trademark of Gaussian, Inc.
  
 This software contains proprietary and confidential information,
 including trade secrets, belonging to Gaussian, Inc.
  
 This software is provided under written license and may be
 used, copied, transmitted, or stored only in accord with that
 written license.
  
 The following legend is applicable only to US Government
 contracts under FAR:
  
                    RESTRICTED RIGHTS LEGEND
  
 Use, reproduction and disclosure by the US Government is
 subject to restrictions as set forth in subparagraphs (a)
 and (c) of the Commercial Computer Software - Restricted
 Rights clause in FAR 52.227-19.
  
 Gaussian, Inc.
 340 Quinnipiac St., Bldg. 40, Wallingford CT 06492
  
  
 ---------------------------------------------------------------
 Warning -- This program may not be used in any manner that
 competes with the business of Gaussian, Inc. or will provide
 assistance to any competitor of Gaussian, Inc.  The licensee
 of this program is prohibited from giving any competitor of
 Gaussian, Inc. access to this program.  By using this program,
 the user acknowledges that Gaussian, Inc. is engaged in the
 business of creating and licensing software in the field of
 computational chemistry and represents and warrants to the
 licensee that it is not a competitor of Gaussian, Inc. and that
 it will not use this program in any manner prohibited above.
 ---------------------------------------------------------------
  

 Cite this work as:
 Gaussian 16, Revision B.01,
 M. J. Frisch, G. W. Trucks, H. B. Schlegel, G. E. Scuseria, 
 M. A. Robb, J. R. Cheeseman, G. Scalmani, V. Barone, 
 G. A. Petersson, H. Nakatsuji, X. Li, M. Caricato, A. V. Marenich, 
 J. Bloino, B. G. Janesko, R. Gomperts, B. Mennucci, H. P. Hratchian, 
 J. V. Ortiz, A. F. Izmaylov, J. L. Sonnenberg, D. Williams-Young, 
 F. Ding, F. Lipparini, F. Egidi, J. Goings, B. Peng, A. Petrone, 
 T. Henderson, D. Ranasinghe, V. G. Zakrzewski, J. Gao, N. Rega, 
 G. Zheng, W. Liang, M. Hada, M. Ehara, K. Toyota, R. Fukuda, 
 J. Hasegawa, M. Ishida, T. Nakajima, Y. Honda, O. Kitao, H. Nakai, 
 T. Vreven, K. Throssell, J. A. Montgomery, Jr., J. E. Peralta, 
 F. Ogliaro, M. J. Bearpark, J. J. Heyd, E. N. Brothers, K. N. Kudin, 
 V. N. Staroverov, T. A. Keith, R. Kobayashi, J. Normand, 
 K. Raghavachari, A. P. Rendell, J. C. Burant, S. S. Iyengar, 
 J. Tomasi, M. Cossi, J. M. Millam, M. Klene, C. Adamo, R. Cammi, 
 J. W. Ochterski, R. L. Martin, K. Morokuma, O. Farkas, 
 J. B. Foresman, and D. J. Fox, Gaussian, Inc., Wallingford CT, 2016.
 
 ******************************************
 Gaussian 16:  ES64L-G16RevB.01 20-Dec-2017
                13-Oct-2024 
 ******************************************
 %NProcShared=26
 Will use up to   26 processors via shared memory.
 %MEM=20GB
 %chk=CHKfiles/0107.chk
 ---------------------------------------------------------------------
 #p b3lyp 6-31++g(d,p) scf=verytight NoSymm freq=noraman int=ultrafine
 ---------------------------------------------------------------------
 1/10=4,30=1,38=1/1,3;
 2/12=2,15=1,17=6,18=5,40=1/2;
 3/5=1,6=6,7=1111,11=2,25=1,30=1,71=2,74=-5,75=-5,140=1/1,2,3;
 4//1;
 5/5=2,17=3,38=5,98=1/2;
 8/6=4,10=90,11=11/1;
 11/6=1,8=1,9=11,15=111,16=1,31=1/1,2,10;
 10/6=1,31=1/2;
 6/7=2,8=2,9=2,10=2,28=1/1;
 7/8=1,10=1,25=1,30=1/1,2,3,16;
 1/10=4,30=1/3;
 99//99;
 Leave Link    1 at Sun Oct 13 09:50:52 2024, MaxMem=  2684354560 cpu:               1.2 elap:               0.1
 (Enter /usr/local/g16_AVX//g16/l101.exe)
 ------------------------
 RxCoord=0.59984 DE=54.37
 ------------------------
 Symbolic Z-matrix:
 Charge = -1 Multiplicity = 1
 C                    -0.07107   0.00001  -0.00014 
 Cl                   -2.18862  0.         0.00005 
 H                     0.09283   0.00249  -1.06514 
 H                     0.09311   0.92112   0.53441 
 H                     0.0931   -0.92359   0.53011 
 C                     2.33136   0.00001  -0.00022 
 N                     3.50842  -0.00001   0.00023 
 
 ITRead=  0  0  0  0  0  0  0
 MicOpt= -1 -1 -1 -1 -1 -1 -1
 NAtoms=      7 NQM=        7 NQMF=       0 NMMI=      0 NMMIF=      0
                NMic=       0 NMicF=      0.
                    Isotopes and Nuclear Properties:
 (Nuclear quadrupole moments (NQMom) in fm**2, nuclear magnetic moments (NMagM)
  in nuclear magnetons)

  Atom         1           2           3           4           5           6           7
 IAtWgt=          12          35           1           1           1          12          14
 AtmWgt=  12.0000000  34.9688527   1.0078250   1.0078250   1.0078250  12.0000000  14.0030740
 NucSpn=           0           3           1           1           1           0           2
 AtZEff=  -0.0000000  -0.0000000  -0.0000000  -0.0000000  -0.0000000  -0.0000000  -0.0000000
 NQMom=    0.0000000  -8.1650000   0.0000000   0.0000000   0.0000000   0.0000000   2.0440000
 NMagM=    0.0000000   0.8218740   2.7928460   2.7928460   2.7928460   0.0000000   0.4037610
 AtZNuc=   6.0000000  17.0000000   1.0000000   1.0000000   1.0000000   6.0000000   7.0000000
 Leave Link  101 at Sun Oct 13 09:50:53 2024, MaxMem=  2684354560 cpu:               2.8 elap:               0.1
 (Enter /usr/local/g16_AVX//g16/l103.exe)

 GradGradGradGradGradGradGradGradGradGradGradGradGradGradGradGradGradGrad
 Berny optimization.
 Initialization pass.
 Trust Radius=3.00D-01 FncErr=1.00D-07 GrdErr=1.00D-07 EigMax=2.50D+02 EigMin=1.00D-04
 Number of steps in this run=      2 maximum allowed number of steps=      2.
 GradGradGradGradGradGradGradGradGradGradGradGradGradGradGradGradGradGrad

 Leave Link  103 at Sun Oct 13 09:50:53 2024, MaxMem=  2684354560 cpu:               0.5 elap:               0.0
 (Enter /usr/local/g16_AVX//g16/l202.exe)
                          Input orientation:                          
 ---------------------------------------------------------------------
 Center     Atomic      Atomic             Coordinates (Angstroms)
 Number     Number       Type             X           Y           Z
 ---------------------------------------------------------------------
      1          6           0       -0.071065    0.000007   -0.000139
      2         17           0       -2.188617   -0.000001    0.000051
      3          1           0        0.092831    0.002488   -1.065136
      4          1           0        0.093109    0.921120    0.534410
      5          1           0        0.093104   -0.923589    0.530110
      6          6           0        2.331357    0.000005   -0.000221
      7          7           0        3.508421   -0.000008    0.000225
 ---------------------------------------------------------------------
                    Distance matrix (angstroms):
                    1          2          3          4          5
     1  C    0.000000
     2  Cl   2.117552   0.000000
     3  H    1.077537   2.517863   0.000000
     4  H    1.077564   2.517991   1.844568   0.000000
     5  H    1.077564   2.517981   1.844567   1.844714   0.000000
     6  C    2.402422   4.519974   2.478921   2.478717   2.478720
     7  N    3.579486   5.697038   3.577884   3.577455   3.577453
                    6          7
     6  C    0.000000
     7  N    1.177064   0.000000
 Symmetry turned off by external request.
 This structure is nearly, but not quite of a higher symmetry.
 Consider Symm=Loose if the higher symmetry is desired.
 Stoichiometry    C2H3ClN(1-)
 Framework group  C1[X(C2H3ClN)]
 Deg. of freedom    15
 Full point group                 C1      NOp   1
 Rotational constants (GHZ):         147.3735845           1.2420521           1.2420510
 Leave Link  202 at Sun Oct 13 09:50:53 2024, MaxMem=  2684354560 cpu:               0.2 elap:               0.0
 (Enter /usr/local/g16_AVX//g16/l301.exe)
 Standard basis: 6-31++G(d,p) (6D, 7F)
 Ernie: Thresh=  0.10000D-02 Tol=  0.10000D-05 Strict=F.
    98 basis functions,   176 primitive gaussians,    98 cartesian basis functions
    20 alpha electrons       20 beta electrons
       nuclear repulsion energy       108.8732946330 Hartrees.
 IExCor=  402 DFT=T Ex+Corr=B3LYP ExCW=0 ScaHFX=  0.200000
 ScaDFX=  0.800000  0.720000  1.000000  0.810000 ScalE2=  1.000000  1.000000
 IRadAn=      5 IRanWt=     -1 IRanGd=            0 ICorTp=0 IEmpDi=  4
 NAtoms=    7 NActive=    7 NUniq=    7 SFac= 1.00D+00 NAtFMM=   60 NAOKFM=F Big=F
 Integral buffers will be    131072 words long.
 Raffenetti 2 integral format.
 Two-electron integral symmetry is turned off.
 Leave Link  301 at Sun Oct 13 09:50:53 2024, MaxMem=  2684354560 cpu:               1.4 elap:               0.1
 (Enter /usr/local/g16_AVX//g16/l302.exe)
 NPDir=0 NMtPBC=     1 NCelOv=     1 NCel=       1 NClECP=     1 NCelD=      1
         NCelK=      1 NCelE2=     1 NClLst=     1 CellRange=     0.0.
 One-electron integrals computed using PRISM.
 NBasis=    98 RedAO= T EigKep=  1.23D-04  NBF=    98
 NBsUse=    98 1.00D-06 EigRej= -1.00D+00 NBFU=    98
 Precomputing XC quadrature grid using
 IXCGrd= 4 IRadAn=           5 IRanWt=          -1 IRanGd=           0 AccXCQ= 0.00D+00.
 Generated NRdTot=       0 NPtTot=           0 NUsed=           0 NTot=          32
 NSgBfM=    98    98    98    98    98 MxSgAt=     7 MxSgA2=     7.
 Leave Link  302 at Sun Oct 13 09:50:53 2024, MaxMem=  2684354560 cpu:               3.9 elap:               0.2
 (Enter /usr/local/g16_AVX//g16/l303.exe)
 DipDrv:  MaxL=1.
 Leave Link  303 at Sun Oct 13 09:50:53 2024, MaxMem=  2684354560 cpu:               0.7 elap:               0.1
 (Enter /usr/local/g16_AVX//g16/l401.exe)
 ExpMin= 3.60D-02 ExpMax= 2.52D+04 ExpMxC= 3.78D+03 IAcc=3 IRadAn=         5 AccDes= 0.00D+00
 Harris functional with IExCor=  402 and IRadAn=       5 diagonalized for initial guess.
 HarFok:  IExCor=  402 AccDes= 0.00D+00 IRadAn=         5 IDoV= 1 UseB2=F ITyADJ=14
 ICtDFT=  3500011 ScaDFX=  1.000000  1.000000  1.000000  1.000000
 FoFCou: FMM=F IPFlag=           0 FMFlag=      100000 FMFlg1=           0
         NFxFlg=           0 DoJE=T BraDBF=F KetDBF=T FulRan=T
         wScrn=  0.000000 ICntrl=       500 IOpCl=  0 I1Cent=   200000004 NGrid=           0
         NMat0=    1 NMatS0=      1 NMatT0=    0 NMatD0=    1 NMtDS0=    0 NMtDT0=    0
 Symmetry not used in FoFCou.
 Harris En= -593.049921139279    
 JPrj=0 DoOrth=F DoCkMO=F.
 Leave Link  401 at Sun Oct 13 09:50:53 2024, MaxMem=  2684354560 cpu:               5.8 elap:               0.3
 (Enter /usr/local/g16_AVX//g16/l502.exe)
 Keep R1 ints in memory in canonical form, NReq=35752935.
 FoFCou: FMM=F IPFlag=           0 FMFlag=           0 FMFlg1=           0
         NFxFlg=           0 DoJE=F BraDBF=F KetDBF=F FulRan=T
         wScrn=  0.000000 ICntrl=       600 IOpCl=  0 I1Cent=           0 NGrid=           0
         NMat0=    1 NMatS0=   4851 NMatT0=    0 NMatD0=    1 NMtDS0=    0 NMtDT0=    0
 Symmetry not used in FoFCou.
 Two-electron integral symmetry not used.
 Closed shell SCF:
 Using DIIS extrapolation, IDIIS=  1040.
 NGot=  2684354560 LenX=  2672563405 LenY=  2672553360
 Requested convergence on RMS density matrix=1.00D-08 within 128 cycles.
 Requested convergence on MAX density matrix=1.00D-06.
 Requested convergence on             energy=1.00D-06.
 No special actions if energy rises.

 Cycle   1  Pass 1  IDiag  1:
 E= -592.844125662251    
 DIIS: error= 3.33D-02 at cycle   1 NSaved=   1.
 NSaved= 1 IEnMin= 1 EnMin= -592.844125662251     IErMin= 1 ErrMin= 3.33D-02
 ErrMax= 3.33D-02  0.00D+00 EMaxC= 1.00D-01 BMatC= 1.21D-01 BMatP= 1.21D-01
 IDIUse=3 WtCom= 6.67D-01 WtEn= 3.33D-01
 Coeff-Com:  0.100D+01
 Coeff-En:   0.100D+01
 Coeff:      0.100D+01
 Gap=     0.373 Goal=   None    Shift=    0.000
 GapD=    0.373 DampG=1.000 DampE=0.500 DampFc=0.5000 IDamp=-1.
 Damping current iteration by 5.00D-01
 RMSDP=3.81D-02 MaxDP=1.10D+00              OVMax= 3.35D-01

 Cycle   2  Pass 1  IDiag  1:
 E= -592.882933814873     Delta-E=       -0.038808152622 Rises=F Damp=T
 DIIS: error= 1.14D-02 at cycle   2 NSaved=   2.
 NSaved= 2 IEnMin= 2 EnMin= -592.882933814873     IErMin= 2 ErrMin= 1.14D-02
 ErrMax= 1.14D-02  0.00D+00 EMaxC= 1.00D-01 BMatC= 1.57D-02 BMatP= 1.21D-01
 IDIUse=3 WtCom= 8.86D-01 WtEn= 1.14D-01
 Coeff-Com:  0.195D+00 0.805D+00
 Coeff-En:   0.347D+00 0.653D+00
 Coeff:      0.212D+00 0.788D+00
 Gap=     0.225 Goal=   None    Shift=    0.000
 RMSDP=1.73D-02 MaxDP=5.68D-01 DE=-3.88D-02 OVMax= 2.41D-01

 Cycle   3  Pass 1  IDiag  1:
 E= -592.975397093828     Delta-E=       -0.092463278956 Rises=F Damp=F
 DIIS: error= 1.58D-02 at cycle   3 NSaved=   3.
 NSaved= 3 IEnMin= 3 EnMin= -592.975397093828     IErMin= 2 ErrMin= 1.14D-02
 ErrMax= 1.58D-02  0.00D+00 EMaxC= 1.00D-01 BMatC= 1.28D-02 BMatP= 1.57D-02
 IDIUse=3 WtCom= 8.42D-01 WtEn= 1.58D-01
 Coeff-Com:  0.645D-01 0.473D+00 0.463D+00
 Coeff-En:   0.000D+00 0.000D+00 0.100D+01
 Coeff:      0.543D-01 0.398D+00 0.548D+00
 Gap=     0.214 Goal=   None    Shift=    0.000
 RMSDP=2.00D-03 MaxDP=3.54D-02 DE=-9.25D-02 OVMax= 6.35D-02

 Cycle   4  Pass 1  IDiag  1:
 E= -592.979899582057     Delta-E=       -0.004502488228 Rises=F Damp=F
 DIIS: error= 1.35D-02 at cycle   4 NSaved=   4.
 NSaved= 4 IEnMin= 4 EnMin= -592.979899582057     IErMin= 2 ErrMin= 1.14D-02
 ErrMax= 1.35D-02  0.00D+00 EMaxC= 1.00D-01 BMatC= 8.21D-03 BMatP= 1.28D-02
 IDIUse=3 WtCom= 8.65D-01 WtEn= 1.35D-01
 Coeff-Com: -0.467D-02 0.931D-01 0.434D+00 0.478D+00
 Coeff-En:   0.000D+00 0.000D+00 0.413D+00 0.587D+00
 Coeff:     -0.404D-02 0.806D-01 0.431D+00 0.493D+00
 Gap=     0.204 Goal=   None    Shift=    0.000
 RMSDP=1.13D-03 MaxDP=1.93D-02 DE=-4.50D-03 OVMax= 3.22D-02

 Cycle   5  Pass 1  IDiag  1:
 E= -592.986995709414     Delta-E=       -0.007096127358 Rises=F Damp=F
 DIIS: error= 2.37D-03 at cycle   5 NSaved=   5.
 NSaved= 5 IEnMin= 5 EnMin= -592.986995709414     IErMin= 5 ErrMin= 2.37D-03
 ErrMax= 2.37D-03  0.00D+00 EMaxC= 1.00D-01 BMatC= 4.81D-04 BMatP= 8.21D-03
 IDIUse=3 WtCom= 9.76D-01 WtEn= 2.37D-02
 Coeff-Com: -0.649D-02 0.191D-01 0.215D+00 0.301D+00 0.471D+00
 Coeff-En:   0.000D+00 0.000D+00 0.000D+00 0.248D-01 0.975D+00
 Coeff:     -0.633D-02 0.187D-01 0.210D+00 0.294D+00 0.483D+00
 Gap=     0.207 Goal=   None    Shift=    0.000
 RMSDP=4.47D-04 MaxDP=6.57D-03 DE=-7.10D-03 OVMax= 1.29D-02

 Cycle   6  Pass 1  IDiag  1:
 E= -592.987550463438     Delta-E=       -0.000554754023 Rises=F Damp=F
 DIIS: error= 3.41D-04 at cycle   6 NSaved=   6.
 NSaved= 6 IEnMin= 6 EnMin= -592.987550463438     IErMin= 6 ErrMin= 3.41D-04
 ErrMax= 3.41D-04  0.00D+00 EMaxC= 1.00D-01 BMatC= 1.21D-05 BMatP= 4.81D-04
 IDIUse=3 WtCom= 9.97D-01 WtEn= 3.41D-03
 Coeff-Com: -0.215D-02-0.380D-03 0.630D-01 0.942D-01 0.216D+00 0.630D+00
 Coeff-En:   0.000D+00 0.000D+00 0.000D+00 0.000D+00 0.000D+00 0.100D+01
 Coeff:     -0.215D-02-0.379D-03 0.628D-01 0.939D-01 0.215D+00 0.631D+00
 Gap=     0.206 Goal=   None    Shift=    0.000
 RMSDP=6.57D-05 MaxDP=1.34D-03 DE=-5.55D-04 OVMax= 1.41D-03

 Cycle   7  Pass 1  IDiag  1:
 E= -592.987562613623     Delta-E=       -0.000012150185 Rises=F Damp=F
 DIIS: error= 7.38D-05 at cycle   7 NSaved=   7.
 NSaved= 7 IEnMin= 7 EnMin= -592.987562613623     IErMin= 7 ErrMin= 7.38D-05
 ErrMax= 7.38D-05  0.00D+00 EMaxC= 1.00D-01 BMatC= 7.75D-07 BMatP= 1.21D-05
 IDIUse=1 WtCom= 1.00D+00 WtEn= 0.00D+00
 Coeff-Com: -0.209D-03-0.853D-03 0.694D-02 0.107D-01 0.451D-01 0.266D+00
 Coeff-Com:  0.673D+00
 Coeff:     -0.209D-03-0.853D-03 0.694D-02 0.107D-01 0.451D-01 0.266D+00
 Coeff:      0.673D+00
 Gap=     0.206 Goal=   None    Shift=    0.000
 RMSDP=2.01D-05 MaxDP=4.91D-04 DE=-1.22D-05 OVMax= 4.70D-04

 Cycle   8  Pass 1  IDiag  1:
 E= -592.987563519179     Delta-E=       -0.000000905556 Rises=F Damp=F
 DIIS: error= 2.55D-05 at cycle   8 NSaved=   8.
 NSaved= 8 IEnMin= 8 EnMin= -592.987563519179     IErMin= 8 ErrMin= 2.55D-05
 ErrMax= 2.55D-05  0.00D+00 EMaxC= 1.00D-01 BMatC= 7.96D-08 BMatP= 7.75D-07
 IDIUse=1 WtCom= 1.00D+00 WtEn= 0.00D+00
 Coeff-Com:  0.173D-03-0.685D-03-0.265D-02-0.337D-02 0.229D-02 0.624D-01
 Coeff-Com:  0.305D+00 0.637D+00
 Coeff:      0.173D-03-0.685D-03-0.265D-02-0.337D-02 0.229D-02 0.624D-01
 Coeff:      0.305D+00 0.637D+00
 Gap=     0.206 Goal=   None    Shift=    0.000
 RMSDP=3.81D-06 MaxDP=9.64D-05 DE=-9.06D-07 OVMax= 8.61D-05

 Cycle   9  Pass 1  IDiag  1:
 E= -592.987563609070     Delta-E=       -0.000000089891 Rises=F Damp=F
 DIIS: error= 3.88D-06 at cycle   9 NSaved=   9.
 NSaved= 9 IEnMin= 9 EnMin= -592.987563609070     IErMin= 9 ErrMin= 3.88D-06
 ErrMax= 3.88D-06  0.00D+00 EMaxC= 1.00D-01 BMatC= 8.40D-10 BMatP= 7.96D-08
 IDIUse=1 WtCom= 1.00D+00 WtEn= 0.00D+00
 Coeff-Com:  0.627D-04-0.129D-03-0.871D-03-0.106D-02-0.121D-02 0.107D-02
 Coeff-Com:  0.385D-01 0.135D+00 0.829D+00
 Coeff:      0.627D-04-0.129D-03-0.871D-03-0.106D-02-0.121D-02 0.107D-02
 Coeff:      0.385D-01 0.135D+00 0.829D+00
 Gap=     0.206 Goal=   None    Shift=    0.000
 RMSDP=1.40D-06 MaxDP=3.32D-05 DE=-8.99D-08 OVMax= 9.01D-06

 Cycle  10  Pass 1  IDiag  1:
 E= -592.987563610081     Delta-E=       -0.000000001011 Rises=F Damp=F
 DIIS: error= 3.46D-07 at cycle  10 NSaved=  10.
 NSaved=10 IEnMin=10 EnMin= -592.987563610081     IErMin=10 ErrMin= 3.46D-07
 ErrMax= 3.46D-07  0.00D+00 EMaxC= 1.00D-01 BMatC= 1.08D-11 BMatP= 8.40D-10
 IDIUse=1 WtCom= 1.00D+00 WtEn= 0.00D+00
 Coeff-Com:  0.543D-05-0.225D-05-0.563D-04-0.694D-04-0.175D-03-0.943D-03
 Coeff-Com: -0.243D-02 0.665D-02 0.101D+00 0.896D+00
 Coeff:      0.543D-05-0.225D-05-0.563D-04-0.694D-04-0.175D-03-0.943D-03
 Coeff:     -0.243D-02 0.665D-02 0.101D+00 0.896D+00
 Gap=     0.206 Goal=   None    Shift=    0.000
 RMSDP=8.68D-08 MaxDP=2.12D-06 DE=-1.01D-09 OVMax= 1.64D-06

 Cycle  11  Pass 1  IDiag  1:
 E= -592.987563610095     Delta-E=       -0.000000000014 Rises=F Damp=F
 DIIS: error= 6.03D-08 at cycle  11 NSaved=  11.
 NSaved=11 IEnMin=11 EnMin= -592.987563610095     IErMin=11 ErrMin= 6.03D-08
 ErrMax= 6.03D-08  0.00D+00 EMaxC= 1.00D-01 BMatC= 3.30D-13 BMatP= 1.08D-11
 IDIUse=1 WtCom= 1.00D+00 WtEn= 0.00D+00
 Coeff-Com: -0.614D-06 0.176D-05 0.315D-05 0.367D-05-0.147D-04-0.837D-04
 Coeff-Com: -0.835D-03-0.704D-03 0.126D-02 0.122D+00 0.878D+00
 Coeff:     -0.614D-06 0.176D-05 0.315D-05 0.367D-05-0.147D-04-0.837D-04
 Coeff:     -0.835D-03-0.704D-03 0.126D-02 0.122D+00 0.878D+00
 Gap=     0.206 Goal=   None    Shift=    0.000
 RMSDP=1.21D-08 MaxDP=2.46D-07 DE=-1.40D-11 OVMax= 2.31D-07

 Cycle  12  Pass 1  IDiag  1:
 E= -592.987563610097     Delta-E=       -0.000000000002 Rises=F Damp=F
 DIIS: error= 7.80D-09 at cycle  12 NSaved=  12.
 NSaved=12 IEnMin=12 EnMin= -592.987563610097     IErMin=12 ErrMin= 7.80D-09
 ErrMax= 7.80D-09  0.00D+00 EMaxC= 1.00D-01 BMatC= 6.59D-15 BMatP= 3.30D-13
 IDIUse=1 WtCom= 1.00D+00 WtEn= 0.00D+00
 Coeff-Com: -0.272D-06 0.444D-06 0.101D-05 0.121D-05-0.667D-06 0.249D-05
 Coeff-Com: -0.685D-04-0.256D-03-0.168D-02 0.366D-02 0.155D+00 0.843D+00
 Coeff:     -0.272D-06 0.444D-06 0.101D-05 0.121D-05-0.667D-06 0.249D-05
 Coeff:     -0.685D-04-0.256D-03-0.168D-02 0.366D-02 0.155D+00 0.843D+00
 Gap=     0.206 Goal=   None    Shift=    0.000
 RMSDP=2.82D-09 MaxDP=5.04D-08 DE=-1.59D-12 OVMax= 4.14D-08

 SCF Done:  E(RB3LYP) =  -592.987563610     A.U. after   12 cycles
            NFock= 12  Conv=0.28D-08     -V/T= 2.0047
 KE= 5.902348707263D+02 PE=-1.627832622047D+03 EE= 3.357368930772D+02
 Leave Link  502 at Sun Oct 13 09:50:55 2024, MaxMem=  2684354560 cpu:              35.3 elap:               1.6
 (Enter /usr/local/g16_AVX//g16/l801.exe)
 DoSCS=F DFT=T ScalE2(SS,OS)=  1.000000  1.000000
 Range of M.O.s used for correlation:     1    98
 NBasis=    98 NAE=    20 NBE=    20 NFC=     0 NFV=     0
 NROrb=     98 NOA=    20 NOB=    20 NVA=    78 NVB=    78

 **** Warning!!: The largest alpha MO coefficient is  0.29365087D+02

 Leave Link  801 at Sun Oct 13 09:50:55 2024, MaxMem=  2684354560 cpu:               0.6 elap:               0.1
 (Enter /usr/local/g16_AVX//g16/l1101.exe)
 Using compressed storage, NAtomX=     7.
 Will process      8 centers per pass.
 Leave Link 1101 at Sun Oct 13 09:50:55 2024, MaxMem=  2684354560 cpu:               3.4 elap:               0.2
 (Enter /usr/local/g16_AVX//g16/l1102.exe)
 Symmetrizing basis deriv contribution to polar:
 IMax=3 JMax=2 DiffMx= 0.00D+00
 Leave Link 1102 at Sun Oct 13 09:50:55 2024, MaxMem=  2684354560 cpu:               0.7 elap:               0.1
 (Enter /usr/local/g16_AVX//g16/l1110.exe)
 Forming Gx(P) for the SCF density, NAtomX=     7.
 Integral derivatives from FoFJK, PRISM(SPDF).
 Do as many integral derivatives as possible in FoFJK.
 G2DrvN: MDV=    2684353864.
 G2DrvN: will do     8 centers at a time, making    1 passes.
 Calling FoFCou, ICntrl=  3107 FMM=F I1Cent=   0 AccDes= 0.00D+00.
 FoFJK:  IHMeth= 1 ICntrl=    3107 DoSepK=F KAlg= 0 I1Cent=           0 FoldK=F
 IRaf=         0 NMat=       1 IRICut=       1 DoRegI=T DoRafI=F ISym2E= 0 IDoP0=0 IntGTp=1.
 FoFCou: FMM=F IPFlag=           0 FMFlag=      100000 FMFlg1=           0
         NFxFlg=           0 DoJE=F BraDBF=F KetDBF=F FulRan=T
         wScrn=  0.000000 ICntrl=      3107 IOpCl=  0 I1Cent=           0 NGrid=           0
         NMat0=    1 NMatS0=      1 NMatT0=    0 NMatD0=    1 NMtDS0=    0 NMtDT0=    0
 Symmetry not used in FoFCou.
 End of G2Drv F.D. properties file   721 does not exist.
 End of G2Drv F.D. properties file   722 does not exist.
 End of G2Drv F.D. properties file   788 does not exist.
 Leave Link 1110 at Sun Oct 13 09:50:57 2024, MaxMem=  2684354560 cpu:              38.9 elap:               1.5
 (Enter /usr/local/g16_AVX//g16/l1002.exe)
 Minotr:  Closed shell wavefunction.
          IDoAtm=1111111
          Direct CPHF calculation.
          Differentiating once with respect to electric field.
                with respect to dipole field.
          Differentiating once with respect to nuclear coordinates.
          Requested convergence is 1.0D-08 RMS, and 1.0D-07 maximum.
          Secondary convergence is 1.0D-12 RMS, and 1.0D-12 maximum.
          NewPWx=T KeepS1=F KeepF1=F KeepIn=T MapXYZ=F SortEE=F KeepMc=T.
         2136 words used for storage of precomputed grid.
 Keep R1 ints in memory in canonical form, NReq=35668397.
 FoFCou: FMM=F IPFlag=           0 FMFlag=           0 FMFlg1=           0
         NFxFlg=           0 DoJE=F BraDBF=F KetDBF=F FulRan=T
         wScrn=  0.000000 ICntrl=       600 IOpCl=  0 I1Cent=           0 NGrid=           0
         NMat0=    1 NMatS0=   4851 NMatT0=    0 NMatD0=    1 NMtDS0=    0 NMtDT0=    0
 Symmetry not used in FoFCou.
 Two-electron integral symmetry not used.
          MDV=    2684354560 using IRadAn=       1.
          Solving linear equations simultaneously, MaxMat=       0.
          There are    24 degrees of freedom in the 1st order CPHF.  IDoFFX=6 NUNeed=     3.
     21 vectors produced by pass  0 Test12= 6.50D-15 4.17D-09 XBig12= 1.42D+02 7.73D+00.
 AX will form    21 AO Fock derivatives at one time.
     21 vectors produced by pass  1 Test12= 6.50D-15 4.17D-09 XBig12= 4.44D+01 1.96D+00.
     21 vectors produced by pass  2 Test12= 6.50D-15 4.17D-09 XBig12= 7.07D-01 2.70D-01.
     21 vectors produced by pass  3 Test12= 6.50D-15 4.17D-09 XBig12= 3.14D-03 1.28D-02.
     21 vectors produced by pass  4 Test12= 6.50D-15 4.17D-09 XBig12= 1.19D-05 8.22D-04.
     17 vectors produced by pass  5 Test12= 6.50D-15 4.17D-09 XBig12= 1.82D-08 3.08D-05.
      6 vectors produced by pass  6 Test12= 6.50D-15 4.17D-09 XBig12= 2.00D-11 1.03D-06.
      1 vectors produced by pass  7 Test12= 6.50D-15 4.17D-09 XBig12= 1.91D-14 3.13D-08.
 InvSVY:  IOpt=1 It=  1 EMax= 6.73D-15
 Solved reduced A of dimension   129 with    24 vectors.
 FullF1:  Do perturbations      1 to       3.
 Isotropic polarizability for W=    0.000000       65.98 Bohr**3.
 End of Minotr F.D. properties file   721 does not exist.
 End of Minotr F.D. properties file   722 does not exist.
 End of Minotr F.D. properties file   788 does not exist.
 Leave Link 1002 at Sun Oct 13 09:50:59 2024, MaxMem=  2684354560 cpu:              54.0 elap:               2.1
 (Enter /usr/local/g16_AVX//g16/l601.exe)
 Copying SCF densities to generalized density rwf, IOpCl= 0 IROHF=0.

 **********************************************************************

            Population analysis using the SCF Density.

 **********************************************************************

 Alpha  occ. eigenvalues -- -101.35907 -14.12384 -10.10976  -9.99279  -9.27399
 Alpha  occ. eigenvalues --   -7.03549  -7.02961  -7.02961  -0.67847  -0.64116
 Alpha  occ. eigenvalues --   -0.54189  -0.30512  -0.30510  -0.23185  -0.19025
 Alpha  occ. eigenvalues --   -0.14165  -0.14165  -0.12541  -0.12541  -0.09392
 Alpha virt. eigenvalues --    0.11216   0.12520   0.14873   0.14873   0.16042
 Alpha virt. eigenvalues --    0.19111   0.20418   0.20418   0.22287   0.22288
 Alpha virt. eigenvalues --    0.24794   0.24794   0.25034   0.25937   0.25937
 Alpha virt. eigenvalues --    0.26008   0.31013   0.34246   0.34246   0.37434
 Alpha virt. eigenvalues --    0.37496   0.37496   0.38086   0.45824   0.47066
 Alpha virt. eigenvalues --    0.73173   0.76692   0.76692   0.76864   0.79992
 Alpha virt. eigenvalues --    0.79994   0.87405   0.87405   0.88803   0.98231
 Alpha virt. eigenvalues --    1.00043   1.04014   1.04015   1.08059   1.08060
 Alpha virt. eigenvalues --    1.09769   1.09770   1.12820   1.17277   1.17277
 Alpha virt. eigenvalues --    1.24481   1.32524   1.38605   1.51185   1.60088
 Alpha virt. eigenvalues --    1.60091   1.75160   1.75160   1.77341   1.77341
 Alpha virt. eigenvalues --    1.83045   2.13137   2.15213   2.15224   2.17438
 Alpha virt. eigenvalues --    2.17439   2.17578   2.57164   2.61444   2.61451
 Alpha virt. eigenvalues --    2.80616   2.80617   2.83081   2.92391   2.92404
 Alpha virt. eigenvalues --    3.25167   3.44854   3.57579   3.57591   4.19866
 Alpha virt. eigenvalues --    4.46005   4.49000   4.57728
          Condensed to atoms (all electrons):
               1          2          3          4          5          6
     1  C    5.415462  -0.170741   0.430340   0.430346   0.430347  -0.162089
     2  Cl  -0.170741  17.683651  -0.049481  -0.049473  -0.049473   0.101666
     3  H    0.430340  -0.049481   0.497199  -0.020470  -0.020470  -0.047227
     4  H    0.430346  -0.049473  -0.020470   0.497178  -0.020452  -0.047230
     5  H    0.430347  -0.049473  -0.020470  -0.020452   0.497178  -0.047231
     6  C   -0.162089   0.101666  -0.047227  -0.047230  -0.047231   5.751929
     7  N   -0.022691  -0.002543  -0.001722  -0.001725  -0.001726   0.711648
               7
     1  C   -0.022691
     2  Cl  -0.002543
     3  H   -0.001722
     4  H   -0.001725
     5  H   -0.001726
     6  C    0.711648
     7  N    6.878190
 Mulliken charges:
               1
     1  C   -0.350975
     2  Cl  -0.463607
     3  H    0.211829
     4  H    0.211826
     5  H    0.211825
     6  C   -0.261467
     7  N   -0.559431
 Sum of Mulliken charges =  -1.00000
 Mulliken charges with hydrogens summed into heavy atoms:
               1
     1  C    0.284505
     2  Cl  -0.463607
     6  C   -0.261467
     7  N   -0.559431
 APT charges:
               1
     1  C    1.128396
     2  Cl  -0.992597
     3  H   -0.012472
     4  H   -0.012454
     5  H   -0.012455
     6  C   -0.452963
     7  N   -0.645456
 Sum of APT charges =  -1.00000
 APT charges with hydrogens summed into heavy atoms:
               1
     1  C    1.091015
     2  Cl  -0.992597
     6  C   -0.452963
     7  N   -0.645456
 Electronic spatial extent (au):  <R**2>=            845.1054
 Charge=             -1.0000 electrons
 Dipole moment (field-independent basis, Debye):
    X=             -5.6578    Y=              0.0000    Z=             -0.0004  Tot=              5.6578
 Quadrupole moment (field-independent basis, Debye-Ang):
   XX=            -87.8937   YY=            -35.2805   ZZ=            -35.2812
   XY=              0.0001   XZ=             -0.0008   YZ=              0.0000
 Traceless Quadrupole moment (field-independent basis, Debye-Ang):
   XX=            -35.0752   YY=             17.5379   ZZ=             17.5373
   XY=              0.0001   XZ=             -0.0008   YZ=              0.0000
 Octapole moment (field-independent basis, Debye-Ang**2):
  XXX=           -134.6032  YYY=             -0.0073  ZZZ=             -1.0359  XYY=             -7.5207
  XXY=              0.0003  XXZ=             -0.0077  XZZ=             -7.5211  YZZ=              0.0072
  YYZ=              1.0374  XYZ=              0.0000
 Hexadecapole moment (field-independent basis, Debye-Ang**3):
 XXXX=          -1758.9464 YYYY=            -55.4364 ZZZZ=            -55.4356 XXXY=              0.0015
 XXXZ=             -0.0359 YYYX=             -0.0008 YYYZ=              0.0000 ZZZX=             -0.1492
 ZZZY=             -0.0000 XXYY=           -216.2264 XXZZ=           -216.2264 YYZZ=            -18.4793
 XXYZ=              0.0000 YYXZ=              0.1490 ZZXY=              0.0011
 N-N= 1.088732946330D+02 E-N=-1.627832621217D+03  KE= 5.902348707263D+02
  Exact polarizability: 120.251  -0.000  38.849   0.002  -0.000  38.850
 Approx polarizability: 154.446  -0.000  48.742   0.005   0.000  48.740
 No NMR shielding tensors so no spin-rotation constants.
 Leave Link  601 at Sun Oct 13 09:50:59 2024, MaxMem=  2684354560 cpu:               2.6 elap:               0.1
 (Enter /usr/local/g16_AVX//g16/l701.exe)
 ... and contract with generalized density number  0.
 Compute integral second derivatives.
 Leave Link  701 at Sun Oct 13 09:51:00 2024, MaxMem=  2684354560 cpu:               4.6 elap:               0.2
 (Enter /usr/local/g16_AVX//g16/l702.exe)
 L702 exits ... SP integral derivatives will be done elsewhere.
 Leave Link  702 at Sun Oct 13 09:51:00 2024, MaxMem=  2684354560 cpu:               0.6 elap:               0.1
 (Enter /usr/local/g16_AVX//g16/l703.exe)
 Integral derivatives from FoFJK, PRISM(SPDF).
 Compute integral second derivatives, UseDBF=F ICtDFT=           0.
 Calling FoFJK, ICntrl=    100127 FMM=F ISym2X=0 I1Cent= 0 IOpClX= 0 NMat=1 NMatS=1 NMatT=0.
 FoFJK:  IHMeth= 1 ICntrl=  100127 DoSepK=F KAlg= 0 I1Cent=           0 FoldK=F
 IRaf=         0 NMat=       1 IRICut=       1 DoRegI=T DoRafI=F ISym2E= 0 IDoP0=0 IntGTp=1.
 FoFCou: FMM=F IPFlag=           0 FMFlag=      100000 FMFlg1=         800
         NFxFlg=           0 DoJE=F BraDBF=F KetDBF=F FulRan=T
         wScrn=  0.000000 ICntrl=    100127 IOpCl=  0 I1Cent=           0 NGrid=           0
         NMat0=    1 NMatS0=      1 NMatT0=    0 NMatD0=    1 NMtDS0=    0 NMtDT0=    0
 Symmetry not used in FoFCou.
 Leave Link  703 at Sun Oct 13 09:51:02 2024, MaxMem=  2684354560 cpu:              66.4 elap:               2.6
 (Enter /usr/local/g16_AVX//g16/l716.exe)
 Dipole        =-2.22593273D+00 6.91527062D-06-1.65754393D-04
 Polarizability= 1.20250895D+02-4.66577671D-05 3.88494984D+01
                 2.47426549D-03-3.30056047D-06 3.88496486D+01
 Full mass-weighted force constant matrix:
 Low frequencies --- -327.0573  -27.5133  -27.5061    0.0036    0.0043    0.0044
 Low frequencies ---   34.6623   34.7011  116.6948
 ******    1 imaginary frequencies (negative Signs) ****** 
 Diagonal vibrational polarizability:
      264.9909134      96.1614099      95.8697030
 Harmonic frequencies (cm**-1), IR intensities (KM/Mole), Raman scattering
 activities (A**4/AMU), depolarization ratios for plane and unpolarized
 incident light, reduced masses (AMU), force constants (mDyne/A),
 and normal coordinates:
                      1                      2                      3
                      A                      A                      A
 Frequencies --   -327.0573                28.1974                28.2382
 Red. masses --     11.6201                 8.5241                 8.5247
 Frc consts  --      0.7323                 0.0040                 0.0040
 IR Inten    --   1029.7958                 2.6731                 2.6723
  Atom  AN      X      Y      Z        X      Y      Z        X      Y      Z
     1   6     0.88   0.00  -0.00     0.00   0.30   0.00    -0.00  -0.00   0.30
     2  17    -0.13  -0.00   0.00     0.00  -0.12  -0.00    -0.00   0.00  -0.12
     3   1     0.14   0.00  -0.09     0.00   0.33   0.00     0.20  -0.00   0.33
     4   1     0.14   0.08   0.05    -0.17   0.33   0.00    -0.10  -0.00   0.33
     5   1     0.14  -0.08   0.05     0.17   0.33   0.01    -0.10  -0.00   0.33
     6   6    -0.24  -0.00   0.00     0.00   0.52   0.00    -0.00  -0.00   0.52
     7   7    -0.24   0.00  -0.00    -0.00  -0.48  -0.00     0.00   0.00  -0.48
                      4                      5                      6
                      A                      A                      A
 Frequencies --    234.7423               249.0747               249.0896
 Red. masses --     18.2098                 4.8632                 4.8632
 Frc consts  --      0.5912                 0.1778                 0.1778
 IR Inten    --      8.1566                12.9550                12.9552
  Atom  AN      X      Y      Z        X      Y      Z        X      Y      Z
     1   6    -0.14  -0.00   0.00    -0.00   0.45   0.01     0.00  -0.01   0.45
     2  17     0.49   0.00  -0.00     0.00  -0.10  -0.00    -0.00   0.00  -0.10
     3   1     0.05  -0.00   0.03     0.00   0.47   0.01     0.07  -0.01   0.47
     4   1     0.05  -0.03  -0.01    -0.06   0.47   0.01    -0.03  -0.01   0.47
     5   1     0.05   0.03  -0.01     0.06   0.47   0.01    -0.03  -0.01   0.47
     6   6    -0.60   0.00  -0.00    -0.00  -0.34  -0.01     0.00   0.01  -0.34
     7   7    -0.61   0.00  -0.00    -0.00   0.05   0.00     0.00  -0.00   0.05
                      7                      8                      9
                      A                      A                      A
 Frequencies --    979.9476               980.0523              1109.1395
 Red. masses --      1.0389                 1.0389                 1.0514
 Frc consts  --      0.5878                 0.5879                 0.7620
 IR Inten    --      0.0188                 0.0189                86.8515
  Atom  AN      X      Y      Z        X      Y      Z        X      Y      Z
     1   6    -0.00  -0.00  -0.05     0.00  -0.05   0.00    -0.04  -0.00   0.00
     2  17    -0.00   0.00   0.01     0.00   0.01  -0.00    -0.02   0.00  -0.00
     3   1     0.80   0.00   0.08    -0.02   0.11  -0.00     0.57  -0.00   0.08
     4   1    -0.42  -0.01   0.10    -0.69   0.09  -0.02     0.57  -0.07  -0.04
     5   1    -0.39   0.02   0.10     0.71   0.08   0.01     0.57   0.07  -0.04
     6   6     0.00  -0.00  -0.02     0.00  -0.02   0.00    -0.01  -0.00   0.00
     7   7    -0.00   0.00   0.00     0.00   0.00  -0.00    -0.02   0.00  -0.00
                     10                     11                     12
                      A                      A                      A
 Frequencies --   1417.6869              1417.7403              2176.0038
 Red. masses --      1.0938                 1.0938                12.7621
 Frc consts  --      1.2952                 1.2953                35.6034
 IR Inten    --      4.6207                 4.6180                 3.8185
  Atom  AN      X      Y      Z        X      Y      Z        X      Y      Z
     1   6    -0.00  -0.00  -0.09    -0.00  -0.09   0.00     0.00  -0.00   0.00
     2  17    -0.00  -0.00  -0.00     0.00  -0.00   0.00    -0.00  -0.00   0.00
     3   1    -0.14   0.01  -0.09     0.00   0.80   0.00    -0.04   0.00  -0.01
     4   1     0.07  -0.39   0.57     0.12   0.13  -0.39    -0.04   0.01   0.00
     5   1     0.07   0.38   0.58    -0.12   0.12   0.38    -0.04  -0.01   0.00
     6   6    -0.00   0.00   0.00     0.00   0.00  -0.00     0.76  -0.00   0.00
     7   7    -0.00   0.00   0.00     0.00   0.00  -0.00    -0.64   0.00  -0.00
                     13                     14                     15
                      A                      A                      A
 Frequencies --   3179.9681              3364.7116              3364.8173
 Red. masses --      1.0116                 1.1213                 1.1213
 Frc consts  --      6.0268                 7.4792                 7.4796
 IR Inten    --      1.6061                 1.0699                 1.0668
  Atom  AN      X      Y      Z        X      Y      Z        X      Y      Z
     1   6     0.02  -0.00   0.00    -0.00  -0.10   0.00    -0.00  -0.00  -0.10
     2  17    -0.00  -0.00  -0.00    -0.00   0.00  -0.00    -0.00   0.00   0.00
     3   1    -0.07  -0.00   0.57     0.00  -0.02  -0.00    -0.12  -0.00   0.80
     4   1    -0.07  -0.50  -0.29     0.10   0.60   0.36     0.06   0.36   0.19
     5   1    -0.07   0.50  -0.29    -0.10   0.60  -0.35     0.06  -0.35   0.19
     6   6     0.00   0.00  -0.00    -0.00   0.00  -0.00     0.00   0.00   0.00
     7   7     0.00  -0.00   0.00     0.00  -0.00   0.00     0.00  -0.00  -0.00

 -------------------
 - Thermochemistry -
 -------------------
 Temperature   298.150 Kelvin.  Pressure   1.00000 Atm.
 Atom     1 has atomic number  6 and mass  12.00000
 Atom     2 has atomic number 17 and mass  34.96885
 Atom     3 has atomic number  1 and mass   1.00783
 Atom     4 has atomic number  1 and mass   1.00783
 Atom     5 has atomic number  1 and mass   1.00783
 Atom     6 has atomic number  6 and mass  12.00000
 Atom     7 has atomic number  7 and mass  14.00307
 Molecular mass:    75.99540 amu.
 Principal axes and moments of inertia in atomic units:
                           1         2         3
     Eigenvalues --    12.246031453.031821453.03311
           X            1.00000   0.00000  -0.00000
           Y           -0.00000   0.99999  -0.00521
           Z            0.00000   0.00521   0.99999
 This molecule is an asymmetric top.
 Rotational symmetry number  1.
 Rotational temperatures (Kelvin)      7.07282     0.05961     0.05961
 Rotational constants (GHZ):         147.37358     1.24205     1.24205
    1 imaginary frequencies ignored.
 Zero-point vibrational energy     112325.8 (Joules/Mol)
                                   26.84651 (Kcal/Mol)
 Warning -- explicit consideration of   5 degrees of freedom as
           vibrations may cause significant error
 Vibrational temperatures:     40.57    40.63   337.74   358.36   358.38
          (Kelvin)           1409.93  1410.08  1595.80  2039.74  2039.81
                             3130.78  4575.26  4841.07  4841.22
 
 Zero-point correction=                           0.042783 (Hartree/Particle)
 Thermal correction to Energy=                    0.048979
 Thermal correction to Enthalpy=                  0.049924
 Thermal correction to Gibbs Free Energy=         0.011354
 Sum of electronic and zero-point Energies=           -592.944781
 Sum of electronic and thermal Energies=              -592.938584
 Sum of electronic and thermal Enthalpies=            -592.937640
 Sum of electronic and thermal Free Energies=         -592.976210
 
                     E (Thermal)             CV                S
                      KCal/Mol        Cal/Mol-Kelvin    Cal/Mol-Kelvin
 Total                   30.735             16.523             81.177
 Electronic               0.000              0.000              0.000
 Translational            0.889              2.981             38.900
 Rotational               0.889              2.981             24.762
 Vibrational             28.958             10.561             17.515
 Vibration     1          0.593              1.984              5.952
 Vibration     2          0.593              1.984              5.949
 Vibration     3          0.655              1.788              1.842
 Vibration     4          0.662              1.764              1.737
 Vibration     5          0.662              1.764              1.737
                       Q            Log10(Q)             Ln(Q)
 Total Bot       0.599147D-05         -5.222466        -12.025173
 Total V=0       0.285868D+15         14.456166         33.286552
 Vib (Bot)       0.399742D-17        -17.398220        -40.060882
 Vib (Bot)    1  0.734341D+01          0.865898          1.993803
 Vib (Bot)    2  0.733278D+01          0.865269          1.992355
 Vib (Bot)    3  0.837284D+00         -0.077127         -0.177592
 Vib (Bot)    4  0.783929D+00         -0.105723         -0.243437
 Vib (Bot)    5  0.783877D+00         -0.105752         -0.243503
 Vib (V=0)       0.190727D+03          2.280412          5.250843
 Vib (V=0)    1  0.786041D+01          0.895445          2.061839
 Vib (V=0)    2  0.784981D+01          0.894859          2.060489
 Vib (V=0)    3  0.147522D+01          0.168855          0.388804
 Vib (V=0)    4  0.142981D+01          0.155278          0.357541
 Vib (V=0)    5  0.142976D+01          0.155265          0.357510
 Electronic      0.100000D+01          0.000000          0.000000
 Translational   0.260396D+08          7.415635         17.075130
 Rotational      0.575597D+05          4.760119         10.960578
 
                                                       RxCoord=0.59984 DE=54.37
                                                             IR Spectrum
 
      3     3                                     2                            1           1                                         
      3     1                                     1                            4           1    9                          22        
      6     8                                     7                            1           0    8                          43      2 
      5     0                                     6                            8           9    0                          95      8 
 
      X     X                                     X                            X           X                               XX      X 
                                                                               X           X                               XX        
                                                                                           X                               X         
                                                                                           X                               X         
                                                                                           X                               X         
                                                                                           X                               X         
                                                                                           X                                         
                                                                                           X                                         
                                                                                           X                                         
                                                                                           X                                         
                                                                                           X                                         
                                                                                           X                                         
                                                                                           X                                         
                                                                                           X                                         
                                                                                           X                                         
                                                                                           X                                         
                                                                                           X                                         
                                                                                           X                                         
                                                                                           X                                         
                                                                                           X                                         
 
 -------------------------------------------------------------------
 Center     Atomic                   Forces (Hartrees/Bohr)
 Number     Number              X              Y              Z
 -------------------------------------------------------------------
      1        6          -0.007920995   -0.000000586    0.000001610
      2       17           0.002243990    0.000000291    0.000003614
      3        1           0.000244700   -0.000002285    0.001021609
      4        1           0.000233813   -0.000908641   -0.000514601
      5        1           0.000234375    0.000911230   -0.000510295
      6        6           0.001746204   -0.000000001   -0.000002383
      7        7           0.003217913   -0.000000008    0.000000446
 -------------------------------------------------------------------
 Cartesian Forces:  Max     0.007920995 RMS     0.002006848
 Z-matrix is all fixed cartesians, so copy forces.
 Force constants in Cartesian coordinates: 
                1             2             3             4             5 
      1 -0.100196D-01
      2  0.000000D+00  0.670264D+00
      3  0.785251D-04  0.000000D+00  0.670237D+00
      4  0.312747D-01  0.000000D+00 -0.353061D-05  0.570571D-01
      5  0.000000D+00 -0.238648D-01  0.000000D+00  0.000000D+00  0.130202D-01
      6 -0.567695D-05  0.000000D+00 -0.238625D-01 -0.326013D-05  0.000000D+00
      7 -0.190494D-01 -0.118930D-03  0.510735D-01 -0.207117D-01 -0.274580D-04
      8 -0.109324D-03 -0.529780D-01  0.738894D-03  0.103937D-04  0.321828D-03
      9  0.468490D-01  0.738933D-03 -0.370313D+00 -0.445535D-02 -0.107557D-04
     10 -0.190787D-01 -0.442368D-01 -0.256760D-01 -0.207092D-01 -0.101438D-01
     11 -0.405791D-01 -0.290315D+00 -0.137735D+00  0.385488D-02  0.377983D-02
     12 -0.235551D-01 -0.137729D+00 -0.132917D+00  0.223917D-02  0.200748D-02
     13 -0.190782D-01  0.443548D-01 -0.254684D-01 -0.207098D-01  0.101712D-01
     14  0.406873D-01 -0.291596D+00  0.136996D+00 -0.386523D-02  0.379840D-02
     15 -0.233648D-01  0.136989D+00 -0.131636D+00  0.222123D-02 -0.199660D-02
     16  0.164470D-01  0.000000D+00  0.000000D+00 -0.158403D-01  0.000000D+00
     17  0.000000D+00 -0.147354D-01  0.000000D+00  0.000000D+00  0.354549D-02
     18 -0.129873D-04  0.000000D+00 -0.147335D-01  0.795881D-05  0.000000D+00
     19  0.195042D-01  0.000000D+00 -0.340183D-05 -0.103608D-01  0.000000D+00
     20  0.000000D+00  0.322461D-02  0.000000D+00  0.000000D+00 -0.600939D-03
     21  0.110996D-04  0.000000D+00  0.322480D-02 -0.621574D-05  0.000000D+00
                6             7             8             9            10 
      6  0.130243D-01
      7  0.117315D-01  0.466526D-01
      8 -0.106726D-04  0.112453D-03  0.455198D-01
      9  0.494206D-02 -0.482250D-01 -0.773537D-03  0.377685D+00
     10 -0.588589D-02  0.185468D-02  0.342024D-02  0.279441D-02  0.466844D-01
     11  0.200647D-02 -0.689004D-03  0.409632D-02  0.374435D-02  0.417703D-01
     12  0.148519D-02 -0.436635D-02 -0.236190D-01 -0.749953D-02  0.242404D-01
     13 -0.583875D-02  0.185466D-02 -0.343320D-02  0.277841D-02  0.185333D-02
     14 -0.199564D-02  0.709315D-03  0.400341D-02 -0.369070D-02  0.412892D-02
     15  0.146660D-02 -0.436303D-02  0.236725D-01 -0.740663D-02  0.158870D-02
     16  0.100390D-05 -0.914910D-02  0.000000D+00 -0.323572D-03 -0.915272D-02
     17  0.000000D+00  0.157096D-04 -0.130068D-02 -0.110907D-04  0.584611D-02
     18  0.354525D-02 -0.675682D-02 -0.110566D-04  0.346097D-02  0.339521D-02
     19  0.112843D-05 -0.145173D-02 -0.134372D-05  0.582173D-03 -0.145187D-02
     20  0.000000D+00 -0.208599D-05  0.337300D-03  0.279910D-05 -0.784971D-03
     21 -0.600899D-03  0.906336D-03  0.280495D-05 -0.868610D-03 -0.456789D-03
               11            12            13            14            15 
     11  0.293940D+00
     12  0.144173D+00  0.129197D+00
     13 -0.413627D-02  0.156944D-02  0.466846D-01
     14 -0.131982D-01  0.136250D-01 -0.418818D-01  0.295281D+00
     15 -0.137322D-01  0.980205D-02  0.240444D-01 -0.143400D+00  0.127856D+00
     16  0.281977D-03  0.164313D-03 -0.915269D-02 -0.282691D-03  0.162985D-03
     17  0.226172D-02  0.206540D-02 -0.586192D-02  0.228100D-02 -0.205430D-02
     18  0.206665D-02 -0.100814D-03  0.336796D-02 -0.205559D-02 -0.120004D-03
     19 -0.502828D-03 -0.291854D-03 -0.145187D-02  0.504184D-03 -0.289488D-03
     20 -0.564915D-03 -0.523492D-03  0.787145D-03 -0.569812D-03  0.520686D-03
     21 -0.523788D-03  0.330004D-04 -0.453119D-03  0.520974D-03  0.378681D-04
               16            17            18            19            20 
     16  0.117756D+01
     17 -0.126821D-04  0.985191D-02
     18  0.429591D-03  0.000000D+00  0.985242D-02
     19 -0.115071D+01  0.125747D-04 -0.430912D-03  0.114592D+01
     20  0.126663D-04 -0.190402D-02  0.000000D+00 -0.126108D-04  0.777721D-04
     21 -0.433666D-03  0.000000D+00 -0.190434D-02  0.432354D-03  0.000000D+00
               21 
     21  0.781802D-04
 Leave Link  716 at Sun Oct 13 09:51:02 2024, MaxMem=  2684354560 cpu:               0.9 elap:               0.1
 (Enter /usr/local/g16_AVX//g16/l103.exe)

 GradGradGradGradGradGradGradGradGradGradGradGradGradGradGradGradGradGrad
 Berny optimization.
 Search for a local minimum.
 Step number   1 out of a maximum of    2
 All quantities printed in internal units (Hartrees-Bohrs-Radians)
 Second derivative matrix not updated -- analytic derivatives used.
 ITU=  0
     Eigenvalues ---   -0.05086   0.00034   0.00035   0.01598   0.01598
     Eigenvalues ---    0.03707   0.04395   0.04396   0.08026   0.10727
     Eigenvalues ---    0.10727   0.40048   0.97951   0.97951   2.31162
 Eigenvalue     1 is  -5.09D-02 should be greater than     0.000000 Eigenvector:
                          X1        X2        X7        X6        Z3
   1                    0.87916  -0.25402  -0.25365  -0.24935  -0.09261
                          Y5        Y4        X4        X5        X3
   1                   -0.08036   0.08015   0.05860   0.05860   0.05853
 Angle between quadratic step and forces=   7.72 degrees.
 Linear search not attempted -- first point.
 B after Tr=     0.004671    0.000018   -0.000359
         Rot=    1.000000    0.000000    0.000011    0.000001 Ang=   0.00 deg.
 Variable       Old X    -DE/DX   Delta X   Delta X   Delta X     New X
                                 (Linear)    (Quad)   (Total)
    X1       -0.13429  -0.00792   0.00000  -0.15986  -0.15519  -0.28949
    Y1        0.00001  -0.00000   0.00000  -0.00004  -0.00002  -0.00001
    Z1       -0.00026   0.00000   0.00000   0.00072   0.00036   0.00010
    X2       -4.13589   0.00224   0.00000   0.04362   0.04829  -4.08759
    Y2       -0.00000   0.00000   0.00000   0.00004   0.00007   0.00006
    Z2        0.00010   0.00000   0.00000  -0.00081  -0.00126  -0.00117
    X3        0.17543   0.00024   0.00000   0.00119   0.00590   0.18133
    Y3        0.00470  -0.00000   0.00000  -0.00009  -0.00007   0.00463
    Z3       -2.01282   0.00102   0.00000   0.01944   0.01908  -1.99373
    X4        0.17595   0.00023   0.00000  -0.00017   0.00448   0.18043
    Y4        1.74066  -0.00091   0.00000  -0.01626  -0.01624   1.72442
    Z4        1.00989  -0.00051   0.00000  -0.00837  -0.00873   1.00116
    X5        0.17594   0.00023   0.00000  -0.00022   0.00443   0.18037
    Y5       -1.74533   0.00091   0.00000   0.01621   0.01623  -1.72910
    Z5        1.00176  -0.00051   0.00000  -0.00830  -0.00865   0.99311
    X6        4.40563   0.00175   0.00000   0.04076   0.04543   4.45106
    Y6        0.00001  -0.00000   0.00000  -0.00008  -0.00007  -0.00006
    Z6       -0.00042  -0.00000   0.00000   0.00164   0.00138   0.00096
    X7        6.62995   0.00322   0.00000   0.04198   0.04665   6.67661
    Y7       -0.00002  -0.00000   0.00000   0.00009   0.00010   0.00009
    Z7        0.00043   0.00000   0.00000  -0.00196  -0.00217  -0.00175
         Item               Value     Threshold  Converged?
 Maximum Force            0.007921     0.000450     NO 
 RMS     Force            0.002007     0.000300     NO 
 Maximum Displacement     0.155192     0.001800     NO 
 RMS     Displacement     0.038903     0.001200     NO 
 Predicted change in Energy=-2.418066D-03
 GradGradGradGradGradGradGradGradGradGradGradGradGradGradGradGradGradGrad

 Leave Link  103 at Sun Oct 13 09:51:02 2024, MaxMem=  2684354560 cpu:               0.6 elap:               0.1
 (Enter /usr/local/g16_AVX//g16/l9999.exe)

 ----------------------------------------------------------------------

 Electric dipole moment (input orientation):
 (Debye = 10**-18 statcoulomb cm , SI units = C m)
                  (au)            (Debye)         (10**-30 SI)
   Tot        0.222593D+01      0.565776D+01      0.188722D+02
   x         -0.222593D+01     -0.565776D+01     -0.188722D+02
   y          0.000000D+00      0.000000D+00      0.000000D+00
   z         -0.165754D-03     -0.421306D-03     -0.140532D-02

 Dipole polarizability, Alpha (input orientation).
 (esu units = cm**3 , SI units = C**2 m**2 J**-1)
 Alpha(0;0):
               (au)            (10**-24 esu)      (10**-40 SI)
   iso        0.659833D+02      0.977772D+01      0.108792D+02
   aniso      0.814013D+02      0.120624D+02      0.134213D+02
   xx         0.120251D+03      0.178193D+02      0.198267D+02
   yx        -0.466578D-04     -0.691397D-05     -0.769283D-05
   yy         0.388495D+02      0.575690D+01      0.640542D+01
   zx         0.247427D-02      0.366648D-03      0.407951D-03
   zy         0.000000D+00      0.000000D+00      0.000000D+00
   zz         0.388496D+02      0.575692D+01      0.640544D+01

 ----------------------------------------------------------------------

 Dipole orientation:
     6         -0.00025267          0.00001281          0.13429341
    17          0.00040436         -0.00001474          4.13588670
     1         -2.01282837          0.00470844         -0.17527527
     1          1.00988084          1.74066194         -0.17602030
     1          1.00174419         -1.74533283         -0.17602108
     6         -0.00074569          0.00002314         -4.40562619
     7         -0.00006851          0.00000548         -6.62995483

 Electric dipole moment (dipole orientation):
 (Debye = 10**-18 statcoulomb cm , SI units = C m)
                  (au)            (Debye)         (10**-30 SI)
   Tot        0.222593D+01      0.565776D+01      0.188722D+02
   x          0.000000D+00      0.000000D+00      0.000000D+00
   y          0.000000D+00      0.000000D+00      0.000000D+00
   z          0.222593D+01      0.565776D+01      0.188722D+02

 Dipole polarizability, Alpha (dipole orientation).
 (esu units = cm**3 , SI units = C**2 m**2 J**-1)
 Alpha(0;0):
               (au)            (10**-24 esu)      (10**-40 SI)
   iso        0.659833D+02      0.977772D+01      0.108792D+02
   aniso      0.814013D+02      0.120624D+02      0.134213D+02
   xx         0.388496D+02      0.575692D+01      0.640544D+01
   yx         0.000000D+00      0.000000D+00      0.000000D+00
   yy         0.388495D+02      0.575690D+01      0.640542D+01
   zx         0.358729D-02      0.531581D-03      0.591464D-03
   zy        -0.206242D-03     -0.305619D-04     -0.340046D-04
   zz         0.120251D+03      0.178193D+02      0.198267D+02

 ----------------------------------------------------------------------
 1\1\GINC-NODO6\Freq\RB3LYP\6-31++G(d,p)\C2H3Cl1N1(1-)\ALANQF\13-Oct-20
 24\0\\#p b3lyp 6-31++g(d,p) scf=verytight NoSymm freq=noraman int=ultr
 afine\\RxCoord=0.59984 DE=54.37\\-1,1\C,-0.071065,0.000007,-0.000139\C
 l,-2.188617,-0.000001,0.000051\H,0.092831,0.002488,-1.065136\H,0.09310
 9,0.92112,0.53441\H,0.093104,-0.923589,0.53011\C,2.331357,0.000005,-0.
 000221\N,3.508421,-0.000008,0.000225\\Version=ES64L-G16RevB.01\HF=-592
 .9875636\RMSD=2.822e-09\RMSF=2.007e-03\ZeroPoint=0.0427826\Thermal=0.0
 489795\Dipole=-2.1681142,0.0000078,-0.0001819\DipoleDeriv=3.225257,0.0
 000046,-0.0001658,0.0000037,0.0799517,0.0000002,-0.0002807,0.,0.07998,
 -2.0056055,-0.0000011,0.000078,-0.0000066,-0.4860936,0.,0.0000931,0.,-
 0.486091,-0.1439667,0.0000121,-0.0055064,0.0000685,0.0697871,0.0000766
 ,-0.0292475,0.0000769,0.0367622,-0.1439523,0.004771,0.0027801,0.025332
 6,0.0451148,-0.0143326,0.0147418,-0.0143175,0.0614769,-0.1439555,-0.00
 47855,0.0027581,-0.025398,0.044981,0.0142556,0.0146223,0.0142405,0.061
 6098,-0.6753573,-0.0000027,0.0001,-0.0000109,-0.341766,0.,0.0004542,0.
 ,-0.341765,-1.1124197,0.0000015,-0.000044,0.0000107,-0.411975,0.,-0.00
 03832,0.,-0.4119729\Polar=120.2508954,-0.0000467,38.8494984,0.0024743,
 -0.0000033,38.8496486\Quadrupole=-26.0775726,13.0390195,13.0385531,0.0
 00048,-0.0006297,0.0000026\PG=C01 [X(C2H3Cl1N1)]\NImag=1\\-0.01001963,
 0.00000067,0.67026436,0.00007853,0.00000051,0.67023732,0.03127467,0.00
 000021,-0.00000353,0.05705713,0.00000037,-0.02386484,0.,-0.00000020,0.
 01302024,-0.00000568,-0.00000005,-0.02386246,-0.00000326,-0.00000011,0
 .01302425,-0.01904944,-0.00011893,0.05107346,-0.02071169,-0.00002746,0
 .01173145,0.04665262,-0.00010932,-0.05297800,0.00073889,0.00001039,0.0
 0032183,-0.00001067,0.00011245,0.04551982,0.04684898,0.00073893,-0.370
 31326,-0.00445535,-0.00001076,0.00494206,-0.04822504,-0.00077354,0.377
 68500,-0.01907866,-0.04423683,-0.02567602,-0.02070918,-0.01014381,-0.0
 0588589,0.00185468,0.00342024,0.00279441,0.04668444,-0.04057908,-0.290
 31508,-0.13773493,0.00385488,0.00377983,0.00200647,-0.00068900,0.00409
 632,0.00374435,0.04177033,0.29394038,-0.02355511,-0.13772880,-0.132916
 61,0.00223917,0.00200748,0.00148519,-0.00436635,-0.02361897,-0.0074995
 3,0.02424039,0.14417343,0.12919671,-0.01907817,0.04435478,-0.02546838,
 -0.02070981,0.01017122,-0.00583875,0.00185466,-0.00343320,0.00277841,0
 .00185333,-0.00413627,0.00156944,0.04668455,0.04068726,-0.29159563,0.1
 3699553,-0.00386523,0.00379840,-0.00199564,0.00070931,0.00400341,-0.00
 369070,0.00412892,-0.01319824,0.01362496,-0.04188176,0.29528088,-0.023
 36483,0.13698940,-0.13163631,0.00222123,-0.00199660,0.00146660,-0.0043
 6303,0.02367254,-0.00740663,0.00158870,-0.01373219,0.00980205,0.024044
 43,-0.14339954,0.12785643,0.01644703,0.00000001,-0.00000066,-0.0158402
 9,-0.00000006,0.00000100,-0.00914910,0.00000078,-0.00032357,-0.0091527
 2,0.00028198,0.00016431,-0.00915269,-0.00028269,0.00016299,1.17756040,
 0.00000043,-0.01473542,0.,-0.00000022,0.00354549,0.,0.00001571,-0.0013
 0068,-0.00001109,0.00584611,0.00226172,0.00206540,-0.00586192,0.002281
 00,-0.00205430,-0.00001268,0.00985191,-0.00001299,0.,-0.01473348,0.000
 00796,0.,0.00354525,-0.00675682,-0.00001106,0.00346097,0.00339521,0.00
 206665,-0.00010081,0.00336796,-0.00205559,-0.00012000,0.00042959,0.,0.
 00985242,0.01950421,0.00000008,-0.00000340,-0.01036082,-0.00000006,0.0
 0000113,-0.00145173,-0.00000134,0.00058217,-0.00145187,-0.00050283,-0.
 00029185,-0.00145187,0.00050418,-0.00028949,-1.15071263,0.00001257,-0.
 00043091,1.14592472,-0.00000032,0.00322461,0.,0.00000018,-0.00060094,0
 .,-0.00000209,0.00033730,0.00000280,-0.00078497,-0.00056491,-0.0005234
 9,0.00078714,-0.00056981,0.00052069,0.00001267,-0.00190402,0.,-0.00001
 261,0.00007777,0.00001110,0.,0.00322480,-0.00000622,0.,-0.00060090,0.0
 0090634,0.00000280,-0.00086861,-0.00045679,-0.00052379,0.00003300,-0.0
 0045312,0.00052097,0.00003787,-0.00043367,0.,-0.00190434,0.00043235,0.
 ,0.00007818\\0.00792100,0.00000059,-0.00000161,-0.00224399,-0.00000029
 ,-0.00000361,-0.00024470,0.00000228,-0.00102161,-0.00023381,0.00090864
 ,0.00051460,-0.00023438,-0.00091123,0.00051029,-0.00174620,0.,0.000002
 38,-0.00321791,0.,-0.00000045\\\@


 FROM AN ANONYMOUS WRITER, ON PERSPECTIVE:

 MAN, DESPITE HIS ARTISTIC PRETENSIONS, HIS SOPHISTICATION AND MANY 
 ACCOMPLISHMENTS, OWES THE FACT OF HIS EXISTENCE TO A SIX-INCH LAYER OF 
 TOPSOIL AND THE FACT THAT IT RAINS.
 Job cpu time:       0 days  0 hours  3 minutes 46.2 seconds.
 Elapsed time:       0 days  0 hours  0 minutes  9.7 seconds.
 File lengths (MBytes):  RWF=     88 Int=      0 D2E=      0 Chk=      2 Scr=      2
 Normal termination of Gaussian 16 at Sun Oct 13 09:51:03 2024.
