RxCoord=0.69982 DE=54.05                                                
Freq      RB3LYP                                                      6-31++G(d,p)        
Number of atoms                            I                7
Info1-9                                    I   N=           9
          16          16           0           0           0         100
           6          18        -502
Full Title                                 C   N=           2
RxCoord=0.69982 DE=54.05
Route                                      C   N=           6
#p b3lyp 6-31++g(d,p) scf=verytight NoSymm freq=noraman int=
ultrafine   
Charge                                     I               -1
Multiplicity                               I                1
Number of electrons                        I               40
Number of alpha electrons                  I               20
Number of beta electrons                   I               20
Number of basis functions                  I               98
Number of independent functions            I               98
Number of point charges in /Mol/           I                0
Number of translation vectors              I                0
Atomic numbers                             I   N=           7
           6          17           1           1           1           6
           7
Nuclear charges                            R   N=           7
  6.00000000E+00  1.70000000E+01  1.00000000E+00  1.00000000E+00  1.00000000E+00
  6.00000000E+00  7.00000000E+00
Current cartesian coordinates              R   N=          21
 -1.60303577E-01  1.32280829E-05 -2.64561657E-04 -4.13140807E+00 -1.88972612E-06
  9.25965801E-05  1.71039112E-01  4.69218997E-03 -2.00994861E+00  1.71617368E-01
  1.73819277E+00  1.00841077E+00  1.71609809E-01 -1.74284905E+00  1.00030196E+00
  4.41205697E+00  9.44863062E-06 -4.02511665E-04  6.63648760E+00 -1.51178090E-05
  4.28967830E-04
Number of symbols in /Mol/                 I                0
Force Field                                I                0
Atom Types                                 C   N=           7
                                                            
                        
Int Atom Types                             I   N=           7
           0           0           0           0           0           0
           0
MM charges                                 R   N=           7
  0.00000000E+00  0.00000000E+00  0.00000000E+00  0.00000000E+00  0.00000000E+00
  0.00000000E+00  0.00000000E+00
Integer atomic weights                     I   N=           7
          12          35           1           1           1          12
          14
Real atomic weights                        R   N=           7
  1.20000000E+01  3.49688527E+01  1.00782504E+00  1.00782504E+00  1.00782504E+00
  1.20000000E+01  1.40030740E+01
Atom fragment info                         I   N=           7
           0           0           0           0           0           0
           0
Atom residue num                           I   N=           7
           0           0           0           0           0           0
           0
Nuclear spins                              I   N=           7
           0           3           1           1           1           0
           2
Nuclear ZEff                               R   N=           7
 -3.60000000E+00 -1.42400000E+01 -1.00000000E+00 -1.00000000E+00 -1.00000000E+00
 -3.60000000E+00 -4.55000000E+00
Nuclear ZNuc                               R   N=           7
  6.00000000E+00  1.70000000E+01  1.00000000E+00  1.00000000E+00  1.00000000E+00
  6.00000000E+00  7.00000000E+00
Nuclear QMom                               R   N=           7
  0.00000000E+00 -8.16500000E+00  0.00000000E+00  0.00000000E+00  0.00000000E+00
  0.00000000E+00  2.04400000E+00
Nuclear GFac                               R   N=           7
  0.00000000E+00  8.21874000E-01  2.79284600E+00  2.79284600E+00  2.79284600E+00
  0.00000000E+00  4.03761000E-01
MicOpt                                     I   N=           7
          -1          -1          -1          -1          -1          -1
          -1
Number of residues                         I                0
Number of secondary structures             I                0
Number of contracted shells                I               33
Number of primitive shells                 I               72
Pure/Cartesian d shells                    I                1
Pure/Cartesian f shells                    I                0
Highest angular momentum                   I                2
Largest degree of contraction              I                6
Shell types                                I   N=          33
           0          -1          -1          -1           2           0
          -1          -1          -1          -1           2           0
           0           0           1           0           0           0
           1           0           0           0           1           0
          -1          -1          -1           2           0          -1
          -1          -1           2
Number of primitives per shell             I   N=          33
           6           3           1           1           1           6
           6           3           1           1           1           3
           1           1           1           3           1           1
           1           3           1           1           1           6
           3           1           1           1           6           3
           1           1           1
Shell to atom map                          I   N=          33
           1           1           1           1           1           2
           2           2           2           2           2           3
           3           3           3           4           4           4
           4           5           5           5           5           6
           6           6           6           6           7           7
           7           7           7
Primitive exponents                        R   N=          72
  3.04752488E+03  4.57369518E+02  1.03948685E+02  2.92101553E+01  9.28666296E+00
  3.16392696E+00  7.86827235E+00  1.88128854E+00  5.44249258E-01  1.68714478E-01
  4.38000000E-02  8.00000000E-01  2.51801000E+04  3.78035000E+03  8.60474000E+02
  2.42145000E+02  7.73349000E+01  2.62470000E+01  4.91765000E+02  1.16984000E+02
  3.74153000E+01  1.37834000E+01  5.45215000E+00  2.22588000E+00  3.18649000E+00
  1.14427000E+00  4.20377000E-01  1.42657000E-01  4.83000000E-02  7.50000000E-01
  1.87311370E+01  2.82539436E+00  6.40121692E-01  1.61277759E-01  3.60000000E-02
  1.10000000E+00  1.87311370E+01  2.82539436E+00  6.40121692E-01  1.61277759E-01
  3.60000000E-02  1.10000000E+00  1.87311370E+01  2.82539436E+00  6.40121692E-01
  1.61277759E-01  3.60000000E-02  1.10000000E+00  3.04752488E+03  4.57369518E+02
  1.03948685E+02  2.92101553E+01  9.28666296E+00  3.16392696E+00  7.86827235E+00
  1.88128854E+00  5.44249258E-01  1.68714478E-01  4.38000000E-02  8.00000000E-01
  4.17351146E+03  6.27457911E+02  1.42902093E+02  4.02343293E+01  1.28202129E+01
  4.39043701E+00  1.16263619E+01  2.71627981E+00  7.72218397E-01  2.12031498E-01
  6.39000000E-02  8.00000000E-01
Contraction coefficients                   R   N=          72
  1.83473713E-03  1.40373228E-02  6.88426223E-02  2.32184443E-01  4.67941348E-01
  3.62311985E-01 -1.19332420E-01 -1.60854152E-01  1.14345644E+00  1.00000000E+00
  1.00000000E+00  1.00000000E+00  1.83295985E-03  1.40341988E-02  6.90973943E-02
  2.37451980E-01  4.83033960E-01  3.39855972E-01 -2.29739142E-03 -3.07137189E-02
 -1.12528069E-01  4.50163278E-02  5.89353363E-01  4.65206287E-01 -2.51828028E-01
  6.15892514E-02  1.06018433E+00  1.00000000E+00  1.00000000E+00  1.00000000E+00
  3.34946043E-02  2.34726953E-01  8.13757326E-01  1.00000000E+00  1.00000000E+00
  1.00000000E+00  3.34946043E-02  2.34726953E-01  8.13757326E-01  1.00000000E+00
  1.00000000E+00  1.00000000E+00  3.34946043E-02  2.34726953E-01  8.13757326E-01
  1.00000000E+00  1.00000000E+00  1.00000000E+00  1.83473713E-03  1.40373228E-02
  6.88426223E-02  2.32184443E-01  4.67941348E-01  3.62311985E-01 -1.19332420E-01
 -1.60854152E-01  1.14345644E+00  1.00000000E+00  1.00000000E+00  1.00000000E+00
  1.83477216E-03  1.39946270E-02  6.85865518E-02  2.32240873E-01  4.69069948E-01
  3.60455199E-01 -1.14961182E-01 -1.69117479E-01  1.14585195E+00  1.00000000E+00
  1.00000000E+00  1.00000000E+00
P(S=P) Contraction coefficients            R   N=          72
  0.00000000E+00  0.00000000E+00  0.00000000E+00  0.00000000E+00  0.00000000E+00
  0.00000000E+00  6.89990666E-02  3.16423961E-01  7.44308291E-01  1.00000000E+00
  1.00000000E+00  0.00000000E+00  0.00000000E+00  0.00000000E+00  0.00000000E+00
  0.00000000E+00  0.00000000E+00  0.00000000E+00  3.98940088E-03  3.03177067E-02
  1.29880029E-01  3.27951072E-01  4.53527100E-01  2.52154056E-01 -1.42993147E-02
  3.23572333E-01  7.43507765E-01  1.00000000E+00  1.00000000E+00  0.00000000E+00
  0.00000000E+00  0.00000000E+00  0.00000000E+00  0.00000000E+00  0.00000000E+00
  0.00000000E+00  0.00000000E+00  0.00000000E+00  0.00000000E+00  0.00000000E+00
  0.00000000E+00  0.00000000E+00  0.00000000E+00  0.00000000E+00  0.00000000E+00
  0.00000000E+00  0.00000000E+00  0.00000000E+00  0.00000000E+00  0.00000000E+00
  0.00000000E+00  0.00000000E+00  0.00000000E+00  0.00000000E+00  6.89990666E-02
  3.16423961E-01  7.44308291E-01  1.00000000E+00  1.00000000E+00  0.00000000E+00
  0.00000000E+00  0.00000000E+00  0.00000000E+00  0.00000000E+00  0.00000000E+00
  0.00000000E+00  6.75797439E-02  3.23907296E-01  7.40895140E-01  1.00000000E+00
  1.00000000E+00  0.00000000E+00
Coordinates of each shell                  R   N=          99
 -1.60303577E-01  1.32280829E-05 -2.64561657E-04 -1.60303577E-01  1.32280829E-05
 -2.64561657E-04 -1.60303577E-01  1.32280829E-05 -2.64561657E-04 -1.60303577E-01
  1.32280829E-05 -2.64561657E-04 -1.60303577E-01  1.32280829E-05 -2.64561657E-04
 -4.13140807E+00 -1.88972612E-06  9.25965801E-05 -4.13140807E+00 -1.88972612E-06
  9.25965801E-05 -4.13140807E+00 -1.88972612E-06  9.25965801E-05 -4.13140807E+00
 -1.88972612E-06  9.25965801E-05 -4.13140807E+00 -1.88972612E-06  9.25965801E-05
 -4.13140807E+00 -1.88972612E-06  9.25965801E-05  1.71039112E-01  4.69218997E-03
 -2.00994861E+00  1.71039112E-01  4.69218997E-03 -2.00994861E+00  1.71039112E-01
  4.69218997E-03 -2.00994861E+00  1.71039112E-01  4.69218997E-03 -2.00994861E+00
  1.71617368E-01  1.73819277E+00  1.00841077E+00  1.71617368E-01  1.73819277E+00
  1.00841077E+00  1.71617368E-01  1.73819277E+00  1.00841077E+00  1.71617368E-01
  1.73819277E+00  1.00841077E+00  1.71609809E-01 -1.74284905E+00  1.00030196E+00
  1.71609809E-01 -1.74284905E+00  1.00030196E+00  1.71609809E-01 -1.74284905E+00
  1.00030196E+00  1.71609809E-01 -1.74284905E+00  1.00030196E+00  4.41205697E+00
  9.44863062E-06 -4.02511665E-04  4.41205697E+00  9.44863062E-06 -4.02511665E-04
  4.41205697E+00  9.44863062E-06 -4.02511665E-04  4.41205697E+00  9.44863062E-06
 -4.02511665E-04  4.41205697E+00  9.44863062E-06 -4.02511665E-04  6.63648760E+00
 -1.51178090E-05  4.28967830E-04  6.63648760E+00 -1.51178090E-05  4.28967830E-04
  6.63648760E+00 -1.51178090E-05  4.28967830E-04  6.63648760E+00 -1.51178090E-05
  4.28967830E-04  6.63648760E+00 -1.51178090E-05  4.28967830E-04
Num ILSW                                   I              100
ILSW                                       I   N=         100
           0           1           0           0           2           0
           0           0           0           0         402          -1
           5           0           0           0           2           0
           0           0           0           0           1           0
           1           1           0           0           0           0
           0           0      100000           0          -1           0
           0           0           0           0           0           0
           0           0           0           1           0           0
           0 -2000000000           1           0           0           0
           0           0           4          52           0           0
           0           0           5           0           0           0
           0           0           0           7           0           1
           0           0           0           0           0           0
           0           0           0           0           0           0
           0           0           0           0           0           0
           0           0           0           0           0           0
           0           0           0           0
Num RLSW                                   I               52
RLSW                                       R   N=          52
  8.00000000E-01  7.20000000E-01  1.00000000E+00  8.10000000E-01  2.00000000E-01
  0.00000000E+00  0.00000000E+00  1.00000000E+00  0.00000000E+00  0.00000000E+00
  0.00000000E+00  0.00000000E+00  1.00000000E+00  0.00000000E+00  0.00000000E+00
  0.00000000E+00  0.00000000E+00  1.00000000E+00  0.00000000E+00  0.00000000E+00
  0.00000000E+00  0.00000000E+00  1.00000000E+00  0.00000000E+00  0.00000000E+00
  0.00000000E+00  0.00000000E+00  1.00000000E+00  0.00000000E+00  0.00000000E+00
  0.00000000E+00  0.00000000E+00  1.00000000E+00  0.00000000E+00  0.00000000E+00
  0.00000000E+00  0.00000000E+00  0.00000000E+00  1.00000000E+00  1.00000000E+00
  0.00000000E+00  1.00000000E+00  0.00000000E+00  0.00000000E+00  0.00000000E+00
  0.00000000E+00  0.00000000E+00  0.00000000E+00  0.00000000E+00  0.00000000E+00
  0.00000000E+00  0.00000000E+00
MxBond                                     I                4
NBond                                      I   N=           7
           4           1           1           1           1           1
           1
IBond                                      I   N=          28
           2           3           4           5           1           0
           0           0           1           0           0           0
           1           0           0           0           1           0
           0           0           7           0           0           0
           6           0           0           0
RBond                                      R   N=          28
  1.00000000E+00  1.00000000E+00  1.00000000E+00  1.00000000E+00  1.00000000E+00
  0.00000000E+00  0.00000000E+00  0.00000000E+00  1.00000000E+00  0.00000000E+00
  0.00000000E+00  0.00000000E+00  1.00000000E+00  0.00000000E+00  0.00000000E+00
  0.00000000E+00  1.00000000E+00  0.00000000E+00  0.00000000E+00  0.00000000E+00
  3.00000000E+00  0.00000000E+00  0.00000000E+00  0.00000000E+00  3.00000000E+00
  0.00000000E+00  0.00000000E+00  0.00000000E+00
Virial Ratio                               R      2.004656323637248E+00
SCF Energy                                 R     -5.929878370708855E+02
Total Energy                               R     -5.929878370708855E+02
RMS Force                                  R      2.300188389581797E-03
RMS Density                                R      2.933656518405566E-09
NImag                                      I                3
Job Status                                 I                1
Nuclear derivative order                   I                2
External E-field                           R   N=          35
  0.00000000E+00  0.00000000E+00  0.00000000E+00  0.00000000E+00  0.00000000E+00
  0.00000000E+00  0.00000000E+00  0.00000000E+00  0.00000000E+00  0.00000000E+00
  0.00000000E+00  0.00000000E+00  0.00000000E+00  0.00000000E+00  0.00000000E+00
  0.00000000E+00  0.00000000E+00  0.00000000E+00  0.00000000E+00  0.00000000E+00
  0.00000000E+00  0.00000000E+00  0.00000000E+00  0.00000000E+00  0.00000000E+00
  0.00000000E+00  0.00000000E+00  0.00000000E+00  0.00000000E+00  0.00000000E+00
  0.00000000E+00  0.00000000E+00  0.00000000E+00  0.00000000E+00  0.00000000E+00
IOpCl                                      I                0
IROHF                                      I                0
Alpha Orbital Energies                     R   N=          98
 -1.01362068E+02 -1.41217558E+01 -1.01090529E+01 -9.99024575E+00 -9.27703081E+00
 -7.03863233E+00 -7.03258672E+00 -7.03258662E+00 -6.76382018E-01 -6.44663704E-01
 -5.41589096E-01 -3.04590577E-01 -3.04568746E-01 -2.31975204E-01 -1.91196486E-01
 -1.43831885E-01 -1.43829706E-01 -1.23521613E-01 -1.23521464E-01 -9.24033078E-02
  1.12283161E-01  1.25341305E-01  1.48709746E-01  1.48710206E-01  1.60765396E-01
  1.91242716E-01  2.04614895E-01  2.04616866E-01  2.22634656E-01  2.22641221E-01
  2.48368662E-01  2.48369328E-01  2.50063179E-01  2.60180420E-01  2.60183397E-01
  2.60878508E-01  3.10436330E-01  3.42510655E-01  3.42521508E-01  3.74657023E-01
  3.75852221E-01  3.75856866E-01  3.80456917E-01  4.59142759E-01  4.71265426E-01
  7.28992742E-01  7.65514802E-01  7.65519797E-01  7.66877023E-01  7.98771412E-01
  7.98789516E-01  8.75599386E-01  8.75602624E-01  8.87177599E-01  9.84526845E-01
  1.00341388E+00  1.03807415E+00  1.03809006E+00  1.07928576E+00  1.07929564E+00
  1.09711145E+00  1.09713326E+00  1.12758583E+00  1.17409967E+00  1.17410085E+00
  1.24575044E+00  1.32730003E+00  1.38179013E+00  1.51074625E+00  1.60026152E+00
  1.60029516E+00  1.75369303E+00  1.75369503E+00  1.77574406E+00  1.77574539E+00
  1.83029030E+00  2.13285076E+00  2.15626292E+00  2.15638385E+00  2.17643847E+00
  2.17644591E+00  2.17730414E+00  2.57769432E+00  2.60621556E+00  2.60629801E+00
  2.80836755E+00  2.80837181E+00  2.83121615E+00  2.92905612E+00  2.92920639E+00
  3.25288047E+00  3.44538246E+00  3.57398062E+00  3.57411791E+00  4.20009538E+00
  4.46038658E+00  4.48784416E+00  4.57391164E+00
Alpha MO coefficients                      R   N=        9604
 -1.77229782E-06 -7.11275417E-05 -1.91213522E-05  4.69274193E-12  2.54883670E-09
  1.36710580E-05 -1.19767676E-04 -7.04891797E-10  6.52369014E-10 -1.70795131E-04
  3.09607235E-05  4.94515796E-10  1.49067114E-08  8.85982429E-05  1.58975424E-05
  1.58945216E-05  4.67136205E-10 -3.82564535E-09  4.72250525E-12  9.95997520E-01
  1.51504631E-02  2.35423109E-05  1.44917336E-10 -1.94096368E-09 -2.10573282E-02
 -9.84419140E-06 -2.47699021E-11  1.59436260E-09  1.85755055E-03 -6.26759607E-05
 -2.93615239E-10  4.92110095E-09 -2.51942199E-04  2.48702833E-05  2.13370866E-10
 -4.26370070E-09  7.50179583E-03  7.52789882E-03  7.52789889E-03 -9.74730637E-11
  3.02234234E-09  1.39016645E-12 -7.07438144E-06 -1.06076316E-05  5.21841801E-05
  2.27819938E-05  5.22332580E-09 -2.18984767E-06 -7.06639790E-06 -1.06034696E-05
  5.21585295E-05  2.27806591E-05  1.89351013E-06  1.09786290E-06 -7.06705199E-06
 -1.06034232E-05  5.21597841E-05  2.27807357E-05 -1.89833651E-06  1.08901820E-06
 -1.58811841E-06 -5.08333715E-06  2.78729812E-06  8.88940681E-11 -3.81725740E-09
 -1.43735546E-04 -1.69754191E-04  1.12138769E-09 -3.25472505E-08 -8.67848995E-05
 -6.64875452E-05  1.20225138E-10 -1.40966705E-09 -8.72117297E-06 -1.52793664E-06
 -1.52797509E-06  1.85372321E-10 -7.49018894E-09  1.83782760E-12 -3.10022751E-06
 -1.35162172E-05 -3.99685267E-07 -4.52189926E-11  2.08977305E-09  1.89090209E-04
 -9.12936498E-05  1.26842035E-09 -4.51527646E-08  1.34683533E-04  4.75607638E-07
  5.33601044E-10 -2.11363338E-08  2.74417311E-06 -7.86882300E-06 -7.86880589E-06
 -1.85800872E-10  6.54082770E-09  3.49268631E-13 -3.71300085E-06  5.74943646E-06
 -2.69999791E-05  7.01759318E-11  2.42935588E-09  7.30927189E-05  4.96947383E-05
 -1.07409318E-10 -3.02461000E-08  1.34544839E-03  5.99065425E-04  2.82017623E-09
 -1.66821510E-07 -2.71938542E-05 -6.09108911E-06 -6.09200189E-06 -2.53918670E-12
  4.31252360E-09  3.84023547E-11  1.45219317E-07  1.66968419E-06  3.53922307E-07
  5.70265609E-12 -3.68413705E-10  5.32121507E-06 -2.30753393E-06 -3.19775818E-11
  2.10174230E-09 -5.18258029E-05  6.71623149E-06  1.26512575E-10 -6.01448428E-09
  2.72666310E-04  4.18164507E-05 -1.05367934E-09  5.21827301E-08  5.94276797E-06
  1.62845250E-06  1.62871795E-06 -1.92026133E-11  6.93848265E-10 -1.19683909E-11
  1.58520682E-06 -9.54208031E-05 -1.52353579E-04 -6.91033012E-06  1.42563865E-08
 -6.12189800E-06  1.57397961E-06 -9.53434914E-05 -1.52505979E-04 -6.90616917E-06
  5.29239260E-06  3.07360708E-06  1.57395133E-06 -9.53427386E-05 -1.52510051E-04
 -6.90602318E-06 -5.30655781E-06  3.04886154E-06  8.38988649E-05  2.05578343E-04
 -3.24684863E-04  3.39270411E-09 -1.15198540E-07 -1.90404809E-04 -3.46188679E-04
  4.88812091E-09 -1.64294464E-07  7.42792782E-04  1.41573863E-03 -1.17692290E-08
  3.82133366E-07 -8.01137184E-04 -9.12697132E-06 -9.12767690E-06  1.00543434E-08
 -3.40560364E-07  8.58045229E-12  9.92703155E-01  3.44631796E-02 -1.48809849E-03
  1.64538316E-08 -5.53826562E-07  5.12242997E-03  1.74091610E-04 -2.08957569E-09
  6.71017216E-08 -3.03402693E-03 -4.65466528E-05 -9.24675301E-10  3.82290903E-08
 -7.67137118E-03 -8.41970271E-03 -8.41970287E-03 -9.47095834E-09  3.20620963E-07
 -6.55836547E-12  9.93082485E-01  4.92571322E-02 -1.94844066E-04  2.25353418E-10
 -1.33564902E-07 -1.62529843E-02 -4.05268757E-04  9.13684628E-09  8.31968912E-07
  4.47320479E-03 -2.90106895E-03 -5.17765055E-09  7.78119486E-07 -9.27965525E-03
 -8.54417246E-03 -8.54430701E-03  4.32372912E-10  1.33720643E-07  1.80561387E-09
 -7.45017007E-06 -5.52799442E-05 -3.36454945E-05  6.83112939E-11  5.62189664E-09
 -3.06461620E-04  1.99765819E-04 -4.62587125E-10 -3.25064348E-08  1.84702704E-03
  1.10686516E-03  7.99901388E-09 -9.14377216E-08 -3.85896732E-03 -1.50678777E-03
 -9.01526599E-09  2.73112603E-08  2.01999574E-04 -1.10483547E-04 -1.10493280E-04
  1.97349315E-09 -3.84518037E-08  3.45895505E-10 -1.82039981E-04  3.04643449E-03
 -8.93185473E-04  6.43553907E-05  4.24868041E-07 -1.82725182E-04 -1.82124571E-04
  3.04557166E-03 -8.93800944E-04  6.43961060E-05  1.58081671E-04  9.17160531E-05
 -1.82122088E-04  3.04558193E-03 -8.93804852E-04  6.43966666E-05 -1.58507032E-04
  9.09776950E-05 -6.25574479E-06 -1.95382104E-04  4.95938065E-05  1.04387883E-09
  1.23736492E-09 -1.78729548E-03 -2.95158713E-03  1.64140702E-08 -6.92964379E-07
  1.71805316E-03  1.38664961E-04  1.27191993E-09 -3.18776708E-07  4.96485874E-05
 -4.14431432E-05 -4.14279702E-05  2.22791772E-09 -7.76546973E-08 -9.59534174E-11
 -7.05872475E-05 -3.01218431E-04  2.87051882E-05 -2.10733903E-09  6.76297831E-08
  3.44444637E-03 -1.30038883E-03  2.26112597E-08 -7.32405012E-07 -9.34462185E-05
 -2.14990888E-04 -2.61319283E-09  2.95046505E-07 -6.64178072E-05 -1.53521766E-04
 -1.53523078E-04 -1.53094206E-09  3.82682750E-08  1.39300992E-11 -5.20512026E-05
 -2.01811354E-04 -6.11698791E-05  2.19226818E-10  4.61697810E-09  6.05390071E-04
  8.00602061E-04 -9.14991160E-10 -1.63336969E-07  1.29366653E-03  1.13327660E-02
  1.88436917E-08 -7.15497729E-07  1.05759261E-04 -4.12566620E-05 -4.12609534E-05
 -5.53906510E-10 -1.44248496E-08 -2.89442326E-11  2.37947086E-07  9.59918886E-06
  1.06231071E-05  9.67622281E-11 -3.20345892E-09  1.82916914E-05 -7.13798236E-05
 -5.93072781E-10  1.94173918E-08 -3.57454938E-04  5.18426082E-04  2.79526085E-09
 -7.99919931E-08  9.96481491E-03  2.67411117E-03  1.84097157E-08 -3.24750879E-07
  6.87227535E-05 -5.35236739E-07 -5.32107814E-07  6.25284644E-10 -1.20943575E-08
 -2.56061958E-11 -3.09615843E-05 -4.54775597E-04  2.90878832E-04 -2.06525186E-05
 -2.48282728E-08  1.06453953E-05 -3.09763925E-05 -4.54553770E-04  2.91249586E-04
 -2.05863302E-05 -9.22737006E-06 -5.34340966E-06 -3.09769117E-05 -4.54552265E-04
  2.91263934E-04 -2.05865768E-05  9.25194913E-06 -5.30028291E-06  9.92834934E-01
  4.94537635E-02  1.67240731E-03 -2.13072785E-08  7.48178541E-07 -1.04352391E-02
  1.66501634E-04  1.02584911E-08 -4.14202636E-07 -1.59480873E-02  3.54574838E-03
  9.85675603E-09 -1.04157358E-06 -8.47362201E-03 -9.72602800E-03 -9.72603055E-03
 -1.60897824E-08  5.43614536E-07  4.60716767E-11 -4.75681950E-04  1.42923577E-04
  3.83233112E-04 -3.82671993E-09  1.35857532E-07 -2.19544568E-03  9.85789770E-04
 -1.44812215E-08  4.65994747E-07  9.32797067E-03 -4.24614442E-03  3.53190302E-08
 -8.80315412E-07 -1.98325384E-04  2.16565796E-04  2.16566314E-04  5.98070946E-09
 -2.07015767E-07  2.19969690E-12 -4.40898666E-05  4.20645459E-05  1.57815322E-04
  9.77428183E-10 -4.89012018E-09  1.59827358E-03 -1.83043114E-03  2.29867661E-09
  1.54754410E-07 -8.55420009E-03  3.07249803E-02  5.72450585E-08 -2.37090180E-06
 -2.50189707E-04 -3.36959736E-05 -3.37497843E-05 -1.42765031E-09  1.37709638E-08
  2.01290824E-09 -2.84619848E-01  1.02275505E+00  2.77409258E-03  1.83587677E-08
 -2.23777484E-07  7.57573547E-02  4.85654351E-04  1.48324532E-09 -4.97116338E-08
 -2.47333709E-02 -1.67378804E-03 -5.33537246E-09  1.48523433E-07  4.23154467E-02
  1.29216152E-02  6.06396752E-08 -1.38930873E-06 -1.54268212E-02 -1.55387056E-02
 -1.55387100E-02  1.00249311E-09 -1.47300907E-08  4.34234839E-11 -4.64546421E-05
 -5.56439577E-04 -3.46850711E-04 -4.64812927E-05 -1.77150682E-08  7.38717751E-06
 -4.64943399E-05 -5.56406619E-04 -3.45867564E-04 -4.63769304E-05 -6.36914428E-06
 -3.68627075E-06 -4.64933038E-05 -5.56387424E-04 -3.45914484E-04 -4.63826622E-05
  6.38797516E-06 -3.65813846E-06  1.48420594E-05  5.80084304E-05  3.13243168E-05
 -2.10691098E-09  7.31732115E-08 -7.30560363E-04 -3.24871304E-04  9.39243195E-09
 -2.81807349E-07 -2.37992183E-02  1.12292854E-02 -4.11238729E-08 -5.72329082E-07
  9.19808427E-05  1.70443460E-05  1.70417063E-05  1.05300715E-10 -3.34534360E-09
  6.34408575E-11 -2.77673981E-05 -8.82252690E-05 -9.75701966E-06 -7.54437989E-10
  5.76742125E-08  7.55064747E-04  4.80424568E-05  1.62289566E-09 -2.15938815E-07
  8.37527773E-05 -2.30806753E-03  8.76060176E-09  5.60009851E-07 -9.43958325E-05
 -5.92360430E-05 -5.92354694E-05  6.57753274E-10 -1.97172393E-08 -2.66696823E-11
  9.79605523E-05  7.81692301E-04 -4.52794152E-04 -1.36303857E-11  4.40370235E-08
 -5.30638649E-04  7.18629893E-04  1.40243011E-08  4.52258325E-07  4.08999192E-03
 -6.22852077E-02 -1.05478247E-07  3.02193019E-06 -4.87648115E-04  3.04987340E-04
  3.04870461E-04 -4.38891825E-09  1.85033378E-08  4.51217302E-09  8.27355542E-04
 -3.09676871E-03  9.90499141E-01  5.58980750E-06 -6.30775683E-05  3.84285315E-05
  3.09838223E-02  1.72831461E-07 -2.04567222E-06  2.38676403E-03 -1.37395984E-02
 -7.30554299E-08  1.01518745E-06 -5.49871980E-02 -1.09600533E-02 -8.29201487E-08
  1.79741077E-06  2.19569239E-04 -1.53760100E-04 -1.53768196E-04  7.30288435E-10
 -2.50246170E-08  5.20912017E-11 -2.04187524E-04  1.54929287E-03 -5.13623091E-03
 -2.88040734E-04  3.41832769E-09 -2.05116366E-06 -2.04440044E-04  1.54891826E-03
 -5.13716738E-03 -2.87905474E-04  1.87236752E-06  1.09338157E-06 -2.04422629E-04
  1.54891890E-03 -5.13720736E-03 -2.87916887E-04 -1.87556562E-06  1.08200603E-06
 -5.32525004E-05 -2.42069423E-04 -8.30633474E-05  3.80906040E-09 -1.67719919E-07
  2.90978573E-03  1.19948996E-03 -2.86175606E-08  1.05763543E-06  6.77700990E-02
 -2.62438014E-02  4.58769442E-08  2.74623339E-06 -4.73109865E-06 -8.82177825E-05
 -8.82156425E-05 -2.70645107E-09  9.61611812E-08 -7.13110227E-11 -1.65502205E-05
 -4.89311142E-05  3.32273462E-05  6.95693837E-10 -8.13277785E-08 -4.21468610E-04
  4.95356889E-04 -6.31747161E-09  4.83858340E-07 -9.70128745E-03  7.40298019E-03
 -3.73511302E-08 -5.99665766E-07 -7.93000728E-05 -2.26835750E-05 -2.26871125E-05
  3.36404367E-10 -3.08161227E-09 -1.53832517E-12 -1.36042377E-09 -7.12166450E-09
  2.19281113E-09 -5.55281113E-05 -8.19137147E-07  3.76195190E-08 -1.09767580E-08
  2.62037173E-04  3.86903802E-06  1.30675815E-08  1.10290446E-07  2.56763379E-04
  3.77340243E-06 -1.28516128E-09 -5.02157451E-07  4.99471090E-07 -1.01969704E-04
 -1.50333487E-06 -7.45913041E-05  3.93776919E-10 -1.20448718E-09 -4.65963239E-06
  9.90738951E-01  1.46073410E-02  5.07055619E-10 -1.41865496E-07  2.95830072E-02
  4.36167928E-04 -8.77627572E-09  5.11880350E-08 -1.15712926E-02 -1.70604529E-04
  7.90559615E-08  2.86783441E-09  5.13918096E-03  7.57696059E-05 -3.40840266E-09
  3.50265211E-08 -3.28291467E-08  1.84897550E-04  2.72594448E-06  4.85175447E-06
  1.19980467E-06 -7.40097908E-06  5.28288802E-05  2.29675688E-06 -2.57982618E-05
 -1.28994590E-06 -8.42740815E-05  5.18826880E-04 -3.71259839E-03 -1.61238131E-04
 -8.10327735E-05 -3.24007625E-05  8.30720513E-05 -5.11485556E-04  3.65978969E-03
  1.58950080E-04 -8.03942196E-05  3.09310902E-05  5.43417125E-11  5.14794762E-10
  5.75166245E-10  5.75859532E-05  8.48710200E-07 -1.05852452E-08 -7.25547103E-09
 -2.40988772E-04 -3.55224711E-06 -1.05687069E-07  3.44654912E-08  1.02313214E-03
  1.50883496E-05 -5.37194121E-10  1.82371098E-08 -1.80935716E-08  7.99080860E-07
  1.17243369E-08  2.65650895E-06 -9.03831678E-11 -4.09942654E-10 -3.11784494E-10
 -2.34055896E-05 -3.45523014E-07  7.22122048E-09 -2.72984819E-09  1.41347018E-04
  2.08588143E-06  1.89975092E-08 -8.05019198E-09 -3.63678617E-04 -5.36900415E-06
 -3.61923830E-11  1.76315107E-08 -1.78709932E-08 -1.70694434E-05 -2.51555369E-07
  2.62787498E-06 -1.24797676E-08 -5.90168450E-08  2.84892106E-08  8.18494141E-07
 -5.55437974E-05  3.78710128E-07 -2.14421179E-07 -3.85580168E-06  2.61898341E-04
  2.50064959E-07  7.02961564E-06 -3.78653359E-06  2.55988519E-04 -4.99422948E-08
 -6.46668348E-05  6.46750777E-05  1.50315093E-06 -1.01944362E-04  5.79325289E-07
 -1.59811443E-08  7.38439949E-08  6.32058599E-05 -1.46073405E-02  9.90738954E-01
  2.42620668E-08  1.81297115E-06 -4.36168700E-04  2.95829897E-02 -4.12037144E-07
 -6.65017446E-07  1.70606507E-04 -1.15712542E-02  5.87170610E-06  2.03568509E-06
 -7.57748637E-05  5.13928275E-03  1.71714958E-08  4.24540951E-06 -4.22994376E-06
 -2.72635546E-06  1.84903202E-04 -3.64468474E-08  9.65617460E-05 -5.95452183E-04
  4.25631149E-03  1.84919637E-04  5.51204271E-07 -9.90724511E-05 -4.72542387E-05
  2.90891511E-04 -2.08165688E-03 -9.04141957E-05 -3.05935734E-05 -4.37797085E-05
 -4.93287408E-05  3.03694912E-04 -2.17319803E-03 -9.43913593E-05  3.28042687E-05
 -4.44179747E-05  1.23011655E-08  5.48208135E-08 -1.91034825E-08 -8.49128979E-07