RxCoord=0.79980 DE=53.70                                                
Freq      RB3LYP                                                      6-31++G(d,p)        
Number of atoms                            I                7
Info1-9                                    I   N=           9
          16          16           0           0           0         100
           6          18        -502
Full Title                                 C   N=           2
RxCoord=0.79980 DE=53.70
Route                                      C   N=           6
#p b3lyp 6-31++g(d,p) scf=verytight NoSymm freq=noraman int=
ultrafine   
Charge                                     I               -1
Multiplicity                               I                1
Number of electrons                        I               40
Number of alpha electrons                  I               20
Number of beta electrons                   I               20
Number of basis functions                  I               98
Number of independent functions            I               98
Number of point charges in /Mol/           I                0
Number of translation vectors              I                0
Atomic numbers                             I   N=           7
           6          17           1           1           1           6
           7
Nuclear charges                            R   N=           7
  6.00000000E+00  1.70000000E+01  1.00000000E+00  1.00000000E+00  1.00000000E+00
  6.00000000E+00  7.00000000E+00
Current cartesian coordinates              R   N=          21
 -1.86272194E-01  1.32280829E-05 -2.66451384E-04 -4.12691052E+00 -1.88972612E-06
  9.07068540E-05  1.66188185E-01  4.68274134E-03 -2.00696095E+00  1.66821243E-01
  1.73561707E+00  1.00686687E+00  1.66815574E-01 -1.74026202E+00  9.98775059E-01
  4.41848959E+00  7.55890450E-06 -3.87393856E-04  6.64304117E+00 -1.51178090E-05
  4.30857556E-04
Number of symbols in /Mol/                 I                0
Force Field                                I                0
Atom Types                                 C   N=           7
                                                            
                        
Int Atom Types                             I   N=           7
           0           0           0           0           0           0
           0
MM charges                                 R   N=           7
  0.00000000E+00  0.00000000E+00  0.00000000E+00  0.00000000E+00  0.00000000E+00
  0.00000000E+00  0.00000000E+00
Integer atomic weights                     I   N=           7
          12          35           1           1           1          12
          14
Real atomic weights                        R   N=           7
  1.20000000E+01  3.49688527E+01  1.00782504E+00  1.00782504E+00  1.00782504E+00
  1.20000000E+01  1.40030740E+01
Atom fragment info                         I   N=           7
           0           0           0           0           0           0
           0
Atom residue num                           I   N=           7
           0           0           0           0           0           0
           0
Nuclear spins                              I   N=           7
           0           3           1           1           1           0
           2
Nuclear ZEff                               R   N=           7
 -3.60000000E+00 -1.42400000E+01 -1.00000000E+00 -1.00000000E+00 -1.00000000E+00
 -3.60000000E+00 -4.55000000E+00
Nuclear ZNuc                               R   N=           7
  6.00000000E+00  1.70000000E+01  1.00000000E+00  1.00000000E+00  1.00000000E+00
  6.00000000E+00  7.00000000E+00
Nuclear QMom                               R   N=           7
  0.00000000E+00 -8.16500000E+00  0.00000000E+00  0.00000000E+00  0.00000000E+00
  0.00000000E+00  2.04400000E+00
Nuclear GFac                               R   N=           7
  0.00000000E+00  8.21874000E-01  2.79284600E+00  2.79284600E+00  2.79284600E+00
  0.00000000E+00  4.03761000E-01
MicOpt                                     I   N=           7
          -1          -1          -1          -1          -1          -1
          -1
Number of residues                         I                0
Number of secondary structures             I                0
Number of contracted shells                I               33
Number of primitive shells                 I               72
Pure/Cartesian d shells                    I                1
Pure/Cartesian f shells                    I                0
Highest angular momentum                   I                2
Largest degree of contraction              I                6
Shell types                                I   N=          33
           0          -1          -1          -1           2           0
          -1          -1          -1          -1           2           0
           0           0           1           0           0           0
           1           0           0           0           1           0
          -1          -1          -1           2           0          -1
          -1          -1           2
Number of primitives per shell             I   N=          33
           6           3           1           1           1           6
           6           3           1           1           1           3
           1           1           1           3           1           1
           1           3           1           1           1           6
           3           1           1           1           6           3
           1           1           1
Shell to atom map                          I   N=          33
           1           1           1           1           1           2
           2           2           2           2           2           3
           3           3           3           4           4           4
           4           5           5           5           5           6
           6           6           6           6           7           7
           7           7           7
Primitive exponents                        R   N=          72
  3.04752488E+03  4.57369518E+02  1.03948685E+02  2.92101553E+01  9.28666296E+00
  3.16392696E+00  7.86827235E+00  1.88128854E+00  5.44249258E-01  1.68714478E-01
  4.38000000E-02  8.00000000E-01  2.51801000E+04  3.78035000E+03  8.60474000E+02
  2.42145000E+02  7.73349000E+01  2.62470000E+01  4.91765000E+02  1.16984000E+02
  3.74153000E+01  1.37834000E+01  5.45215000E+00  2.22588000E+00  3.18649000E+00
  1.14427000E+00  4.20377000E-01  1.42657000E-01  4.83000000E-02  7.50000000E-01
  1.87311370E+01  2.82539436E+00  6.40121692E-01  1.61277759E-01  3.60000000E-02
  1.10000000E+00  1.87311370E+01  2.82539436E+00  6.40121692E-01  1.61277759E-01
  3.60000000E-02  1.10000000E+00  1.87311370E+01  2.82539436E+00  6.40121692E-01
  1.61277759E-01  3.60000000E-02  1.10000000E+00  3.04752488E+03  4.57369518E+02
  1.03948685E+02  2.92101553E+01  9.28666296E+00  3.16392696E+00  7.86827235E+00
  1.88128854E+00  5.44249258E-01  1.68714478E-01  4.38000000E-02  8.00000000E-01
  4.17351146E+03  6.27457911E+02  1.42902093E+02  4.02343293E+01  1.28202129E+01
  4.39043701E+00  1.16263619E+01  2.71627981E+00  7.72218397E-01  2.12031498E-01
  6.39000000E-02  8.00000000E-01
Contraction coefficients                   R   N=          72
  1.83473713E-03  1.40373228E-02  6.88426223E-02  2.32184443E-01  4.67941348E-01
  3.62311985E-01 -1.19332420E-01 -1.60854152E-01  1.14345644E+00  1.00000000E+00
  1.00000000E+00  1.00000000E+00  1.83295985E-03  1.40341988E-02  6.90973943E-02
  2.37451980E-01  4.83033960E-01  3.39855972E-01 -2.29739142E-03 -3.07137189E-02
 -1.12528069E-01  4.50163278E-02  5.89353363E-01  4.65206287E-01 -2.51828028E-01
  6.15892514E-02  1.06018433E+00  1.00000000E+00  1.00000000E+00  1.00000000E+00
  3.34946043E-02  2.34726953E-01  8.13757326E-01  1.00000000E+00  1.00000000E+00
  1.00000000E+00  3.34946043E-02  2.34726953E-01  8.13757326E-01  1.00000000E+00
  1.00000000E+00  1.00000000E+00  3.34946043E-02  2.34726953E-01  8.13757326E-01
  1.00000000E+00  1.00000000E+00  1.00000000E+00  1.83473713E-03  1.40373228E-02
  6.88426223E-02  2.32184443E-01  4.67941348E-01  3.62311985E-01 -1.19332420E-01
 -1.60854152E-01  1.14345644E+00  1.00000000E+00  1.00000000E+00  1.00000000E+00
  1.83477216E-03  1.39946270E-02  6.85865518E-02  2.32240873E-01  4.69069948E-01
  3.60455199E-01 -1.14961182E-01 -1.69117479E-01  1.14585195E+00  1.00000000E+00
  1.00000000E+00  1.00000000E+00
P(S=P) Contraction coefficients            R   N=          72
  0.00000000E+00  0.00000000E+00  0.00000000E+00  0.00000000E+00  0.00000000E+00
  0.00000000E+00  6.89990666E-02  3.16423961E-01  7.44308291E-01  1.00000000E+00
  1.00000000E+00  0.00000000E+00  0.00000000E+00  0.00000000E+00  0.00000000E+00
  0.00000000E+00  0.00000000E+00  0.00000000E+00  3.98940088E-03  3.03177067E-02
  1.29880029E-01  3.27951072E-01  4.53527100E-01  2.52154056E-01 -1.42993147E-02
  3.23572333E-01  7.43507765E-01  1.00000000E+00  1.00000000E+00  0.00000000E+00
  0.00000000E+00  0.00000000E+00  0.00000000E+00  0.00000000E+00  0.00000000E+00
  0.00000000E+00  0.00000000E+00  0.00000000E+00  0.00000000E+00  0.00000000E+00
  0.00000000E+00  0.00000000E+00  0.00000000E+00  0.00000000E+00  0.00000000E+00
  0.00000000E+00  0.00000000E+00  0.00000000E+00  0.00000000E+00  0.00000000E+00
  0.00000000E+00  0.00000000E+00  0.00000000E+00  0.00000000E+00  6.89990666E-02
  3.16423961E-01  7.44308291E-01  1.00000000E+00  1.00000000E+00  0.00000000E+00
  0.00000000E+00  0.00000000E+00  0.00000000E+00  0.00000000E+00  0.00000000E+00
  0.00000000E+00  6.75797439E-02  3.23907296E-01  7.40895140E-01  1.00000000E+00
  1.00000000E+00  0.00000000E+00
Coordinates of each shell                  R   N=          99
 -1.86272194E-01  1.32280829E-05 -2.66451384E-04 -1.86272194E-01  1.32280829E-05
 -2.66451384E-04 -1.86272194E-01  1.32280829E-05 -2.66451384E-04 -1.86272194E-01
  1.32280829E-05 -2.66451384E-04 -1.86272194E-01  1.32280829E-05 -2.66451384E-04
 -4.12691052E+00 -1.88972612E-06  9.07068540E-05 -4.12691052E+00 -1.88972612E-06
  9.07068540E-05 -4.12691052E+00 -1.88972612E-06  9.07068540E-05 -4.12691052E+00
 -1.88972612E-06  9.07068540E-05 -4.12691052E+00 -1.88972612E-06  9.07068540E-05
 -4.12691052E+00 -1.88972612E-06  9.07068540E-05  1.66188185E-01  4.68274134E-03
 -2.00696095E+00  1.66188185E-01  4.68274134E-03 -2.00696095E+00  1.66188185E-01
  4.68274134E-03 -2.00696095E+00  1.66188185E-01  4.68274134E-03 -2.00696095E+00
  1.66821243E-01  1.73561707E+00  1.00686687E+00  1.66821243E-01  1.73561707E+00
  1.00686687E+00  1.66821243E-01  1.73561707E+00  1.00686687E+00  1.66821243E-01
  1.73561707E+00  1.00686687E+00  1.66815574E-01 -1.74026202E+00  9.98775059E-01
  1.66815574E-01 -1.74026202E+00  9.98775059E-01  1.66815574E-01 -1.74026202E+00
  9.98775059E-01  1.66815574E-01 -1.74026202E+00  9.98775059E-01  4.41848959E+00
  7.55890450E-06 -3.87393856E-04  4.41848959E+00  7.55890450E-06 -3.87393856E-04
  4.41848959E+00  7.55890450E-06 -3.87393856E-04  4.41848959E+00  7.55890450E-06
 -3.87393856E-04  4.41848959E+00  7.55890450E-06 -3.87393856E-04  6.64304117E+00
 -1.51178090E-05  4.30857556E-04  6.64304117E+00 -1.51178090E-05  4.30857556E-04
  6.64304117E+00 -1.51178090E-05  4.30857556E-04  6.64304117E+00 -1.51178090E-05
  4.30857556E-04  6.64304117E+00 -1.51178090E-05  4.30857556E-04
Num ILSW                                   I              100
ILSW                                       I   N=         100
           0           1           0           0           2           0
           0           0           0           0         402          -1
           5           0           0           0           2           0
           0           0           0           0           1           0
           1           1           0           0           0           0
           0           0      100000           0          -1           0
           0           0           0           0           0           0
           0           0           0           1           0           0
           0 -2000000000           1           0           0           0
           0           0           4          52           0           0
           0           0           5           0           0           0
           0           0           0           7           0           1
           0           0           0           0           0           0
           0           0           0           0           0           0
           0           0           0           0           0           0
           0           0           0           0           0           0
           0           0           0           0
Num RLSW                                   I               52
RLSW                                       R   N=          52
  8.00000000E-01  7.20000000E-01  1.00000000E+00  8.10000000E-01  2.00000000E-01
  0.00000000E+00  0.00000000E+00  1.00000000E+00  0.00000000E+00  0.00000000E+00
  0.00000000E+00  0.00000000E+00  1.00000000E+00  0.00000000E+00  0.00000000E+00
  0.00000000E+00  0.00000000E+00  1.00000000E+00  0.00000000E+00  0.00000000E+00
  0.00000000E+00  0.00000000E+00  1.00000000E+00  0.00000000E+00  0.00000000E+00
  0.00000000E+00  0.00000000E+00  1.00000000E+00  0.00000000E+00  0.00000000E+00
  0.00000000E+00  0.00000000E+00  1.00000000E+00  0.00000000E+00  0.00000000E+00
  0.00000000E+00  0.00000000E+00  0.00000000E+00  1.00000000E+00  1.00000000E+00
  0.00000000E+00  1.00000000E+00  0.00000000E+00  0.00000000E+00  0.00000000E+00
  0.00000000E+00  0.00000000E+00  0.00000000E+00  0.00000000E+00  0.00000000E+00
  0.00000000E+00  0.00000000E+00
MxBond                                     I                4
NBond                                      I   N=           7
           4           1           1           1           1           1
           1
IBond                                      I   N=          28
           2           3           4           5           1           0
           0           0           1           0           0           0
           1           0           0           0           1           0
           0           0           7           0           0           0
           6           0           0           0
RBond                                      R   N=          28
  1.00000000E+00  1.00000000E+00  1.00000000E+00  1.00000000E+00  1.00000000E+00
  0.00000000E+00  0.00000000E+00  0.00000000E+00  1.00000000E+00  0.00000000E+00
  0.00000000E+00  0.00000000E+00  1.00000000E+00  0.00000000E+00  0.00000000E+00
  0.00000000E+00  1.00000000E+00  0.00000000E+00  0.00000000E+00  0.00000000E+00
  3.00000000E+00  0.00000000E+00  0.00000000E+00  0.00000000E+00  3.00000000E+00
  0.00000000E+00  0.00000000E+00  0.00000000E+00
Virial Ratio                               R      2.004648857136443E+00
SCF Energy                                 R     -5.929881453766928E+02
Total Energy                               R     -5.929881453766928E+02
RMS Force                                  R      2.552171116529662E-03
RMS Density                                R      3.060837294843850E-09
NImag                                      I                3
Job Status                                 I                1
Nuclear derivative order                   I                2
External E-field                           R   N=          35
  0.00000000E+00  0.00000000E+00  0.00000000E+00  0.00000000E+00  0.00000000E+00
  0.00000000E+00  0.00000000E+00  0.00000000E+00  0.00000000E+00  0.00000000E+00
  0.00000000E+00  0.00000000E+00  0.00000000E+00  0.00000000E+00  0.00000000E+00
  0.00000000E+00  0.00000000E+00  0.00000000E+00  0.00000000E+00  0.00000000E+00
  0.00000000E+00  0.00000000E+00  0.00000000E+00  0.00000000E+00  0.00000000E+00
  0.00000000E+00  0.00000000E+00  0.00000000E+00  0.00000000E+00  0.00000000E+00
  0.00000000E+00  0.00000000E+00  0.00000000E+00  0.00000000E+00  0.00000000E+00
IOpCl                                      I                0
IROHF                                      I                0
Alpha Orbital Energies                     R   N=          98
 -1.01365024E+02 -1.41197335E+01 -1.01083185E+01 -9.98778237E+00 -9.28003153E+00
 -7.04173383E+00 -7.03552853E+00 -7.03552841E+00 -6.74356353E-01 -6.48212637E-01
 -5.41258647E-01 -3.04074524E-01 -3.04049072E-01 -2.32515238E-01 -1.91894339E-01
 -1.45984976E-01 -1.45982278E-01 -1.21659435E-01 -1.21659241E-01 -9.08637784E-02
  1.12388756E-01  1.25544822E-01  1.48678795E-01  1.48679828E-01  1.61140863E-01
  1.91446800E-01  2.04993932E-01  2.04995464E-01  2.22422029E-01  2.22430873E-01
  2.48736927E-01  2.48738122E-01  2.49763483E-01  2.61038139E-01  2.61040252E-01
  2.61675168E-01  3.10756912E-01  3.42550620E-01  3.42564544E-01  3.74788239E-01
  3.76725446E-01  3.76729275E-01  3.80196572E-01  4.60025061E-01  4.71892631E-01
  7.26125002E-01  7.64172172E-01  7.64177310E-01  7.65107233E-01  7.97555751E-01
  7.97575060E-01  8.77154243E-01  8.77158910E-01  8.86441511E-01  9.86192418E-01
  1.00705375E+00  1.03594602E+00  1.03596378E+00  1.07795903E+00  1.07797156E+00
  1.09663921E+00  1.09666700E+00  1.12697073E+00  1.17540694E+00  1.17540855E+00
  1.24676440E+00  1.32918107E+00  1.37740820E+00  1.50954701E+00  1.59973898E+00
  1.59977905E+00  1.75573191E+00  1.75573398E+00  1.77800755E+00  1.77800858E+00
  1.82989962E+00  2.13439018E+00  2.16050756E+00  2.16064380E+00  2.17843916E+00
  2.17844674E+00  2.17943197E+00  2.58380130E+00  2.59805685E+00  2.59815453E+00
  2.81049468E+00  2.81049975E+00  2.83177952E+00  2.93389345E+00  2.93406497E+00
  3.25406068E+00  3.44209605E+00  3.57226436E+00  3.57241781E+00  4.20151180E+00
  4.46060707E+00  4.48566246E+00  4.57068872E+00
Alpha MO coefficients                      R   N=        9604
 -1.92139840E-06 -6.84189956E-05 -2.17834162E-05 -2.00749644E-11  3.12410379E-09
  1.38216301E-05 -1.17269421E-04 -6.29805590E-10 -1.18787625E-09 -1.69771961E-04
  1.42118765E-05  4.47361342E-10  1.75239201E-08  8.74934632E-05  1.66848515E-05
  1.66808693E-05  4.62608624E-10 -3.23684032E-09  1.45896193E-11  9.95997503E-01
  1.51505058E-02  2.45073499E-05  1.48109176E-10 -1.95711488E-09 -2.10571172E-02
 -1.04616033E-05 -2.60345087E-11  1.63862256E-09  1.85744799E-03 -6.31439067E-05
 -3.06230220E-10  5.19987875E-09 -2.65434487E-04  2.12002256E-05  1.83038366E-10
 -3.80814994E-09  7.50126039E-03  7.52786433E-03  7.52786438E-03 -1.05491607E-10
  3.23885488E-09  1.20030254E-12 -7.70852297E-06 -9.96648652E-06  5.08856635E-05
  2.25705710E-05  6.36619354E-09 -2.68457711E-06 -7.69902856E-06 -9.96297424E-06
  5.08572958E-05  2.25693909E-05  2.32188814E-06  1.34669058E-06 -7.69958647E-06
 -9.96298985E-06  5.08585442E-05  2.25694212E-05 -2.32786520E-06  1.33584827E-06
 -1.59768050E-06 -4.87686694E-06  2.75065814E-06  7.80902373E-11 -3.80157879E-09
 -1.43976506E-04 -1.68162952E-04  1.06055706E-09 -3.20450448E-08 -6.90864365E-05
 -7.27575897E-05  1.43234342E-10 -6.74302240E-10 -9.07532819E-06 -1.56764512E-06
 -1.56769582E-06  1.68103966E-10 -7.38448046E-09  1.41865836E-12 -3.12446763E-06
 -1.35409518E-05 -4.50349210E-07 -3.78118298E-11  1.97146078E-09  1.88912738E-04
 -9.13138011E-05  1.15349819E-09 -4.40637776E-08  1.31452902E-04  2.47794108E-06
  4.63695038E-10 -2.08276994E-08  2.79988014E-06 -7.97876910E-06 -7.97875042E-06
 -1.70776581E-10  6.46714927E-09  4.04907720E-13 -3.18877987E-06  7.15241152E-06
 -2.57344445E-05  6.53994411E-11  2.34103124E-09  6.46072693E-05  4.55886003E-05
 -9.72371198E-11 -3.30197101E-08  1.31479799E-03  5.64248624E-04  2.27801451E-09
 -1.63831773E-07 -2.61732996E-05 -4.90788930E-06 -4.90905096E-06 -7.77366177E-12
  4.23368643E-09  2.24465204E-11  1.43678595E-07  1.70265817E-06  2.85374667E-07
  6.07732391E-12 -3.68033203E-10  5.23325379E-06 -1.93667288E-06 -3.44231540E-11
  2.09489437E-09 -5.16060214E-05  5.22841964E-06  1.29962692E-10 -5.65888819E-09
  2.49751432E-04  3.48857796E-05 -9.12001412E-10  5.17644865E-08  5.99148484E-06
  1.76902167E-06  1.76932976E-06 -1.18400993E-11  6.94567322E-10 -1.10446708E-11
  1.84085802E-06 -9.30004053E-05 -1.54597154E-04 -6.56567151E-06  1.42013216E-08
 -6.09992938E-06  1.82859612E-06 -9.29183672E-05 -1.54749128E-04 -6.56210919E-06
  5.27333830E-06  3.06245954E-06  1.82849745E-06 -9.29176634E-05 -1.54753133E-04
 -6.56199665E-06 -5.28745987E-06  3.03783422E-06  8.39630323E-05  2.05344502E-04
 -3.21849026E-04  3.12613910E-09 -1.12858435E-07 -1.96454350E-04 -3.53877157E-04
  4.46375436E-09 -1.61374332E-07  8.00832900E-04  1.38692109E-03 -1.11754520E-08
  3.80289491E-07 -7.98089970E-04 -9.35903715E-06 -9.35981600E-06  9.25538459E-09
 -3.34089236E-07  6.10374457E-12  9.92702480E-01  3.44627377E-02 -1.48146295E-03
  1.50802766E-08 -5.41548781E-07  5.13265335E-03  1.67982717E-04 -1.83114611E-09
  6.27907865E-08 -3.03365796E-03 -3.91370564E-05 -6.99066119E-10  3.53625362E-08
 -7.67423628E-03 -8.42060025E-03 -8.42060040E-03 -8.72758813E-09  3.14861338E-07
 -5.87755106E-12  9.93077998E-01  4.92682107E-02 -2.25305453E-04  3.99638818E-10
 -1.56440170E-07 -1.62351071E-02 -3.24485681E-04  9.00111121E-09  9.49166329E-07
  4.66690787E-03 -3.02166517E-03 -6.67539028E-09  8.53808279E-07 -9.27921406E-03
 -8.56075621E-03 -8.56090986E-03  1.88333726E-10  1.39429664E-07  1.55435461E-09
 -7.48425739E-06 -5.62990785E-05 -3.32318621E-05  3.82453805E-11  6.22776165E-09
 -2.99921607E-04  2.05278715E-04 -2.50342619E-10 -3.66069979E-08  1.92154931E-03
  1.14369656E-03  7.64217536E-09 -9.38983313E-08 -4.06533750E-03 -1.56176854E-03
 -9.06980658E-09  1.86940443E-08  1.92379094E-04 -1.13765465E-04 -1.13776917E-04
  1.85550696E-09 -3.90779158E-08  3.28073458E-10 -1.80478213E-04  3.04566936E-03
 -9.05533045E-04  6.34885982E-05  4.11826724E-07 -1.77240568E-04 -1.80569744E-04
  3.04466883E-03 -9.06220375E-04  6.35305335E-05  1.53342506E-04  8.89597483E-05
 -1.80567383E-04  3.04467954E-03 -9.06224992E-04  6.35307954E-05 -1.53754387E-04
  8.82436993E-05 -7.32003404E-06 -1.88259766E-04  4.93503969E-05  6.59703864E-10
  6.98274048E-09 -1.70553795E-03 -2.80445964E-03  1.61391610E-08 -6.85781451E-07
  1.80665676E-03  1.54287805E-04  2.88324141E-09 -3.42799360E-07  4.75922273E-05
 -4.11949982E-05 -4.11778649E-05  1.76032257E-09 -7.00085151E-08 -4.42137741E-11
 -6.85665347E-05 -2.91360471E-04  2.78612245E-05 -1.75370098E-09  6.23235355E-08
  3.30332812E-03 -1.24049593E-03  1.92645995E-08 -6.75989123E-07 -1.79629669E-04
 -2.07296934E-04 -3.57929461E-09  3.19282057E-07 -6.55279785E-05 -1.49675729E-04
 -1.49677331E-04 -1.23604706E-09  3.28458757E-08  9.08683075E-12 -4.94840372E-05
 -1.97124704E-04 -6.51154219E-05  1.65902091E-10  7.44297493E-09  5.88637120E-04
  7.91765917E-04  1.63734113E-11 -1.97752234E-07  8.44959203E-04  1.09715839E-02
  1.63001135E-08 -6.78126663E-07  1.00302502E-04 -4.06896031E-05 -4.06933656E-05
 -5.33732934E-10 -1.59837028E-08  5.10725602E-11  2.43532507E-07  9.63053806E-06
  1.03146522E-05  1.05199990E-10 -3.34936315E-09  1.87795349E-05 -6.90799499E-05
 -6.37154281E-10  2.01270711E-08 -3.49837646E-04  5.11901443E-04  2.88565490E-09
 -8.02734233E-08  9.86003217E-03  2.62763731E-03  1.85463726E-08 -3.21707226E-07
  6.79258299E-05 -2.91200721E-07 -2.87736245E-07  6.32426971E-10 -1.16209025E-08
 -2.13015543E-11 -3.16494602E-05 -4.55084389E-04  2.79222274E-04 -2.11064963E-05
 -2.19626766E-08  9.38810367E-06 -3.16638221E-05 -4.54818271E-04  2.79532532E-04
 -2.10316517E-05 -8.14462090E-06 -4.71241366E-06 -3.16642387E-05 -4.54815303E-04
  2.79542558E-04 -2.10314096E-05  8.16645832E-06 -4.67456512E-06  9.92834667E-01
  4.94505538E-02  1.69157360E-03 -1.96321557E-08  7.38870352E-07 -1.04597298E-02
  1.04881242E-04  8.95903173E-09 -4.06392795E-07 -1.53544913E-02  3.29544248E-03
  2.93549859E-09 -9.49827633E-07 -8.47170139E-03 -9.72683156E-03 -9.72683466E-03
 -1.48047574E-08  5.34551237E-07  3.65998044E-11 -4.77045311E-04  1.37121812E-04
  3.87943000E-04 -3.53814616E-09  1.34929056E-07 -2.13176590E-03  9.61993054E-04
 -1.31973090E-08  4.48980315E-07  9.30928396E-03 -4.19426899E-03  3.56321721E-08
 -9.05736273E-07 -2.04968976E-04  2.14199223E-04  2.14199751E-04  5.49524014E-09
 -2.04090686E-07  1.20675477E-12 -4.70351108E-05  5.24527095E-05  1.63743253E-04
  8.95590352E-10 -1.96147914E-09  1.69446360E-03 -1.80652903E-03  2.19433358E-09
  1.40803852E-07 -9.85616085E-03  3.13795288E-02  5.65477424E-08 -2.43009039E-06
 -2.85421563E-04 -3.78685166E-05 -3.79313009E-05 -1.50623018E-09  1.48875173E-08
  1.91893804E-09 -2.84619150E-01  1.02275562E+00  2.88401790E-03  1.87509015E-08
 -2.25302977E-07  7.57754010E-02  4.84979734E-04  1.48830481E-09 -5.03732701E-08
 -2.48367503E-02 -1.66897351E-03 -5.33048921E-09  1.49746239E-07  4.35915946E-02
  1.32344679E-02  6.39004574E-08 -1.44594789E-06 -1.54191562E-02 -1.55408027E-02
 -1.55408074E-02  1.07264511E-09 -1.55061782E-08  3.99731785E-11 -4.79598107E-05
 -5.77629171E-04 -2.57972171E-04 -4.72840287E-05 -1.29593735E-08  5.33563116E-06
 -4.80006771E-05 -5.77593440E-04 -2.56884205E-04 -4.71615152E-05 -4.59338935E-06
 -2.65384702E-06 -4.79997607E-05 -5.77574621E-04 -2.56930618E-04 -4.71667261E-05
  4.60723187E-06 -2.63393769E-06  1.53979291E-05  6.18482842E-05  3.24247600E-05
 -1.79235872E-09  7.17312866E-08 -6.87052670E-04 -2.63498152E-04  7.79441490E-09
 -2.60972474E-07 -2.40144319E-02  1.13710532E-02 -5.33826255E-08 -4.88677346E-07
  9.11690682E-05  1.73130539E-05  1.73098726E-05  8.38112089E-11 -2.19024711E-09
  5.20724692E-11 -2.54163115E-05 -7.89633100E-05 -1.07336576E-05 -4.65005069E-10
  5.49524625E-08  6.59335492E-04  8.15957727E-05  1.27861247E-10 -1.93223640E-07
  1.65188947E-04 -2.38219761E-03  1.51632036E-08  5.14033421E-07 -9.15637004E-05
 -5.40725334E-05 -5.40717974E-05  6.05254318E-10 -2.05637146E-08 -2.57795033E-11
  9.80687985E-05  8.37353019E-04 -4.25954845E-04 -1.66932805E-11  3.75566703E-08
 -5.06513104E-04  7.86026628E-04  1.13215377E-08  5.58296066E-07  6.73276093E-03
 -6.22985015E-02 -9.78621090E-08  2.87829958E-06 -5.74322163E-04  3.07606973E-04
  3.07463524E-04 -4.74808643E-09  2.55493810E-08  4.02946911E-09  8.58544143E-04
 -3.22057702E-03  9.90492580E-01  5.47479921E-06 -6.00371892E-05  2.01032751E-05
  3.10021372E-02  1.69640241E-07 -1.96161983E-06  2.55281096E-03 -1.37042149E-02
 -7.19404828E-08  9.85716418E-07 -5.63468457E-02 -1.12645809E-02 -8.76024468E-08
  1.86676454E-06  2.28542578E-04 -1.74218533E-04 -1.74227536E-04  8.59199222E-10
 -3.03064755E-08  4.23669801E-11 -2.10964410E-04  1.53973148E-03 -5.20247462E-03
 -2.89495207E-04  2.13371947E-08 -9.69797240E-06 -2.11266987E-04  1.53928920E-03
 -5.20327931E-03 -2.89326892E-04  8.49825650E-06  4.93452349E-06 -2.11251335E-04
  1.53928800E-03 -5.20331780E-03 -2.89337594E-04 -8.52004856E-06  4.89285813E-06
 -5.14128562E-05 -2.35003316E-04 -8.48253746E-05  2.89595301E-09 -1.57341370E-07
  2.93933226E-03  1.27584787E-03 -2.47540119E-08  1.03260534E-06  6.66088123E-02
 -2.58263364E-02  7.61089764E-08  2.41865613E-06  9.02820219E-07 -8.55385492E-05
 -8.55359419E-05 -2.70433713E-09  9.97054481E-08 -5.54156402E-11 -1.57063568E-05
 -4.42577425E-05  3.30135373E-05  2.74147764E-10 -7.73086343E-08 -4.91870544E-04
  5.36700299E-04 -4.58183593E-09  4.78920932E-07 -9.72771772E-03  7.35538479E-03
 -5.04082141E-08 -4.47374225E-07 -8.23137499E-05 -2.05630451E-05 -2.05668610E-05
  5.25286080E-10 -6.80412728E-09 -2.70305202E-12 -1.17767290E-09 -6.33318654E-09
  2.30011187E-09 -5.62259731E-05 -6.78311903E-07  3.30209263E-08 -1.23009916E-08
  2.70862442E-04  3.27113702E-06 -4.80071113E-09  6.38020196E-08  2.61282889E-04
  3.13829569E-06 -9.32902673E-10 -3.37843375E-07  3.35667764E-07 -9.47655591E-05
 -1.14255792E-06 -7.66781640E-05  4.60145430E-10 -1.49357961E-09 -4.75109347E-06
  9.90775245E-01  1.19466295E-02  4.59272147E-10 -1.44209783E-07  2.95824381E-02
  3.56700357E-04 -7.32976846E-09  5.10587138E-08 -1.15748981E-02 -1.39567084E-04
  4.45120021E-08 -7.05277331E-09  5.14178144E-03  6.19963554E-05 -3.55977339E-09
  2.40145064E-08 -2.17721295E-08  1.90600615E-04  2.29806464E-06  4.92053908E-06
  9.10699282E-07 -5.73169698E-06  4.15596574E-05  1.83688583E-06 -2.62958800E-05
 -1.01996269E-06 -8.14803720E-05  5.11781039E-04 -3.72133613E-03 -1.64250703E-04
 -8.06685911E-05 -3.18321644E-05  8.05675336E-05 -5.06099691E-04  3.67979386E-03
  1.62422128E-04 -8.02065259E-05  3.05960488E-05 -3.56644004E-11  1.39859277E-10
  5.48311701E-10  5.73727816E-05  6.91462325E-07 -1.31767442E-08 -1.17623052E-08
 -2.39313639E-04 -2.88451467E-06 -5.45164069E-08  9.02555485E-09  1.02405104E-03
  1.23479471E-05 -8.31752257E-10  1.23377380E-08 -1.23758558E-08  5.84406482E-07
  7.01950422E-09  2.75170854E-06 -2.10640911E-10 -9.20355617E-10 -2.70874954E-10
 -2.33148729E-05 -2.81423707E-07  1.31752981E-08 -5.57117431E-09  1.40805323E-04
  1.69897769E-06  1.68129716E-08 -1.30049762E-09 -3.65129225E-04 -4.40700194E-06
 -1.65622426E-12  1.11573020E-08 -1.19626485E-08 -1.69681184E-05 -2.04480812E-07
  2.61046335E-06 -1.65729228E-08 -8.20691879E-08  2.72897490E-08  6.77844910E-07
 -5.62448034E-05  4.85508942E-07 -2.02891175E-07 -3.25886550E-06  2.70693615E-04
  1.46292585E-10  8.10455874E-06 -3.15192210E-06  2.60387897E-04 -5.15732233E-08
 -6.64886658E-05  6.64904118E-05  1.14245616E-06 -9.47385238E-05  3.89790980E-07
 -1.72855289E-08  8.01555671E-08  6.01555307E-05 -1.19466290E-02  9.90775248E-01
  2.55980336E-08  1.70994826E-06 -3.56701182E-04  2.95824168E-02 -4.62467477E-07
 -6.08256757E-07  1.39569303E-04 -1.15748471E-02  6.89659866E-06  2.29967998E-06
 -6.20025769E-05  5.14187968E-03  1.63322561E-08  4.30757111E-06 -4.28781739E-06
 -2.29848686E-06  1.90607256E-04 -2.37597369E-08  9.34873559E-05 -5.88380448E-04
  4.27279298E-03  1.88675259E-04  4.85492987E-07 -9.85471485E-05 -4.59752865E-05
  2.88728385E-04 -2.09951941E-03 -9.26800677E-05 -3.03656088E-05 -4.41090646E-05
 -4.75490896E-05  2.98643777E-04 -2.17155588E-03 -9.58606760E-05  3.21384769E-05
 -4.45707566E-05  1.35747216E-08  6.05029624E-08 -1.67119222E-08 -6.91903953E-07