 Entering Gaussian System, Link 0=g16
 Initial command:
 /usr/local/g16_AVX//g16/l1.exe "/scratch/alanqf/0110-54552.ixchel.mda.cinvestav.mx/Gau-16474.inp" -scrdir="/scratch/alanqf/0110-54552.ixchel.mda.cinvestav.mx/"
 Entering Link 1 = /usr/local/g16_AVX//g16/l1.exe PID=     16475.
  
 Copyright (c) 1988-2017, Gaussian, Inc.  All Rights Reserved.
  
 This is part of the Gaussian(R) 16 program.  It is based on
 the Gaussian(R) 09 system (copyright 2009, Gaussian, Inc.),
 the Gaussian(R) 03 system (copyright 2003, Gaussian, Inc.),
 the Gaussian(R) 98 system (copyright 1998, Gaussian, Inc.),
 the Gaussian(R) 94 system (copyright 1995, Gaussian, Inc.),
 the Gaussian 92(TM) system (copyright 1992, Gaussian, Inc.),
 the Gaussian 90(TM) system (copyright 1990, Gaussian, Inc.),
 the Gaussian 88(TM) system (copyright 1988, Gaussian, Inc.),
 the Gaussian 86(TM) system (copyright 1986, Carnegie Mellon
 University), and the Gaussian 82(TM) system (copyright 1983,
 Carnegie Mellon University). Gaussian is a federally registered
 trademark of Gaussian, Inc.
  
 This software contains proprietary and confidential information,
 including trade secrets, belonging to Gaussian, Inc.
  
 This software is provided under written license and may be
 used, copied, transmitted, or stored only in accord with that
 written license.
  
 The following legend is applicable only to US Government
 contracts under FAR:
  
                    RESTRICTED RIGHTS LEGEND
  
 Use, reproduction and disclosure by the US Government is
 subject to restrictions as set forth in subparagraphs (a)
 and (c) of the Commercial Computer Software - Restricted
 Rights clause in FAR 52.227-19.
  
 Gaussian, Inc.
 340 Quinnipiac St., Bldg. 40, Wallingford CT 06492
  
  
 ---------------------------------------------------------------
 Warning -- This program may not be used in any manner that
 competes with the business of Gaussian, Inc. or will provide
 assistance to any competitor of Gaussian, Inc.  The licensee
 of this program is prohibited from giving any competitor of
 Gaussian, Inc. access to this program.  By using this program,
 the user acknowledges that Gaussian, Inc. is engaged in the
 business of creating and licensing software in the field of
 computational chemistry and represents and warrants to the
 licensee that it is not a competitor of Gaussian, Inc. and that
 it will not use this program in any manner prohibited above.
 ---------------------------------------------------------------
  

 Cite this work as:
 Gaussian 16, Revision B.01,
 M. J. Frisch, G. W. Trucks, H. B. Schlegel, G. E. Scuseria, 
 M. A. Robb, J. R. Cheeseman, G. Scalmani, V. Barone, 
 G. A. Petersson, H. Nakatsuji, X. Li, M. Caricato, A. V. Marenich, 
 J. Bloino, B. G. Janesko, R. Gomperts, B. Mennucci, H. P. Hratchian, 
 J. V. Ortiz, A. F. Izmaylov, J. L. Sonnenberg, D. Williams-Young, 
 F. Ding, F. Lipparini, F. Egidi, J. Goings, B. Peng, A. Petrone, 
 T. Henderson, D. Ranasinghe, V. G. Zakrzewski, J. Gao, N. Rega, 
 G. Zheng, W. Liang, M. Hada, M. Ehara, K. Toyota, R. Fukuda, 
 J. Hasegawa, M. Ishida, T. Nakajima, Y. Honda, O. Kitao, H. Nakai, 
 T. Vreven, K. Throssell, J. A. Montgomery, Jr., J. E. Peralta, 
 F. Ogliaro, M. J. Bearpark, J. J. Heyd, E. N. Brothers, K. N. Kudin, 
 V. N. Staroverov, T. A. Keith, R. Kobayashi, J. Normand, 
 K. Raghavachari, A. P. Rendell, J. C. Burant, S. S. Iyengar, 
 J. Tomasi, M. Cossi, J. M. Millam, M. Klene, C. Adamo, R. Cammi, 
 J. W. Ochterski, R. L. Martin, K. Morokuma, O. Farkas, 
 J. B. Foresman, and D. J. Fox, Gaussian, Inc., Wallingford CT, 2016.
 
 ******************************************
 Gaussian 16:  ES64L-G16RevB.01 20-Dec-2017
                13-Oct-2024 
 ******************************************
 %NProcShared=26
 Will use up to   26 processors via shared memory.
 %MEM=20GB
 %chk=CHKfiles/0110.chk
 ---------------------------------------------------------------------
 #p b3lyp 6-31++g(d,p) scf=verytight NoSymm freq=noraman int=ultrafine
 ---------------------------------------------------------------------
 1/10=4,30=1,38=1/1,3;
 2/12=2,15=1,17=6,18=5,40=1/2;
 3/5=1,6=6,7=1111,11=2,25=1,30=1,71=2,74=-5,75=-5,140=1/1,2,3;
 4//1;
 5/5=2,17=3,38=5,98=1/2;
 8/6=4,10=90,11=11/1;
 11/6=1,8=1,9=11,15=111,16=1,31=1/1,2,10;
 10/6=1,31=1/2;
 6/7=2,8=2,9=2,10=2,28=1/1;
 7/8=1,10=1,25=1,30=1/1,2,3,16;
 1/10=4,30=1/3;
 99//99;
 Leave Link    1 at Sun Oct 13 09:51:03 2024, MaxMem=  2684354560 cpu:               1.3 elap:               0.1
 (Enter /usr/local/g16_AVX//g16/l101.exe)
 ------------------------
 RxCoord=0.89977 DE=53.33
 ------------------------
 Symbolic Z-matrix:
 Charge = -1 Multiplicity = 1
 C                    -0.11229   0.00001  -0.00014 
 Cl                   -2.18148  0.         0.00005 
 H                     0.08513   0.00247  -1.0604 
 H                     0.08549   0.91704   0.53196 
 H                     0.08549  -0.91949   0.52769 
 C                     2.34158   0.       -0.0002 
 N                     3.51883  -0.00001   0.00023 
 
 ITRead=  0  0  0  0  0  0  0
 MicOpt= -1 -1 -1 -1 -1 -1 -1
 NAtoms=      7 NQM=        7 NQMF=       0 NMMI=      0 NMMIF=      0
                NMic=       0 NMicF=      0.
                    Isotopes and Nuclear Properties:
 (Nuclear quadrupole moments (NQMom) in fm**2, nuclear magnetic moments (NMagM)
  in nuclear magnetons)

  Atom         1           2           3           4           5           6           7
 IAtWgt=          12          35           1           1           1          12          14
 AtmWgt=  12.0000000  34.9688527   1.0078250   1.0078250   1.0078250  12.0000000  14.0030740
 NucSpn=           0           3           1           1           1           0           2
 AtZEff=  -0.0000000  -0.0000000  -0.0000000  -0.0000000  -0.0000000  -0.0000000  -0.0000000
 NQMom=    0.0000000  -8.1650000   0.0000000   0.0000000   0.0000000   0.0000000   2.0440000
 NMagM=    0.0000000   0.8218740   2.7928460   2.7928460   2.7928460   0.0000000   0.4037610
 AtZNuc=   6.0000000  17.0000000   1.0000000   1.0000000   1.0000000   6.0000000   7.0000000
 Leave Link  101 at Sun Oct 13 09:51:03 2024, MaxMem=  2684354560 cpu:               2.9 elap:               0.2
 (Enter /usr/local/g16_AVX//g16/l103.exe)

 GradGradGradGradGradGradGradGradGradGradGradGradGradGradGradGradGradGrad
 Berny optimization.
 Initialization pass.
 Trust Radius=3.00D-01 FncErr=1.00D-07 GrdErr=1.00D-07 EigMax=2.50D+02 EigMin=1.00D-04
 Number of steps in this run=      2 maximum allowed number of steps=      2.
 GradGradGradGradGradGradGradGradGradGradGradGradGradGradGradGradGradGrad

 Leave Link  103 at Sun Oct 13 09:51:03 2024, MaxMem=  2684354560 cpu:               0.6 elap:               0.1
 (Enter /usr/local/g16_AVX//g16/l202.exe)
                          Input orientation:                          
 ---------------------------------------------------------------------
 Center     Atomic      Atomic             Coordinates (Angstroms)
 Number     Number       Type             X           Y           Z
 ---------------------------------------------------------------------
      1          6           0       -0.112291    0.000007   -0.000144
      2         17           0       -2.181485   -0.000001    0.000046
      3          1           0        0.085125    0.002472   -1.060401
      4          1           0        0.085487    0.917035    0.531962
      5          1           0        0.085486   -0.919487    0.527690
      6          6           0        2.341578    0.000004   -0.000196
      7          7           0        3.518832   -0.000008    0.000229
 ---------------------------------------------------------------------
                    Distance matrix (angstroms):
                    1          2          3          4          5
     1  C    0.000000
     2  Cl   2.069194   0.000000
     3  H    1.078482   2.502414   0.000000
     4  H    1.078514   2.502609   1.836313   0.000000
     5  H    1.078515   2.502603   1.836312   1.836527   0.000000
     6  C    2.453869   4.523063   2.493115   2.492807   2.492805
     7  N    3.631123   5.700317   3.593784   3.593267   3.593261
                    6          7
     6  C    0.000000
     7  N    1.177254   0.000000
 Symmetry turned off by external request.
 Stoichiometry    C2H3ClN(1-)
 Framework group  C1[X(C2H3ClN)]
 Deg. of freedom    15
 Full point group                 C1      NOp   1
 Rotational constants (GHZ):         148.6979084           1.2402873           1.2402857
 Leave Link  202 at Sun Oct 13 09:51:03 2024, MaxMem=  2684354560 cpu:               0.2 elap:               0.0
 (Enter /usr/local/g16_AVX//g16/l301.exe)
 Standard basis: 6-31++G(d,p) (6D, 7F)
 Ernie: Thresh=  0.10000D-02 Tol=  0.10000D-05 Strict=F.
    98 basis functions,   176 primitive gaussians,    98 cartesian basis functions
    20 alpha electrons       20 beta electrons
       nuclear repulsion energy       109.2234884471 Hartrees.
 IExCor=  402 DFT=T Ex+Corr=B3LYP ExCW=0 ScaHFX=  0.200000
 ScaDFX=  0.800000  0.720000  1.000000  0.810000 ScalE2=  1.000000  1.000000
 IRadAn=      5 IRanWt=     -1 IRanGd=            0 ICorTp=0 IEmpDi=  4
 NAtoms=    7 NActive=    7 NUniq=    7 SFac= 1.00D+00 NAtFMM=   60 NAOKFM=F Big=F
 Integral buffers will be    131072 words long.
 Raffenetti 2 integral format.
 Two-electron integral symmetry is turned off.
 Leave Link  301 at Sun Oct 13 09:51:04 2024, MaxMem=  2684354560 cpu:               1.4 elap:               0.1
 (Enter /usr/local/g16_AVX//g16/l302.exe)
 NPDir=0 NMtPBC=     1 NCelOv=     1 NCel=       1 NClECP=     1 NCelD=      1
         NCelK=      1 NCelE2=     1 NClLst=     1 CellRange=     0.0.
 One-electron integrals computed using PRISM.
 NBasis=    98 RedAO= T EigKep=  1.26D-04  NBF=    98
 NBsUse=    98 1.00D-06 EigRej= -1.00D+00 NBFU=    98
 Precomputing XC quadrature grid using
 IXCGrd= 4 IRadAn=           5 IRanWt=          -1 IRanGd=           0 AccXCQ= 0.00D+00.
 Generated NRdTot=       0 NPtTot=           0 NUsed=           0 NTot=          32
 NSgBfM=    98    98    98    98    98 MxSgAt=     7 MxSgA2=     7.
 Leave Link  302 at Sun Oct 13 09:51:04 2024, MaxMem=  2684354560 cpu:               3.9 elap:               0.2
 (Enter /usr/local/g16_AVX//g16/l303.exe)
 DipDrv:  MaxL=1.
 Leave Link  303 at Sun Oct 13 09:51:04 2024, MaxMem=  2684354560 cpu:               0.8 elap:               0.1
 (Enter /usr/local/g16_AVX//g16/l401.exe)
 ExpMin= 3.60D-02 ExpMax= 2.52D+04 ExpMxC= 3.78D+03 IAcc=3 IRadAn=         5 AccDes= 0.00D+00
 Harris functional with IExCor=  402 and IRadAn=       5 diagonalized for initial guess.
 HarFok:  IExCor=  402 AccDes= 0.00D+00 IRadAn=         5 IDoV= 1 UseB2=F ITyADJ=14
 ICtDFT=  3500011 ScaDFX=  1.000000  1.000000  1.000000  1.000000
 FoFCou: FMM=F IPFlag=           0 FMFlag=      100000 FMFlg1=           0
         NFxFlg=           0 DoJE=T BraDBF=F KetDBF=T FulRan=T
         wScrn=  0.000000 ICntrl=       500 IOpCl=  0 I1Cent=   200000004 NGrid=           0
         NMat0=    1 NMatS0=      1 NMatT0=    0 NMatD0=    1 NMtDS0=    0 NMtDT0=    0
 Symmetry not used in FoFCou.
 Harris En= -593.055398198755    
 JPrj=0 DoOrth=F DoCkMO=F.
 Leave Link  401 at Sun Oct 13 09:51:04 2024, MaxMem=  2684354560 cpu:               5.7 elap:               0.3
 (Enter /usr/local/g16_AVX//g16/l502.exe)
 Keep R1 ints in memory in canonical form, NReq=35752935.
 FoFCou: FMM=F IPFlag=           0 FMFlag=           0 FMFlg1=           0
         NFxFlg=           0 DoJE=F BraDBF=F KetDBF=F FulRan=T
         wScrn=  0.000000 ICntrl=       600 IOpCl=  0 I1Cent=           0 NGrid=           0
         NMat0=    1 NMatS0=   4851 NMatT0=    0 NMatD0=    1 NMtDS0=    0 NMtDT0=    0
 Symmetry not used in FoFCou.
 Two-electron integral symmetry not used.
 Closed shell SCF:
 Using DIIS extrapolation, IDIIS=  1040.
 NGot=  2684354560 LenX=  2672563405 LenY=  2672553360
 Requested convergence on RMS density matrix=1.00D-08 within 128 cycles.
 Requested convergence on MAX density matrix=1.00D-06.
 Requested convergence on             energy=1.00D-06.
 No special actions if energy rises.

 Cycle   1  Pass 1  IDiag  1:
 E= -592.839848946343    
 DIIS: error= 3.38D-02 at cycle   1 NSaved=   1.
 NSaved= 1 IEnMin= 1 EnMin= -592.839848946343     IErMin= 1 ErrMin= 3.38D-02
 ErrMax= 3.38D-02  0.00D+00 EMaxC= 1.00D-01 BMatC= 1.25D-01 BMatP= 1.25D-01
 IDIUse=3 WtCom= 6.62D-01 WtEn= 3.38D-01
 Coeff-Com:  0.100D+01
 Coeff-En:   0.100D+01
 Coeff:      0.100D+01
 Gap=     0.379 Goal=   None    Shift=    0.000
 GapD=    0.379 DampG=1.000 DampE=0.500 DampFc=0.5000 IDamp=-1.
 Damping current iteration by 5.00D-01
 RMSDP=4.88D-02 MaxDP=1.51D+00              OVMax= 3.57D-01

 Cycle   2  Pass 1  IDiag  1:
 E= -592.877578854705     Delta-E=       -0.037729908362 Rises=F Damp=T
 DIIS: error= 1.12D-02 at cycle   2 NSaved=   2.
 NSaved= 2 IEnMin= 2 EnMin= -592.877578854705     IErMin= 2 ErrMin= 1.12D-02
 ErrMax= 1.12D-02  0.00D+00 EMaxC= 1.00D-01 BMatC= 1.63D-02 BMatP= 1.25D-01
 IDIUse=3 WtCom= 8.88D-01 WtEn= 1.12D-01
 Coeff-Com:  0.198D+00 0.802D+00
 Coeff-En:   0.359D+00 0.641D+00
 Coeff:      0.216D+00 0.784D+00
 Gap=     0.217 Goal=   None    Shift=    0.000
 RMSDP=2.29D-02 MaxDP=7.48D-01 DE=-3.77D-02 OVMax= 2.62D-01

 Cycle   3  Pass 1  IDiag  1:
 E= -592.976501936430     Delta-E=       -0.098923081725 Rises=F Damp=F
 DIIS: error= 1.54D-02 at cycle   3 NSaved=   3.
 NSaved= 3 IEnMin= 3 EnMin= -592.976501936430     IErMin= 2 ErrMin= 1.12D-02
 ErrMax= 1.54D-02  0.00D+00 EMaxC= 1.00D-01 BMatC= 1.25D-02 BMatP= 1.63D-02
 IDIUse=3 WtCom= 8.46D-01 WtEn= 1.54D-01
 Coeff-Com:  0.651D-01 0.466D+00 0.468D+00
 Coeff-En:   0.000D+00 0.000D+00 0.100D+01
 Coeff:      0.551D-01 0.395D+00 0.550D+00
 Gap=     0.210 Goal=   None    Shift=    0.000
 RMSDP=1.94D-03 MaxDP=3.53D-02 DE=-9.89D-02 OVMax= 6.29D-02

 Cycle   4  Pass 1  IDiag  1:
 E= -592.981025519979     Delta-E=       -0.004523583549 Rises=F Damp=F
 DIIS: error= 1.32D-02 at cycle   4 NSaved=   4.
 NSaved= 4 IEnMin= 4 EnMin= -592.981025519979     IErMin= 2 ErrMin= 1.12D-02
 ErrMax= 1.32D-02  0.00D+00 EMaxC= 1.00D-01 BMatC= 7.98D-03 BMatP= 1.25D-02
 IDIUse=3 WtCom= 8.68D-01 WtEn= 1.32D-01
 Coeff-Com: -0.687D-02 0.954D-01 0.434D+00 0.478D+00
 Coeff-En:   0.000D+00 0.000D+00 0.410D+00 0.590D+00
 Coeff:     -0.596D-02 0.827D-01 0.431D+00 0.493D+00
 Gap=     0.199 Goal=   None    Shift=    0.000
 RMSDP=1.14D-03 MaxDP=1.86D-02 DE=-4.52D-03 OVMax= 3.23D-02

 Cycle   5  Pass 1  IDiag  1:
 E= -592.987913597956     Delta-E=       -0.006888077977 Rises=F Damp=F
 DIIS: error= 2.58D-03 at cycle   5 NSaved=   5.
 NSaved= 5 IEnMin= 5 EnMin= -592.987913597956     IErMin= 5 ErrMin= 2.58D-03
 ErrMax= 2.58D-03  0.00D+00 EMaxC= 1.00D-01 BMatC= 4.92D-04 BMatP= 7.98D-03
 IDIUse=3 WtCom= 9.74D-01 WtEn= 2.58D-02
 Coeff-Com: -0.799D-02 0.221D-01 0.212D+00 0.299D+00 0.474D+00
 Coeff-En:   0.000D+00 0.000D+00 0.000D+00 0.305D-01 0.969D+00
 Coeff:     -0.778D-02 0.216D-01 0.207D+00 0.293D+00 0.487D+00
 Gap=     0.202 Goal=   None    Shift=    0.000
 RMSDP=4.64D-04 MaxDP=6.08D-03 DE=-6.89D-03 OVMax= 1.25D-02

 Cycle   6  Pass 1  IDiag  1:
 E= -592.988468276013     Delta-E=       -0.000554678058 Rises=F Damp=F
 DIIS: error= 3.52D-04 at cycle   6 NSaved=   6.
 NSaved= 6 IEnMin= 6 EnMin= -592.988468276013     IErMin= 6 ErrMin= 3.52D-04
 ErrMax= 3.52D-04  0.00D+00 EMaxC= 1.00D-01 BMatC= 1.37D-05 BMatP= 4.92D-04
 IDIUse=3 WtCom= 9.96D-01 WtEn= 3.52D-03
 Coeff-Com: -0.263D-02 0.143D-03 0.613D-01 0.937D-01 0.221D+00 0.627D+00
 Coeff-En:   0.000D+00 0.000D+00 0.000D+00 0.000D+00 0.000D+00 0.100D+01
 Coeff:     -0.262D-02 0.142D-03 0.611D-01 0.934D-01 0.220D+00 0.628D+00
 Gap=     0.202 Goal=   None    Shift=    0.000
 RMSDP=7.09D-05 MaxDP=1.49D-03 DE=-5.55D-04 OVMax= 1.42D-03

 Cycle   7  Pass 1  IDiag  1:
 E= -592.988482110788     Delta-E=       -0.000013834774 Rises=F Damp=F
 DIIS: error= 6.46D-05 at cycle   7 NSaved=   7.
 NSaved= 7 IEnMin= 7 EnMin= -592.988482110788     IErMin= 7 ErrMin= 6.46D-05
 ErrMax= 6.46D-05  0.00D+00 EMaxC= 1.00D-01 BMatC= 6.80D-07 BMatP= 1.37D-05
 IDIUse=1 WtCom= 1.00D+00 WtEn= 0.00D+00
 Coeff-Com: -0.215D-03-0.928D-03 0.651D-02 0.104D-01 0.443D-01 0.247D+00
 Coeff-Com:  0.693D+00
 Coeff:     -0.215D-03-0.928D-03 0.651D-02 0.104D-01 0.443D-01 0.247D+00
 Coeff:      0.693D+00
 Gap=     0.202 Goal=   None    Shift=    0.000
 RMSDP=2.18D-05 MaxDP=4.77D-04 DE=-1.38D-05 OVMax= 4.92D-04

 Cycle   8  Pass 1  IDiag  1:
 E= -592.988482894920     Delta-E=       -0.000000784132 Rises=F Damp=F
 DIIS: error= 2.48D-05 at cycle   8 NSaved=   8.
 NSaved= 8 IEnMin= 8 EnMin= -592.988482894920     IErMin= 8 ErrMin= 2.48D-05
 ErrMax= 2.48D-05  0.00D+00 EMaxC= 1.00D-01 BMatC= 7.77D-08 BMatP= 6.80D-07
 IDIUse=1 WtCom= 1.00D+00 WtEn= 0.00D+00
 Coeff-Com:  0.209D-03-0.749D-03-0.246D-02-0.312D-02 0.232D-02 0.575D-01
 Coeff-Com:  0.311D+00 0.635D+00
 Coeff:      0.209D-03-0.749D-03-0.246D-02-0.312D-02 0.232D-02 0.575D-01
 Coeff:      0.311D+00 0.635D+00
 Gap=     0.202 Goal=   None    Shift=    0.000
 RMSDP=4.02D-06 MaxDP=1.08D-04 DE=-7.84D-07 OVMax= 9.06D-05

 Cycle   9  Pass 1  IDiag  1:
 E= -592.988482982671     Delta-E=       -0.000000087751 Rises=F Damp=F
 DIIS: error= 3.73D-06 at cycle   9 NSaved=   9.
 NSaved= 9 IEnMin= 9 EnMin= -592.988482982671     IErMin= 9 ErrMin= 3.73D-06
 ErrMax= 3.73D-06  0.00D+00 EMaxC= 1.00D-01 BMatC= 9.38D-10 BMatP= 7.77D-08
 IDIUse=1 WtCom= 1.00D+00 WtEn= 0.00D+00
 Coeff-Com:  0.703D-04-0.135D-03-0.794D-03-0.978D-03-0.113D-02 0.113D-02
 Coeff-Com:  0.378D-01 0.145D+00 0.819D+00
 Coeff:      0.703D-04-0.135D-03-0.794D-03-0.978D-03-0.113D-02 0.113D-02
 Coeff:      0.378D-01 0.145D+00 0.819D+00
 Gap=     0.202 Goal=   None    Shift=    0.000
 RMSDP=1.37D-06 MaxDP=3.21D-05 DE=-8.78D-08 OVMax= 9.08D-06

 Cycle  10  Pass 1  IDiag  1:
 E= -592.988482983769     Delta-E=       -0.000000001098 Rises=F Damp=F
 DIIS: error= 3.88D-07 at cycle  10 NSaved=  10.
 NSaved=10 IEnMin=10 EnMin= -592.988482983769     IErMin=10 ErrMin= 3.88D-07
 ErrMax= 3.88D-07  0.00D+00 EMaxC= 1.00D-01 BMatC= 1.25D-11 BMatP= 9.38D-10
 IDIUse=1 WtCom= 1.00D+00 WtEn= 0.00D+00
 Coeff-Com:  0.510D-05-0.743D-06-0.498D-04-0.625D-04-0.163D-03-0.857D-03
 Coeff-Com: -0.303D-02 0.801D-02 0.101D+00 0.895D+00
 Coeff:      0.510D-05-0.743D-06-0.498D-04-0.625D-04-0.163D-03-0.857D-03
 Coeff:     -0.303D-02 0.801D-02 0.101D+00 0.895D+00
 Gap=     0.202 Goal=   None    Shift=    0.000
 RMSDP=1.10D-07 MaxDP=2.54D-06 DE=-1.10D-09 OVMax= 1.82D-06

 Cycle  11  Pass 1  IDiag  1:
 E= -592.988482983787     Delta-E=       -0.000000000018 Rises=F Damp=F
 DIIS: error= 6.61D-08 at cycle  11 NSaved=  11.
 NSaved=11 IEnMin=11 EnMin= -592.988482983787     IErMin=11 ErrMin= 6.61D-08
 ErrMax= 6.61D-08  0.00D+00 EMaxC= 1.00D-01 BMatC= 3.36D-13 BMatP= 1.25D-11
 IDIUse=1 WtCom= 1.00D+00 WtEn= 0.00D+00
 Coeff-Com: -0.727D-06 0.190D-05 0.172D-05 0.217D-05-0.159D-04-0.741D-04
 Coeff-Com: -0.782D-03-0.620D-03 0.205D-02 0.119D+00 0.880D+00
 Coeff:     -0.727D-06 0.190D-05 0.172D-05 0.217D-05-0.159D-04-0.741D-04
 Coeff:     -0.782D-03-0.620D-03 0.205D-02 0.119D+00 0.880D+00
 Gap=     0.202 Goal=   None    Shift=    0.000
 RMSDP=1.03D-08 MaxDP=1.66D-07 DE=-1.76D-11 OVMax= 2.09D-07

 Cycle  12  Pass 1  IDiag  1:
 E= -592.988482983786     Delta-E=        0.000000000000 Rises=F Damp=F
 DIIS: error= 7.91D-09 at cycle  12 NSaved=  12.
 NSaved=12 IEnMin=11 EnMin= -592.988482983787     IErMin=12 ErrMin= 7.91D-09
 ErrMax= 7.91D-09  0.00D+00 EMaxC= 1.00D-01 BMatC= 7.08D-15 BMatP= 3.36D-13
 IDIUse=1 WtCom= 1.00D+00 WtEn= 0.00D+00
 Coeff-Com: -0.281D-06 0.415D-06 0.625D-06 0.768D-06-0.106D-05 0.183D-05
 Coeff-Com: -0.440D-04-0.286D-03-0.158D-02 0.310D-02 0.156D+00 0.842D+00
 Coeff:     -0.281D-06 0.415D-06 0.625D-06 0.768D-06-0.106D-05 0.183D-05
 Coeff:     -0.440D-04-0.286D-03-0.158D-02 0.310D-02 0.156D+00 0.842D+00
 Gap=     0.202 Goal=   None    Shift=    0.000
 RMSDP=3.20D-09 MaxDP=5.43D-08 DE= 3.41D-13 OVMax= 4.53D-08

 SCF Done:  E(RB3LYP) =  -592.988482984     A.U. after   12 cycles
            NFock= 12  Conv=0.32D-08     -V/T= 2.0046
 KE= 5.902489860295D+02 PE=-1.628485679941D+03 EE= 3.360247224801D+02
 Leave Link  502 at Sun Oct 13 09:51:06 2024, MaxMem=  2684354560 cpu:              35.0 elap:               1.6
 (Enter /usr/local/g16_AVX//g16/l801.exe)
 DoSCS=F DFT=T ScalE2(SS,OS)=  1.000000  1.000000
 Range of M.O.s used for correlation:     1    98
 NBasis=    98 NAE=    20 NBE=    20 NFC=     0 NFV=     0
 NROrb=     98 NOA=    20 NOB=    20 NVA=    78 NVB=    78

 **** Warning!!: The largest alpha MO coefficient is  0.27773865D+02

 Leave Link  801 at Sun Oct 13 09:51:06 2024, MaxMem=  2684354560 cpu:               0.7 elap:               0.1
 (Enter /usr/local/g16_AVX//g16/l1101.exe)
 Using compressed storage, NAtomX=     7.
 Will process      8 centers per pass.
 Leave Link 1101 at Sun Oct 13 09:51:06 2024, MaxMem=  2684354560 cpu:               3.5 elap:               0.2
 (Enter /usr/local/g16_AVX//g16/l1102.exe)
 Symmetrizing basis deriv contribution to polar:
 IMax=3 JMax=2 DiffMx= 0.00D+00
 Leave Link 1102 at Sun Oct 13 09:51:06 2024, MaxMem=  2684354560 cpu:               0.8 elap:               0.1
 (Enter /usr/local/g16_AVX//g16/l1110.exe)
 Forming Gx(P) for the SCF density, NAtomX=     7.
 Integral derivatives from FoFJK, PRISM(SPDF).
 Do as many integral derivatives as possible in FoFJK.
 G2DrvN: MDV=    2684353864.
 G2DrvN: will do     8 centers at a time, making    1 passes.
 Calling FoFCou, ICntrl=  3107 FMM=F I1Cent=   0 AccDes= 0.00D+00.
 FoFJK:  IHMeth= 1 ICntrl=    3107 DoSepK=F KAlg= 0 I1Cent=           0 FoldK=F
 IRaf=         0 NMat=       1 IRICut=       1 DoRegI=T DoRafI=F ISym2E= 0 IDoP0=0 IntGTp=1.
 FoFCou: FMM=F IPFlag=           0 FMFlag=      100000 FMFlg1=           0
         NFxFlg=           0 DoJE=F BraDBF=F KetDBF=F FulRan=T
         wScrn=  0.000000 ICntrl=      3107 IOpCl=  0 I1Cent=           0 NGrid=           0
         NMat0=    1 NMatS0=      1 NMatT0=    0 NMatD0=    1 NMtDS0=    0 NMtDT0=    0
 Symmetry not used in FoFCou.
 End of G2Drv F.D. properties file   721 does not exist.
 End of G2Drv F.D. properties file   722 does not exist.
 End of G2Drv F.D. properties file   788 does not exist.
 Leave Link 1110 at Sun Oct 13 09:51:08 2024, MaxMem=  2684354560 cpu:              38.8 elap:               1.5
 (Enter /usr/local/g16_AVX//g16/l1002.exe)
 Minotr:  Closed shell wavefunction.
          IDoAtm=1111111
          Direct CPHF calculation.
          Differentiating once with respect to electric field.
                with respect to dipole field.
          Differentiating once with respect to nuclear coordinates.
          Requested convergence is 1.0D-08 RMS, and 1.0D-07 maximum.
          Secondary convergence is 1.0D-12 RMS, and 1.0D-12 maximum.
          NewPWx=T KeepS1=F KeepF1=F KeepIn=T MapXYZ=F SortEE=F KeepMc=T.
         2136 words used for storage of precomputed grid.
 Keep R1 ints in memory in canonical form, NReq=35668397.
 FoFCou: FMM=F IPFlag=           0 FMFlag=           0 FMFlg1=           0
         NFxFlg=           0 DoJE=F BraDBF=F KetDBF=F FulRan=T
         wScrn=  0.000000 ICntrl=       600 IOpCl=  0 I1Cent=           0 NGrid=           0
         NMat0=    1 NMatS0=   4851 NMatT0=    0 NMatD0=    1 NMtDS0=    0 NMtDT0=    0
 Symmetry not used in FoFCou.
 Two-electron integral symmetry not used.
          MDV=    2684354560 using IRadAn=       1.
          Solving linear equations simultaneously, MaxMat=       0.
          There are    24 degrees of freedom in the 1st order CPHF.  IDoFFX=6 NUNeed=     3.
     21 vectors produced by pass  0 Test12= 6.50D-15 4.17D-09 XBig12= 1.33D+02 7.40D+00.
 AX will form    21 AO Fock derivatives at one time.
     21 vectors produced by pass  1 Test12= 6.50D-15 4.17D-09 XBig12= 4.34D+01 1.85D+00.
     21 vectors produced by pass  2 Test12= 6.50D-15 4.17D-09 XBig12= 6.64D-01 2.49D-01.
     21 vectors produced by pass  3 Test12= 6.50D-15 4.17D-09 XBig12= 4.18D-03 1.45D-02.
     21 vectors produced by pass  4 Test12= 6.50D-15 4.17D-09 XBig12= 1.67D-05 1.01D-03.
     17 vectors produced by pass  5 Test12= 6.50D-15 4.17D-09 XBig12= 2.84D-08 3.91D-05.
      6 vectors produced by pass  6 Test12= 6.50D-15 4.17D-09 XBig12= 2.77D-11 1.38D-06.
      1 vectors produced by pass  7 Test12= 6.50D-15 4.17D-09 XBig12= 2.53D-14 3.76D-08.
 InvSVY:  IOpt=1 It=  1 EMax= 1.07D-14
 Solved reduced A of dimension   129 with    24 vectors.
 FullF1:  Do perturbations      1 to       3.
 Isotropic polarizability for W=    0.000000       64.80 Bohr**3.
 End of Minotr F.D. properties file   721 does not exist.
 End of Minotr F.D. properties file   722 does not exist.
 End of Minotr F.D. properties file   788 does not exist.
 Leave Link 1002 at Sun Oct 13 09:51:10 2024, MaxMem=  2684354560 cpu:              53.3 elap:               2.1
 (Enter /usr/local/g16_AVX//g16/l601.exe)
 Copying SCF densities to generalized density rwf, IOpCl= 0 IROHF=0.

 **********************************************************************

            Population analysis using the SCF Density.

 **********************************************************************

 Alpha  occ. eigenvalues -- -101.36793 -14.11777 -10.10756  -9.98540  -9.28299
 Alpha  occ. eigenvalues --   -7.04479  -7.03843  -7.03843  -0.67239  -0.65180
 Alpha  occ. eigenvalues --   -0.54091  -0.30357  -0.30355  -0.23347  -0.19233
 Alpha  occ. eigenvalues --   -0.14809  -0.14809  -0.11984  -0.11983  -0.08931
 Alpha virt. eigenvalues --    0.11248   0.12581   0.14864   0.14864   0.16156
 Alpha virt. eigenvalues --    0.19172   0.20532   0.20532   0.22224   0.22225
 Alpha virt. eigenvalues --    0.24905   0.24906   0.24945   0.26193   0.26193
 Alpha virt. eigenvalues --    0.26247   0.31109   0.34257   0.34259   0.37470
 Alpha virt. eigenvalues --    0.37758   0.37758   0.38012   0.46088   0.47254
 Alpha virt. eigenvalues --    0.72313   0.76289   0.76290   0.76334   0.79628
 Alpha virt. eigenvalues --    0.79630   0.87870   0.87871   0.88583   0.98740
 Alpha virt. eigenvalues --    1.01125   1.03377   1.03379   1.07661   1.07662
 Alpha virt. eigenvalues --    1.09627   1.09630   1.12636   1.17669   1.17669
 Alpha virt. eigenvalues --    1.24784   1.33082   1.37299   1.50826   1.59932
 Alpha virt. eigenvalues --    1.59937   1.75771   1.75771   1.78020   1.78020
 Alpha virt. eigenvalues --    1.82928   2.13598   2.16483   2.16498   2.18038
 Alpha virt. eigenvalues --    2.18039   2.18219   2.58989   2.59003   2.59012
 Alpha virt. eigenvalues --    2.81254   2.81255   2.83249   2.93839   2.93859
 Alpha virt. eigenvalues --    3.25521   3.43872   3.57067   3.57084   4.20290
 Alpha virt. eigenvalues --    4.46071   4.48342   4.56770
          Condensed to atoms (all electrons):
               1          2          3          4          5          6
     1  C    5.440964  -0.175742   0.429469   0.429482   0.429483  -0.178060
     2  Cl  -0.175742  17.641196  -0.049808  -0.049793  -0.049793   0.106137
     3  H    0.429469  -0.049808   0.498559  -0.021029  -0.021028  -0.045850
     4  H    0.429482  -0.049793  -0.021029   0.498522  -0.021000  -0.045871
     5  H    0.429483  -0.049793  -0.021028  -0.021000   0.498522  -0.045873
     6  C   -0.178060   0.106137  -0.045850  -0.045871  -0.045873   5.806050
     7  N   -0.019045  -0.003051  -0.001465  -0.001467  -0.001467   0.707465
               7
     1  C   -0.019045
     2  Cl  -0.003051
     3  H   -0.001465
     4  H   -0.001467
     5  H   -0.001467
     6  C    0.707465
     7  N    6.872799
 Mulliken charges:
               1
     1  C   -0.356552
     2  Cl  -0.419147
     3  H    0.211153
     4  H    0.211157
     5  H    0.211156
     6  C   -0.303998
     7  N   -0.553769
 Sum of Mulliken charges =  -1.00000
 Mulliken charges with hydrogens summed into heavy atoms:
               1
     1  C    0.276914
     2  Cl  -0.419147
     6  C   -0.303998
     7  N   -0.553769
 APT charges:
               1
     1  C    1.070678
     2  Cl  -0.958689
     3  H   -0.007839
     4  H   -0.007802
     5  H   -0.007803
     6  C   -0.442190
     7  N   -0.646354
 Sum of APT charges =  -1.00000
 APT charges with hydrogens summed into heavy atoms:
               1
     1  C    1.047234
     2  Cl  -0.958689
     6  C   -0.442190
     7  N   -0.646354
 Electronic spatial extent (au):  <R**2>=            846.1894
 Charge=             -1.0000 electrons
 Dipole moment (field-independent basis, Debye):
    X=             -6.4227    Y=              0.0000    Z=             -0.0005  Tot=              6.4227
 Quadrupole moment (field-independent basis, Debye-Ang):
   XX=            -87.9520   YY=            -35.3083   ZZ=            -35.3092
   XY=              0.0001   XZ=             -0.0009   YZ=              0.0000
 Traceless Quadrupole moment (field-independent basis, Debye-Ang):
   XX=            -35.0955   YY=             17.5482   ZZ=             17.5473
   XY=              0.0001   XZ=             -0.0009   YZ=              0.0000
 Octapole moment (field-independent basis, Debye-Ang**2):
  XXX=           -142.8337  YYY=             -0.0071  ZZZ=             -1.0105  XYY=             -8.2961
  XXY=              0.0003  XXZ=             -0.0079  XZZ=             -8.2967  YZZ=              0.0071
  YYZ=              1.0120  XYZ=              0.0000
 Hexadecapole moment (field-independent basis, Debye-Ang**3):
 XXXX=          -1769.5118 YYYY=            -55.5197 ZZZZ=            -55.5189 XXXY=              0.0016
 XXXZ=             -0.0397 YYYX=             -0.0007 YYYZ=              0.0000 ZZZX=             -0.1516
 ZZZY=             -0.0000 XXYY=           -216.8092 XXZZ=           -216.8093 YYZZ=            -18.5072
 XXYZ=              0.0000 YYXZ=              0.1485 ZZXY=              0.0011
 N-N= 1.092234884471D+02 E-N=-1.628485678998D+03  KE= 5.902489860295D+02
  Exact polarizability: 116.513  -0.000  38.940   0.003  -0.000  38.940
 Approx polarizability: 148.361  -0.000  48.870   0.006   0.000  48.868
 No NMR shielding tensors so no spin-rotation constants.
 Leave Link  601 at Sun Oct 13 09:51:10 2024, MaxMem=  2684354560 cpu:               2.7 elap:               0.1
 (Enter /usr/local/g16_AVX//g16/l701.exe)
 ... and contract with generalized density number  0.
 Compute integral second derivatives.
 Leave Link  701 at Sun Oct 13 09:51:10 2024, MaxMem=  2684354560 cpu:               4.6 elap:               0.2
 (Enter /usr/local/g16_AVX//g16/l702.exe)
 L702 exits ... SP integral derivatives will be done elsewhere.
 Leave Link  702 at Sun Oct 13 09:51:10 2024, MaxMem=  2684354560 cpu:               0.5 elap:               0.0
 (Enter /usr/local/g16_AVX//g16/l703.exe)
 Integral derivatives from FoFJK, PRISM(SPDF).
 Compute integral second derivatives, UseDBF=F ICtDFT=           0.
 Calling FoFJK, ICntrl=    100127 FMM=F ISym2X=0 I1Cent= 0 IOpClX= 0 NMat=1 NMatS=1 NMatT=0.
 FoFJK:  IHMeth= 1 ICntrl=  100127 DoSepK=F KAlg= 0 I1Cent=           0 FoldK=F
 IRaf=         0 NMat=       1 IRICut=       1 DoRegI=T DoRafI=F ISym2E= 0 IDoP0=0 IntGTp=1.
 FoFCou: FMM=F IPFlag=           0 FMFlag=      100000 FMFlg1=         800
         NFxFlg=           0 DoJE=F BraDBF=F KetDBF=F FulRan=T
         wScrn=  0.000000 ICntrl=    100127 IOpCl=  0 I1Cent=           0 NGrid=           0
         NMat0=    1 NMatS0=      1 NMatT0=    0 NMatD0=    1 NMtDS0=    0 NMtDT0=    0
 Symmetry not used in FoFCou.
 Leave Link  703 at Sun Oct 13 09:51:13 2024, MaxMem=  2684354560 cpu:              66.3 elap:               2.6
 (Enter /usr/local/g16_AVX//g16/l716.exe)
 Dipole        =-2.52686614D+00 7.28270619D-06-1.82025846D-04
 Polarizability= 1.16512793D+02-5.90886457D-05 3.89398154D+01
                 2.88849394D-03-1.56509818D-06 3.89397370D+01
 Full mass-weighted force constant matrix:
 Low frequencies --- -252.8903  -50.8791  -50.8695   -9.1006   -9.0832   -0.0051
 Low frequencies ---   -0.0048   -0.0024  116.7959
 ******    3 imaginary frequencies (negative Signs) ****** 
 Diagonal vibrational polarizability:
      393.9494863      25.9347785      25.9412342
 Harmonic frequencies (cm**-1), IR intensities (KM/Mole), Raman scattering
 activities (A**4/AMU), depolarization ratios for plane and unpolarized
 incident light, reduced masses (AMU), force constants (mDyne/A),
 and normal coordinates:
                      1                      2                      3
                      A                      A                      A
 Frequencies --   -252.8903               -46.1481               -46.1356
 Red. masses --     10.9394                 8.9914                 8.9914
 Frc consts  --      0.4122                 0.0113                 0.0113
 IR Inten    --    908.3601                 1.5332                 1.5329
  Atom  AN      X      Y      Z        X      Y      Z        X      Y      Z
     1   6     0.85   0.00   0.00     0.00   0.27  -0.00    -0.00   0.00   0.27
     2  17    -0.11  -0.00  -0.00     0.00  -0.11   0.00    -0.00  -0.00  -0.11
     3   1     0.19   0.00  -0.10    -0.00   0.31  -0.00     0.20   0.00   0.31
     4   1     0.19   0.09   0.05    -0.17   0.31  -0.01    -0.10   0.00   0.31
     5   1     0.19  -0.09   0.05     0.17   0.31  -0.00    -0.10   0.01   0.31
     6   6    -0.26  -0.00   0.00     0.00   0.56  -0.01    -0.00   0.01   0.56
     7   7    -0.27   0.00  -0.00    -0.00  -0.50   0.01     0.00  -0.01  -0.50
                      4                      5                      6
                      A                      A                      A
 Frequencies --    234.8766               234.8825               241.3802
 Red. masses --      4.5807                 4.5808                18.3865
 Frc consts  --      0.1489                 0.1489                 0.6312
 IR Inten    --     13.3091                13.3088                21.7206
  Atom  AN      X      Y      Z        X      Y      Z        X      Y      Z
     1   6     0.00   0.44  -0.00    -0.00   0.00   0.44    -0.21   0.00  -0.00
     2  17    -0.00  -0.10   0.00     0.00  -0.00  -0.10     0.50  -0.00   0.00
     3   1    -0.00   0.47  -0.00     0.12   0.00   0.48     0.05  -0.00   0.04
     4   1    -0.10   0.48   0.00    -0.06   0.01   0.47     0.05  -0.04  -0.03
     5   1     0.10   0.48  -0.01    -0.06  -0.00   0.47     0.05   0.04  -0.03
     6   6     0.00  -0.31   0.00    -0.00  -0.00  -0.31    -0.58  -0.00   0.00
     7   7     0.00   0.03  -0.00    -0.00   0.00   0.03    -0.59   0.00  -0.00
                      7                      8                      9
                      A                      A                      A
 Frequencies --    981.4675               981.5666              1139.2268
 Red. masses --      1.0520                 1.0520                 1.0548
 Frc consts  --      0.5971                 0.5972                 0.8065
 IR Inten    --      0.0173                 0.0173                79.3509
  Atom  AN      X      Y      Z        X      Y      Z        X      Y      Z
     1   6    -0.00  -0.00  -0.06     0.00  -0.06   0.00    -0.05  -0.00   0.00
     2  17    -0.00   0.00   0.01     0.00   0.01  -0.00    -0.02   0.00  -0.00
     3   1     0.80   0.00   0.09    -0.01   0.13  -0.00     0.57  -0.00   0.10
     4   1    -0.40  -0.02   0.12    -0.69   0.10  -0.02     0.57  -0.08  -0.05
     5   1    -0.39   0.02   0.12     0.69   0.10   0.02     0.57   0.08  -0.05
     6   6     0.00  -0.00  -0.01    -0.00  -0.01   0.00    -0.01  -0.00   0.00
     7   7    -0.00   0.00   0.00     0.00   0.00  -0.00    -0.02   0.00  -0.00
                     10                     11                     12
                      A                      A                      A
 Frequencies --   1423.4384              1423.5330              2174.9440
 Red. masses --      1.0887                 1.0887                12.7735
 Frc consts  --      1.2997                 1.2998                35.6006
 IR Inten    --      4.9683                 4.9637                 5.7676
  Atom  AN      X      Y      Z        X      Y      Z        X      Y      Z
     1   6    -0.00  -0.00  -0.09    -0.00  -0.09   0.00    -0.00  -0.00   0.00
     2  17    -0.00  -0.00  -0.00    -0.00  -0.00   0.00    -0.00  -0.00   0.00
     3   1    -0.17   0.01  -0.10     0.00   0.79   0.00    -0.04   0.00  -0.01
     4   1     0.09  -0.39   0.56     0.14   0.13  -0.39    -0.04   0.01   0.00
     5   1     0.08   0.39   0.57    -0.15   0.12   0.38    -0.04  -0.01   0.00
     6   6    -0.00   0.00   0.00     0.00   0.00  -0.00     0.76  -0.00   0.00
     7   7    -0.00   0.00   0.00     0.00   0.00  -0.00    -0.64   0.00  -0.00
                     13                     14                     15
                      A                      A                      A
 Frequencies --   3173.4889              3350.8013              3350.9011
 Red. masses --      1.0133                 1.1200                 1.1199
 Frc consts  --      6.0127                 7.4089                 7.4092
 IR Inten    --      2.5836                 0.6648                 0.6607
  Atom  AN      X      Y      Z        X      Y      Z        X      Y      Z
     1   6     0.02  -0.00   0.00    -0.00  -0.10   0.00    -0.00  -0.00  -0.10
     2  17    -0.00   0.00  -0.00     0.00   0.00  -0.00    -0.00   0.00   0.00
     3   1    -0.09  -0.00   0.57     0.00  -0.02  -0.01    -0.14  -0.00   0.80
     4   1    -0.09  -0.49  -0.29     0.12   0.59   0.35     0.07   0.36   0.19
     5   1    -0.09   0.49  -0.28    -0.12   0.60  -0.35     0.07  -0.35   0.18
     6   6     0.00   0.00  -0.00    -0.00   0.00  -0.00     0.00   0.00   0.00
     7   7     0.00  -0.00   0.00    -0.00  -0.00   0.00     0.00  -0.00  -0.00

 -------------------
 - Thermochemistry -
 -------------------
 Temperature   298.150 Kelvin.  Pressure   1.00000 Atm.
 Atom     1 has atomic number  6 and mass  12.00000
 Atom     2 has atomic number 17 and mass  34.96885
 Atom     3 has atomic number  1 and mass   1.00783
 Atom     4 has atomic number  1 and mass   1.00783
 Atom     5 has atomic number  1 and mass   1.00783
 Atom     6 has atomic number  6 and mass  12.00000
 Atom     7 has atomic number  7 and mass  14.00307
 Molecular mass:    75.99540 amu.
 Principal axes and moments of inertia in atomic units:
                           1         2         3
     Eigenvalues --    12.136961455.099301455.10119
           X            1.00000   0.00000  -0.00001
           Y           -0.00000   0.99999  -0.00443
           Z            0.00001   0.00443   0.99999
 This molecule is an asymmetric top.
 Rotational symmetry number  1.
 Rotational temperatures (Kelvin)      7.13637     0.05952     0.05952
 Rotational constants (GHZ):         148.69791     1.24029     1.24029
    3 imaginary frequencies ignored.
 Zero-point vibrational energy     111913.7 (Joules/Mol)
                                   26.74801 (Kcal/Mol)
 Warning -- explicit consideration of   3 degrees of freedom as
           vibrations may cause significant error
 Vibrational temperatures:    337.93   337.94   347.29  1412.11  1412.26
          (Kelvin)           1639.09  2048.01  2048.15  3129.26  4565.94
                             4821.06  4821.20
 
 Zero-point correction=                           0.042626 (Hartree/Particle)
 Thermal correction to Energy=                    0.047087
 Thermal correction to Enthalpy=                  0.048032
 Thermal correction to Gibbs Free Energy=         0.015048
 Sum of electronic and zero-point Energies=           -592.945857
 Sum of electronic and thermal Energies=              -592.941396
 Sum of electronic and thermal Enthalpies=            -592.940451
 Sum of electronic and thermal Free Energies=         -592.973434
 
                     E (Thermal)             CV                S
                      KCal/Mol        Cal/Mol-Kelvin    Cal/Mol-Kelvin
 Total                   29.548             12.559             69.419
 Electronic               0.000              0.000              0.000
 Translational            0.889              2.981             38.900
 Rotational               0.889              2.981             24.756
 Vibrational             27.770              6.597              5.763
 Vibration     1          0.655              1.787              1.841
 Vibration     2          0.655              1.787              1.841
 Vibration     3          0.658              1.777              1.793
                       Q            Log10(Q)             Ln(Q)
 Total Bot       0.119724D-06         -6.921818        -15.938075
 Total V=0       0.483740D+13         12.684612         29.207399
 Vib (Bot)       0.801223D-19        -19.096247        -43.970733
 Vib (Bot)    1  0.836755D+00         -0.077402         -0.178224
 Vib (Bot)    2  0.836732D+00         -0.077414         -0.178252
 Vib (Bot)    3  0.811819D+00         -0.090541         -0.208478
 Vib (V=0)       0.323730D+01          0.510184          1.174741
 Vib (V=0)    1  0.147476D+01          0.168722          0.388496
 Vib (V=0)    2  0.147474D+01          0.168716          0.388482
 Vib (V=0)    3  0.145344D+01          0.162397          0.373934
 Electronic      0.100000D+01          0.000000          0.000000
 Translational   0.260396D+08          7.415635         17.075130
 Rotational      0.573844D+05          4.758794         10.957527
 
                                                       RxCoord=0.89977 DE=53.33
                                                             IR Spectrum
 
      3     3                                     2                            1         1                                           
      3     1                                     1                            4         1     9                           22        
      5     7                                     7                            2         3     8                           43        
      1     3                                     5                            3         9     1                           15        
 
      X     X                                     X                            X         X                                 XX        
                                                                               X         X                                 XX        
                                                                               X         X                                 XX        
                                                                                         X                                 XX        
                                                                                         X                                 XX        
                                                                                         X                                  X        
                                                                                         X                                  X        
                                                                                         X                                           
                                                                                         X                                           
                                                                                         X                                           
                                                                                         X                                           
                                                                                         X                                           
                                                                                         X                                           
                                                                                         X                                           
                                                                                         X                                           
                                                                                         X                                           
                                                                                         X                                           
                                                                                         X                                           
                                                                                         X                                           
                                                                                         X                                           
 
 -------------------------------------------------------------------
 Center     Atomic                   Forces (Hartrees/Bohr)
 Number     Number              X              Y              Z
 -------------------------------------------------------------------
      1        6          -0.010933279   -0.000000623   -0.000005054
      2       17           0.003321654    0.000000237    0.000005471
      3        1           0.000218641   -0.000002268    0.001014586
      4        1           0.000201695   -0.000909595   -0.000508016
      5        1           0.000201977    0.000912205   -0.000503742
      6        6           0.002588866    0.000000078   -0.000004593
      7        7           0.004400445   -0.000000035    0.000001348
 -------------------------------------------------------------------
 Cartesian Forces:  Max     0.010933279 RMS     0.002759971
 Z-matrix is all fixed cartesians, so copy forces.
 Force constants in Cartesian coordinates: 
                1             2             3             4             5 
      1  0.194610D-01
      2  0.000000D+00  0.660729D+00
      3  0.978409D-04  0.000000D+00  0.660670D+00
      4  0.241628D-01  0.000000D+00 -0.215934D-05  0.651282D-01
      5  0.000000D+00 -0.263623D-01  0.000000D+00  0.000000D+00  0.146492D-01
      6 -0.320260D-05  0.000000D+00 -0.263588D-01 -0.796828D-05  0.000000D+00
      7 -0.244231D-01 -0.138914D-03  0.597857D-01 -0.213695D-01 -0.299445D-04
      8 -0.129104D-03 -0.523610D-01  0.724420D-03  0.116030D-04  0.341895D-03
      9  0.555177D-01  0.724443D-03 -0.364124D+00 -0.499545D-02 -0.120458D-04
     10 -0.244661D-01 -0.517969D-01 -0.300604D-01 -0.213638D-01 -0.110917D-01
     11 -0.481001D-01 -0.285530D+00 -0.135300D+00  0.432337D-02  0.422083D-02
     12 -0.279184D-01 -0.135292D+00 -0.130878D+00  0.251229D-02  0.225226D-02
     13 -0.244657D-01  0.519357D-01 -0.298189D-01 -0.213643D-01  0.111215D-01
     14  0.482290D-01 -0.286785D+00  0.134575D+00 -0.433505D-02  0.424169D-02
     15 -0.276944D-01  0.134567D+00 -0.129622D+00  0.249223D-02 -0.224011D-02
     16  0.121731D-01  0.000000D+00  0.000000D+00 -0.148670D-01  0.000000D+00
     17  0.000000D+00 -0.124721D-01  0.000000D+00  0.000000D+00  0.350365D-02
     18 -0.857412D-05  0.000000D+00 -0.124690D-01  0.690892D-05  0.000000D+00
     19  0.175579D-01  0.000000D+00 -0.245049D-05 -0.103265D-01  0.000000D+00
     20  0.000000D+00  0.278148D-02  0.000000D+00  0.000000D+00 -0.594984D-03
     21  0.905259D-05  0.000000D+00  0.278131D-02 -0.584765D-05  0.000000D+00
                6             7             8             9            10 
      6  0.146522D-01
      7  0.128299D-01  0.507549D-01
      8 -0.119511D-04  0.133185D-03  0.455919D-01
      9  0.552486D-02 -0.572724D-01 -0.758790D-03  0.372096D+00
     10 -0.643586D-02  0.217547D-02  0.419848D-02  0.321187D-02  0.508012D-01
     11  0.225062D-02 -0.657763D-03  0.378665D-02  0.356606D-02  0.496196D-01
     12  0.164712D-02 -0.525109D-02 -0.238394D-01 -0.804034D-02  0.287932D-01
     13 -0.638439D-02  0.217550D-02 -0.421337D-02  0.319233D-02  0.217441D-02
     14 -0.223853D-02  0.682179D-03  0.369204D-02 -0.351141D-02  0.487936D-02
     15  0.162632D-02 -0.524802D-02  0.238939D-01 -0.794582D-02  0.205797D-02
     16  0.000000D+00 -0.815174D-02  0.000000D+00 -0.231098D-03 -0.815889D-02
     17  0.000000D+00  0.129179D-04 -0.140600D-02 -0.109782D-04  0.481601D-02
     18  0.350320D-02 -0.556543D-02 -0.109615D-04  0.331294D-02  0.279675D-02
     19  0.000000D+00 -0.116159D-02 -0.133525D-05  0.577085D-03 -0.116229D-02
     20  0.000000D+00 -0.166071D-05  0.354505D-03  0.272972D-05 -0.624815D-03
     21 -0.594917D-03  0.721363D-03  0.273715D-05 -0.823574D-03 -0.363601D-03
               11            12            13            14            15 
     11  0.289774D+00
     12  0.141700D+00  0.127824D+00
     13 -0.488883D-02  0.203524D-02  0.508013D-01
     14 -0.138492D-01  0.136439D-01 -0.497526D-01  0.291088D+00
     15 -0.137530D-01  0.960666D-02  0.285621D-01 -0.140941D+00  0.126509D+00
     16  0.202375D-03  0.118067D-03 -0.815898D-02 -0.202917D-03  0.117127D-03
     17  0.212451D-02  0.204672D-02 -0.482898D-02  0.214358D-02 -0.203577D-02
     18  0.204785D-02 -0.217311D-03  0.277435D-02 -0.203691D-02 -0.236249D-03
     19 -0.498666D-03 -0.289326D-03 -0.116231D-02  0.500004D-03 -0.286987D-03
     20 -0.526997D-03 -0.511412D-03  0.626543D-03 -0.531770D-03  0.508678D-03
     21 -0.511726D-03  0.573469D-04 -0.360691D-03  0.508982D-03  0.620921D-04
               16            17            18            19            20 
     16  0.117651D+01
     17 -0.116334D-04  0.679547D-02
     18  0.407957D-03  0.000000D+00  0.679596D-02
     19 -0.114934D+01  0.116491D-04 -0.411955D-03  0.114560D+01
     20  0.116837D-04 -0.689107D-03  0.000000D+00 -0.116626D-04 -0.793132D-03
     21 -0.412971D-03  0.000000D+00 -0.689580D-03  0.412695D-03  0.000000D+00
               21 
     21 -0.792676D-03
 Leave Link  716 at Sun Oct 13 09:51:13 2024, MaxMem=  2684354560 cpu:               0.9 elap:               0.1
 (Enter /usr/local/g16_AVX//g16/l103.exe)

 GradGradGradGradGradGradGradGradGradGradGradGradGradGradGradGradGradGrad
 Berny optimization.
 Search for a local minimum.
 Step number   1 out of a maximum of    2
 All quantities printed in internal units (Hartrees-Bohrs-Radians)
 Second derivative matrix not updated -- analytic derivatives used.
 ITU=  0
     Eigenvalues ---   -0.02892  -0.00081  -0.00081   0.01323   0.01323
     Eigenvalues ---    0.03981   0.04606   0.04607   0.08597   0.10750
     Eigenvalues ---    0.10751   0.40675   0.96745   0.96748   2.30954
 Eigenvalue     1 is  -2.89D-02 should be greater than     0.000000 Eigenvector:
                          X1        X7        X6        X2        Z3
   1                    0.84523  -0.29873  -0.29253  -0.21202  -0.10580
                          X4        X5        X3        Y5        Y4
   1                    0.10360   0.10359   0.10353  -0.09187   0.09163
 Eigenvalue     2 is  -8.13D-04 should be greater than     0.000000 Eigenvector:
                          Y7        Y6        Y3        Y4        Y5
   1                    0.60258  -0.55482  -0.23811  -0.23501  -0.23494
                          Y2        Y1        X5        X4        Z7
   1                    0.23092  -0.19567  -0.18889   0.18575  -0.00731
 Eigenvalue     3 is  -8.12D-04 should be greater than     0.000000 Eigenvector:
                          Z7        Z6        Z5        Z4        Z3
   1                    0.60257  -0.55482  -0.23727  -0.23718  -0.23358
                          Z2        X3        Z1        X4        X5
   1                    0.23091  -0.21628  -0.19566   0.11095   0.10554
 Quadratic step=4.276D-01 exceeds max=3.000D-01 adjusted using Lamda=-1.235D-02.
 Angle between NR and scaled steps=   0.84 degrees.
 Angle between quadratic step and forces=   9.19 degrees.
 Linear search not attempted -- first point.
 B after Tr=     0.011330    0.000001   -0.000013
         Rot=    1.000000    0.000000   -0.000002    0.000000 Ang=  -0.00 deg.
 Variable       Old X    -DE/DX   Delta X   Delta X   Delta X     New X
                                 (Linear)    (Quad)   (Total)
    X1       -0.21220  -0.01093   0.00000  -0.26304  -0.25171  -0.46391
    Y1        0.00001  -0.00000   0.00000  -0.00000  -0.00000   0.00001
    Z1       -0.00027  -0.00001   0.00000  -0.00004  -0.00005  -0.00032
    X2       -4.12241   0.00332   0.00000   0.07249   0.08382  -4.03859
    Y2       -0.00000   0.00000   0.00000   0.00000   0.00000   0.00000
    Z2        0.00009   0.00001   0.00000   0.00000   0.00000   0.00009
    X3        0.16086   0.00022   0.00000  -0.01309  -0.00177   0.15909
    Y3        0.00467  -0.00000   0.00000  -0.00008  -0.00008   0.00459
    Z3       -2.00387   0.00101   0.00000   0.03484   0.03482  -1.96904
    X4        0.16155   0.00020   0.00000  -0.01343  -0.00209   0.15945
    Y4        1.73294  -0.00091   0.00000  -0.03034  -0.03033   1.70261
    Z4        1.00526  -0.00051   0.00000  -0.01739  -0.01740   0.98786
    X5        0.16155   0.00020   0.00000  -0.01342  -0.00209   0.15946
    Y5       -1.73758   0.00091   0.00000   0.03041   0.03041  -1.70717
    Z5        0.99719  -0.00050   0.00000  -0.01724  -0.01726   0.97993
    X6        4.42494   0.00259   0.00000   0.07447   0.08579   4.51074
    Y6        0.00001   0.00000   0.00000   0.00000   0.00000   0.00001
    Z6       -0.00037  -0.00000   0.00000  -0.00009  -0.00012  -0.00049
    X7        6.64963   0.00440   0.00000   0.07672   0.08805   6.73767
    Y7       -0.00002  -0.00000   0.00000   0.00000   0.00000  -0.00001
    Z7        0.00043   0.00000   0.00000   0.00003  -0.00000   0.00043
         Item               Value     Threshold  Converged?
 Maximum Force            0.010933     0.000450     NO 
 RMS     Force            0.002760     0.000300     NO 
 Maximum Displacement     0.251706     0.001800     NO 
 RMS     Displacement     0.065161     0.001200     NO 
 Predicted change in Energy=-4.990849D-03
 GradGradGradGradGradGradGradGradGradGradGradGradGradGradGradGradGradGrad

 Leave Link  103 at Sun Oct 13 09:51:13 2024, MaxMem=  2684354560 cpu:               0.6 elap:               0.1
 (Enter /usr/local/g16_AVX//g16/l9999.exe)

 ----------------------------------------------------------------------

 Electric dipole moment (input orientation):
 (Debye = 10**-18 statcoulomb cm , SI units = C m)
                  (au)            (Debye)         (10**-30 SI)
   Tot        0.252687D+01      0.642265D+01      0.214237D+02
   x         -0.252687D+01     -0.642265D+01     -0.214237D+02
   y          0.000000D+00      0.000000D+00      0.000000D+00
   z         -0.182026D-03     -0.462664D-03     -0.154328D-02

 Dipole polarizability, Alpha (input orientation).
 (esu units = cm**3 , SI units = C**2 m**2 J**-1)
 Alpha(0;0):
               (au)            (10**-24 esu)      (10**-40 SI)
   iso        0.647974D+02      0.960199D+01      0.106837D+02
   aniso      0.775730D+02      0.114951D+02      0.127901D+02
   xx         0.116513D+03      0.172654D+02      0.192104D+02
   yx        -0.590886D-04     -0.875603D-05     -0.974240D-05
   yy         0.389398D+02      0.577029D+01      0.642031D+01
   zx         0.288849D-02      0.428031D-03      0.476248D-03
   zy         0.000000D+00      0.000000D+00      0.000000D+00
   zz         0.389397D+02      0.577027D+01      0.642030D+01

 ----------------------------------------------------------------------

 Dipole orientation:
     6         -0.00025683          0.00001262          0.21219926
    17          0.00038389         -0.00001377          4.12240918
     1         -2.00387904          0.00467764         -0.16071857
     1          1.00525584          1.73294256         -0.16161444
     1          0.99717293         -1.73758101         -0.16162197
     6         -0.00068914          0.00002031         -4.42494108
     7         -0.00004627          0.00000405         -6.64962877

 Electric dipole moment (dipole orientation):
 (Debye = 10**-18 statcoulomb cm , SI units = C m)
                  (au)            (Debye)         (10**-30 SI)
   Tot        0.252687D+01      0.642265D+01      0.214237D+02
   x          0.000000D+00      0.000000D+00      0.000000D+00
   y          0.000000D+00      0.000000D+00      0.000000D+00
   z          0.252687D+01      0.642265D+01      0.214237D+02

 Dipole polarizability, Alpha (dipole orientation).
 (esu units = cm**3 , SI units = C**2 m**2 J**-1)
 Alpha(0;0):
               (au)            (10**-24 esu)      (10**-40 SI)
   iso        0.647974D+02      0.960199D+01      0.106837D+02
   aniso      0.775730D+02      0.114951D+02      0.127901D+02
   xx         0.389397D+02      0.577027D+01      0.642030D+01
   yx         0.000000D+00      0.000000D+00      0.000000D+00
   yy         0.389398D+02      0.577029D+01      0.642031D+01
   zx         0.269957D-02      0.400036D-03      0.445100D-03
   zy        -0.164493D-03     -0.243753D-04     -0.271212D-04
   zz         0.116513D+03      0.172654D+02      0.192104D+02

 ----------------------------------------------------------------------
 1\1\GINC-NODO10\Freq\RB3LYP\6-31++G(d,p)\C2H3Cl1N1(1-)\ALANQF\13-Oct-2
 024\0\\#p b3lyp 6-31++g(d,p) scf=verytight NoSymm freq=noraman int=ult
 rafine\\RxCoord=0.89977 DE=53.33\\-1,1\C,-0.112291,0.000007,-0.000144\
 Cl,-2.181485,-0.000001,0.000046\H,0.085125,0.002472,-1.060401\H,0.0854
 87,0.917035,0.531962\H,0.085486,-0.919487,0.52769\C,2.341578,0.000004,
 -0.000196\N,3.518832,-0.000008,0.000229\\Version=ES64L-G16RevB.01\HF=-
 592.988483\RMSD=3.205e-09\RMSF=2.760e-03\ZeroPoint=0.0426257\Thermal=0
 .0470873\Dipole=-2.4697674,0.0000079,-0.0002016\DipoleDeriv=3.0574218,
 0.0000044,-0.0001469,0.0000048,0.0772832,0.0000002,-0.0002847,0.,0.077
 3284,-1.9763163,-0.0000012,0.0000804,-0.0000062,-0.4498785,0.,0.000078
 2,0.,-0.4498722,-0.1247082,0.0000139,-0.0062532,0.0000674,0.0709567,0.
 0000944,-0.0290584,0.0000947,0.0302334,-0.1246738,0.0054183,0.0031508,
 0.0251967,0.0405485,-0.017668,0.01467,-0.017645,0.0607198,-0.1246762,-
 0.0054344,0.0031257,-0.0252634,0.0403842,0.0175734,0.0145519,0.0175501
 ,0.0608834,-0.5971992,-0.000003,0.0001077,-0.0000087,-0.3646845,0.,0.0
 003943,0.,-0.3646872,-1.1098482,0.0000021,-0.0000644,0.0000094,-0.4146
 096,0.,-0.0003512,0.,-0.4146056\Polar=116.5127928,-0.0000591,38.939815
 4,0.0028885,-0.0000016,38.939737\Quadrupole=-26.0926541,13.0466754,13.
 0459788,0.0000468,-0.0006606,0.0000031\PG=C01 [X(C2H3Cl1N1)]\NImag=3\\
 0.01946098,-0.00000011,0.66072872,0.00009784,0.00000096,0.66067003,0.0
 2416276,0.00000017,-0.00000216,0.06512823,0.00000028,-0.02636232,-0.00
 000001,-0.00000007,0.01464924,-0.00000320,-0.00000005,-0.02635882,-0.0
 0000797,-0.00000009,0.01465224,-0.02442306,-0.00013891,0.05978566,-0.0
 2136951,-0.00002994,0.01282995,0.05075493,-0.00012910,-0.05236103,0.00
 072442,0.00001160,0.00034189,-0.00001195,0.00013319,0.04559194,0.05551
 771,0.00072444,-0.36412401,-0.00499545,-0.00001205,0.00552486,-0.05727
 244,-0.00075879,0.37209593,-0.02446607,-0.05179695,-0.03006035,-0.0213
 6379,-0.01109170,-0.00643586,0.00217547,0.00419848,0.00321187,0.050801
 16,-0.04810009,-0.28553000,-0.13530010,0.00432337,0.00422083,0.0022506
 2,-0.00065776,0.00378665,0.00356606,0.04961961,0.28977418,-0.02791841,
 -0.13529232,-0.13087750,0.00251229,0.00225226,0.00164712,-0.00525109,-
 0.02383939,-0.00804034,0.02879323,0.14170028,0.12782403,-0.02446566,0.
 05193574,-0.02981893,-0.02136427,0.01112152,-0.00638439,0.00217550,-0.
 00421337,0.00319233,0.00217441,-0.00488883,0.00203524,0.05080131,0.048
 22905,-0.28678474,0.13457474,-0.00433505,0.00424169,-0.00223853,0.0006
 8218,0.00369204,-0.00351141,0.00487936,-0.01384917,0.01364386,-0.04975
 262,0.29108836,-0.02769441,0.13456697,-0.12962205,0.00249223,-0.002240
 11,0.00162632,-0.00524802,0.02389394,-0.00794582,0.00205797,-0.0137529
 8,0.00960666,0.02856209,-0.14094073,0.12650904,0.01217314,0.,0.0000003
 9,-0.01486696,-0.00000004,0.00000053,-0.00815174,0.00000054,-0.0002311
 0,-0.00815889,0.00020237,0.00011807,-0.00815898,-0.00020292,0.00011713
 ,1.17650762,0.00000021,-0.01247210,0.,-0.00000018,0.00350365,0.,0.0000
 1292,-0.00140600,-0.00001098,0.00481601,0.00212451,0.00204672,-0.00482
 898,0.00214358,-0.00203577,-0.00001163,0.00679547,-0.00000857,0.,-0.01
 246896,0.00000691,0.,0.00350320,-0.00556543,-0.00001096,0.00331294,0.0
 0279675,0.00204785,-0.00021731,0.00277435,-0.00203691,-0.00023625,0.00
 040796,0.00000002,0.00679596,0.01755792,0.00000006,-0.00000245,-0.0103
 2646,-0.00000005,0.00000094,-0.00116159,-0.00000134,0.00057709,-0.0011
 6229,-0.00049867,-0.00028933,-0.00116231,0.00050000,-0.00028699,-1.149
 34419,0.00001165,-0.00041196,1.14559892,-0.00000025,0.00278148,0.,0.00
 000016,-0.00059498,0.,-0.00000166,0.00035450,0.00000273,-0.00062482,-0
 .00052700,-0.00051141,0.00062654,-0.00053177,0.00050868,0.00001168,-0.
 00068911,0.,-0.00001166,-0.00079313,0.00000905,0.,0.00278131,-0.000005
 85,0.,-0.00059492,0.00072136,0.00000274,-0.00082357,-0.00036360,-0.000
 51173,0.00005735,-0.00036069,0.00050898,0.00006209,-0.00041297,0.,-0.0
 0068958,0.00041270,0.,-0.00079268\\0.01093328,0.00000062,0.00000505,-0
 .00332165,-0.00000024,-0.00000547,-0.00021864,0.00000227,-0.00101459,-
 0.00020170,0.00090960,0.00050802,-0.00020198,-0.00091220,0.00050374,-0
 .00258887,-0.00000008,0.00000459,-0.00440044,0.00000003,-0.00000135\\\
 @


 IT IS BY LOGIC THAT WE PROVE, BUT BY INTUITION THAT WE DISCOVER.
     -- J.H.POINCARE (1854-1912)
 Job cpu time:       0 days  0 hours  3 minutes 45.7 seconds.
 Elapsed time:       0 days  0 hours  0 minutes  9.7 seconds.
 File lengths (MBytes):  RWF=     88 Int=      0 D2E=      0 Chk=      2 Scr=      2
 Normal termination of Gaussian 16 at Sun Oct 13 09:51:13 2024.
