RxCoord=0.89977 DE=53.33                                                
Freq      RB3LYP                                                      6-31++G(d,p)        
Number of atoms                            I                7
Info1-9                                    I   N=           9
          16          16           0           0           0         100
           6          18        -502
Full Title                                 C   N=           2
RxCoord=0.89977 DE=53.33
Route                                      C   N=           6
#p b3lyp 6-31++g(d,p) scf=verytight NoSymm freq=noraman int=
ultrafine   
Charge                                     I               -1
Multiplicity                               I                1
Number of electrons                        I               40
Number of alpha electrons                  I               20
Number of beta electrons                   I               20
Number of basis functions                  I               98
Number of independent functions            I               98
Number of point charges in /Mol/           I                0
Number of translation vectors              I                0
Atomic numbers                             I   N=           7
           6          17           1           1           1           6
           7
Nuclear charges                            R   N=           7
  6.00000000E+00  1.70000000E+01  1.00000000E+00  1.00000000E+00  1.00000000E+00
  6.00000000E+00  7.00000000E+00
Current cartesian coordinates              R   N=          21
 -2.12199236E-01  1.32280829E-05 -2.72120562E-04 -4.12240919E+00 -1.88972612E-06
  8.69274017E-05  1.60862936E-01  4.67140298E-03 -2.00386747E+00  1.61547017E-01
  1.73294500E+00  1.00526249E+00  1.61545127E-01 -1.73757861E+00  9.97189579E-01
  4.42494112E+00  7.55890450E-06 -3.70386320E-04  6.64962876E+00 -1.51178090E-05
  4.32747283E-04
Number of symbols in /Mol/                 I                0
Force Field                                I                0
Atom Types                                 C   N=           7
                                                            
                        
Int Atom Types                             I   N=           7
           0           0           0           0           0           0
           0
MM charges                                 R   N=           7
  0.00000000E+00  0.00000000E+00  0.00000000E+00  0.00000000E+00  0.00000000E+00
  0.00000000E+00  0.00000000E+00
Integer atomic weights                     I   N=           7
          12          35           1           1           1          12
          14
Real atomic weights                        R   N=           7
  1.20000000E+01  3.49688527E+01  1.00782504E+00  1.00782504E+00  1.00782504E+00
  1.20000000E+01  1.40030740E+01
Atom fragment info                         I   N=           7
           0           0           0           0           0           0
           0
Atom residue num                           I   N=           7
           0           0           0           0           0           0
           0
Nuclear spins                              I   N=           7
           0           3           1           1           1           0
           2
Nuclear ZEff                               R   N=           7
 -3.60000000E+00 -1.42400000E+01 -1.00000000E+00 -1.00000000E+00 -1.00000000E+00
 -3.60000000E+00 -4.55000000E+00
Nuclear ZNuc                               R   N=           7
  6.00000000E+00  1.70000000E+01  1.00000000E+00  1.00000000E+00  1.00000000E+00
  6.00000000E+00  7.00000000E+00
Nuclear QMom                               R   N=           7
  0.00000000E+00 -8.16500000E+00  0.00000000E+00  0.00000000E+00  0.00000000E+00
  0.00000000E+00  2.04400000E+00
Nuclear GFac                               R   N=           7
  0.00000000E+00  8.21874000E-01  2.79284600E+00  2.79284600E+00  2.79284600E+00
  0.00000000E+00  4.03761000E-01
MicOpt                                     I   N=           7
          -1          -1          -1          -1          -1          -1
          -1
Number of residues                         I                0
Number of secondary structures             I                0
Number of contracted shells                I               33
Number of primitive shells                 I               72
Pure/Cartesian d shells                    I                1
Pure/Cartesian f shells                    I                0
Highest angular momentum                   I                2
Largest degree of contraction              I                6
Shell types                                I   N=          33
           0          -1          -1          -1           2           0
          -1          -1          -1          -1           2           0
           0           0           1           0           0           0
           1           0           0           0           1           0
          -1          -1          -1           2           0          -1
          -1          -1           2
Number of primitives per shell             I   N=          33
           6           3           1           1           1           6
           6           3           1           1           1           3
           1           1           1           3           1           1
           1           3           1           1           1           6
           3           1           1           1           6           3
           1           1           1
Shell to atom map                          I   N=          33
           1           1           1           1           1           2
           2           2           2           2           2           3
           3           3           3           4           4           4
           4           5           5           5           5           6
           6           6           6           6           7           7
           7           7           7
Primitive exponents                        R   N=          72
  3.04752488E+03  4.57369518E+02  1.03948685E+02  2.92101553E+01  9.28666296E+00
  3.16392696E+00  7.86827235E+00  1.88128854E+00  5.44249258E-01  1.68714478E-01
  4.38000000E-02  8.00000000E-01  2.51801000E+04  3.78035000E+03  8.60474000E+02
  2.42145000E+02  7.73349000E+01  2.62470000E+01  4.91765000E+02  1.16984000E+02
  3.74153000E+01  1.37834000E+01  5.45215000E+00  2.22588000E+00  3.18649000E+00
  1.14427000E+00  4.20377000E-01  1.42657000E-01  4.83000000E-02  7.50000000E-01
  1.87311370E+01  2.82539436E+00  6.40121692E-01  1.61277759E-01  3.60000000E-02
  1.10000000E+00  1.87311370E+01  2.82539436E+00  6.40121692E-01  1.61277759E-01
  3.60000000E-02  1.10000000E+00  1.87311370E+01  2.82539436E+00  6.40121692E-01
  1.61277759E-01  3.60000000E-02  1.10000000E+00  3.04752488E+03  4.57369518E+02
  1.03948685E+02  2.92101553E+01  9.28666296E+00  3.16392696E+00  7.86827235E+00
  1.88128854E+00  5.44249258E-01  1.68714478E-01  4.38000000E-02  8.00000000E-01
  4.17351146E+03  6.27457911E+02  1.42902093E+02  4.02343293E+01  1.28202129E+01
  4.39043701E+00  1.16263619E+01  2.71627981E+00  7.72218397E-01  2.12031498E-01
  6.39000000E-02  8.00000000E-01
Contraction coefficients                   R   N=          72
  1.83473713E-03  1.40373228E-02  6.88426223E-02  2.32184443E-01  4.67941348E-01
  3.62311985E-01 -1.19332420E-01 -1.60854152E-01  1.14345644E+00  1.00000000E+00
  1.00000000E+00  1.00000000E+00  1.83295985E-03  1.40341988E-02  6.90973943E-02
  2.37451980E-01  4.83033960E-01  3.39855972E-01 -2.29739142E-03 -3.07137189E-02
 -1.12528069E-01  4.50163278E-02  5.89353363E-01  4.65206287E-01 -2.51828028E-01
  6.15892514E-02  1.06018433E+00  1.00000000E+00  1.00000000E+00  1.00000000E+00
  3.34946043E-02  2.34726953E-01  8.13757326E-01  1.00000000E+00  1.00000000E+00
  1.00000000E+00  3.34946043E-02  2.34726953E-01  8.13757326E-01  1.00000000E+00
  1.00000000E+00  1.00000000E+00  3.34946043E-02  2.34726953E-01  8.13757326E-01
  1.00000000E+00  1.00000000E+00  1.00000000E+00  1.83473713E-03  1.40373228E-02
  6.88426223E-02  2.32184443E-01  4.67941348E-01  3.62311985E-01 -1.19332420E-01
 -1.60854152E-01  1.14345644E+00  1.00000000E+00  1.00000000E+00  1.00000000E+00
  1.83477216E-03  1.39946270E-02  6.85865518E-02  2.32240873E-01  4.69069948E-01
  3.60455199E-01 -1.14961182E-01 -1.69117479E-01  1.14585195E+00  1.00000000E+00
  1.00000000E+00  1.00000000E+00
P(S=P) Contraction coefficients            R   N=          72
  0.00000000E+00  0.00000000E+00  0.00000000E+00  0.00000000E+00  0.00000000E+00
  0.00000000E+00  6.89990666E-02  3.16423961E-01  7.44308291E-01  1.00000000E+00
  1.00000000E+00  0.00000000E+00  0.00000000E+00  0.00000000E+00  0.00000000E+00
  0.00000000E+00  0.00000000E+00  0.00000000E+00  3.98940088E-03  3.03177067E-02
  1.29880029E-01  3.27951072E-01  4.53527100E-01  2.52154056E-01 -1.42993147E-02
  3.23572333E-01  7.43507765E-01  1.00000000E+00  1.00000000E+00  0.00000000E+00
  0.00000000E+00  0.00000000E+00  0.00000000E+00  0.00000000E+00  0.00000000E+00
  0.00000000E+00  0.00000000E+00  0.00000000E+00  0.00000000E+00  0.00000000E+00
  0.00000000E+00  0.00000000E+00  0.00000000E+00  0.00000000E+00  0.00000000E+00
  0.00000000E+00  0.00000000E+00  0.00000000E+00  0.00000000E+00  0.00000000E+00
  0.00000000E+00  0.00000000E+00  0.00000000E+00  0.00000000E+00  6.89990666E-02
  3.16423961E-01  7.44308291E-01  1.00000000E+00  1.00000000E+00  0.00000000E+00
  0.00000000E+00  0.00000000E+00  0.00000000E+00  0.00000000E+00  0.00000000E+00
  0.00000000E+00  6.75797439E-02  3.23907296E-01  7.40895140E-01  1.00000000E+00
  1.00000000E+00  0.00000000E+00
Coordinates of each shell                  R   N=          99
 -2.12199236E-01  1.32280829E-05 -2.72120562E-04 -2.12199236E-01  1.32280829E-05
 -2.72120562E-04 -2.12199236E-01  1.32280829E-05 -2.72120562E-04 -2.12199236E-01
  1.32280829E-05 -2.72120562E-04 -2.12199236E-01  1.32280829E-05 -2.72120562E-04
 -4.12240919E+00 -1.88972612E-06  8.69274017E-05 -4.12240919E+00 -1.88972612E-06
  8.69274017E-05 -4.12240919E+00 -1.88972612E-06  8.69274017E-05 -4.12240919E+00
 -1.88972612E-06  8.69274017E-05 -4.12240919E+00 -1.88972612E-06  8.69274017E-05
 -4.12240919E+00 -1.88972612E-06  8.69274017E-05  1.60862936E-01  4.67140298E-03
 -2.00386747E+00  1.60862936E-01  4.67140298E-03 -2.00386747E+00  1.60862936E-01
  4.67140298E-03 -2.00386747E+00  1.60862936E-01  4.67140298E-03 -2.00386747E+00
  1.61547017E-01  1.73294500E+00  1.00526249E+00  1.61547017E-01  1.73294500E+00
  1.00526249E+00  1.61547017E-01  1.73294500E+00  1.00526249E+00  1.61547017E-01
  1.73294500E+00  1.00526249E+00  1.61545127E-01 -1.73757861E+00  9.97189579E-01
  1.61545127E-01 -1.73757861E+00  9.97189579E-01  1.61545127E-01 -1.73757861E+00
  9.97189579E-01  1.61545127E-01 -1.73757861E+00  9.97189579E-01  4.42494112E+00
  7.55890450E-06 -3.70386320E-04  4.42494112E+00  7.55890450E-06 -3.70386320E-04
  4.42494112E+00  7.55890450E-06 -3.70386320E-04  4.42494112E+00  7.55890450E-06
 -3.70386320E-04  4.42494112E+00  7.55890450E-06 -3.70386320E-04  6.64962876E+00
 -1.51178090E-05  4.32747283E-04  6.64962876E+00 -1.51178090E-05  4.32747283E-04
  6.64962876E+00 -1.51178090E-05  4.32747283E-04  6.64962876E+00 -1.51178090E-05
  4.32747283E-04  6.64962876E+00 -1.51178090E-05  4.32747283E-04
Num ILSW                                   I              100
ILSW                                       I   N=         100
           0           1           0           0           2           0
           0           0           0           0         402          -1
           5           0           0           0           2           0
           0           0           0           0           1           0
           1           1           0           0           0           0
           0           0      100000           0          -1           0
           0           0           0           0           0           0
           0           0           0           1           0           0
           0 -2000000000           1           0           0           0
           0           0           4          52           0           0
           0           0           5           0           0           0
           0           0           0           7           0           1
           0           0           0           0           0           0
           0           0           0           0           0           0
           0           0           0           0           0           0
           0           0           0           0           0           0
           0           0           0           0
Num RLSW                                   I               52
RLSW                                       R   N=          52
  8.00000000E-01  7.20000000E-01  1.00000000E+00  8.10000000E-01  2.00000000E-01
  0.00000000E+00  0.00000000E+00  1.00000000E+00  0.00000000E+00  0.00000000E+00
  0.00000000E+00  0.00000000E+00  1.00000000E+00  0.00000000E+00  0.00000000E+00
  0.00000000E+00  0.00000000E+00  1.00000000E+00  0.00000000E+00  0.00000000E+00
  0.00000000E+00  0.00000000E+00  1.00000000E+00  0.00000000E+00  0.00000000E+00
  0.00000000E+00  0.00000000E+00  1.00000000E+00  0.00000000E+00  0.00000000E+00
  0.00000000E+00  0.00000000E+00  1.00000000E+00  0.00000000E+00  0.00000000E+00
  0.00000000E+00  0.00000000E+00  0.00000000E+00  1.00000000E+00  1.00000000E+00
  0.00000000E+00  1.00000000E+00  0.00000000E+00  0.00000000E+00  0.00000000E+00
  0.00000000E+00  0.00000000E+00  0.00000000E+00  0.00000000E+00  0.00000000E+00
  0.00000000E+00  0.00000000E+00
MxBond                                     I                4
NBond                                      I   N=           7
           4           1           1           1           1           1
           1
IBond                                      I   N=          28
           2           3           4           5           1           0
           0           0           1           0           0           0
           1           0           0           0           1           0
           0           0           7           0           0           0
           6           0           0           0
RBond                                      R   N=          28
  1.00000000E+00  1.00000000E+00  1.00000000E+00  1.00000000E+00  1.00000000E+00
  0.00000000E+00  0.00000000E+00  0.00000000E+00  1.00000000E+00  0.00000000E+00
  0.00000000E+00  0.00000000E+00  1.00000000E+00  0.00000000E+00  0.00000000E+00
  0.00000000E+00  1.00000000E+00  0.00000000E+00  0.00000000E+00  0.00000000E+00
  3.00000000E+00  0.00000000E+00  0.00000000E+00  0.00000000E+00  3.00000000E+00
  0.00000000E+00  0.00000000E+00  0.00000000E+00
Virial Ratio                               R      2.004641256519024E+00
SCF Energy                                 R     -5.929884829837864E+02
Total Energy                               R     -5.929884829837864E+02
RMS Force                                  R      2.759970619960773E-03
RMS Density                                R      3.204879413634447E-09
NImag                                      I                3
Job Status                                 I                1
Nuclear derivative order                   I                2
External E-field                           R   N=          35
  0.00000000E+00  0.00000000E+00  0.00000000E+00  0.00000000E+00  0.00000000E+00
  0.00000000E+00  0.00000000E+00  0.00000000E+00  0.00000000E+00  0.00000000E+00
  0.00000000E+00  0.00000000E+00  0.00000000E+00  0.00000000E+00  0.00000000E+00
  0.00000000E+00  0.00000000E+00  0.00000000E+00  0.00000000E+00  0.00000000E+00
  0.00000000E+00  0.00000000E+00  0.00000000E+00  0.00000000E+00  0.00000000E+00
  0.00000000E+00  0.00000000E+00  0.00000000E+00  0.00000000E+00  0.00000000E+00
  0.00000000E+00  0.00000000E+00  0.00000000E+00  0.00000000E+00  0.00000000E+00
IOpCl                                      I                0
IROHF                                      I                0
Alpha Orbital Energies                     R   N=          98
 -1.01367933E+02 -1.41177736E+01 -1.01075590E+01 -9.98540418E+00 -9.28298795E+00
 -7.04478810E+00 -7.03842709E+00 -7.03842697E+00 -6.72392494E-01 -6.51800050E-01
 -5.40906399E-01 -3.03574904E-01 -3.03545839E-01 -2.33467006E-01 -1.92325313E-01
 -1.48093139E-01 -1.48089875E-01 -1.19835031E-01 -1.19834794E-01 -8.93138387E-02
  1.12476956E-01  1.25806764E-01  1.48638320E-01  1.48639868E-01  1.61555950E-01
  1.91720060E-01  2.05317304E-01  2.05318525E-01  2.22237001E-01  2.22248425E-01
  2.49054916E-01  2.49056685E-01  2.49449453E-01  2.61928945E-01  2.61930098E-01
  2.62468149E-01  3.11087397E-01  3.42573545E-01  3.42590776E-01  3.74701318E-01
  3.77575674E-01  3.77578670E-01  3.80116742E-01  4.60881075E-01  4.72540312E-01
  7.23127182E-01  7.62889928E-01  7.62895369E-01  7.63335140E-01  7.96284521E-01
  7.96304641E-01  8.78704897E-01  8.78711205E-01  8.85826565E-01  9.87400036E-01
  1.01124724E+00  1.03376747E+00  1.03378685E+00  1.07660598E+00  1.07662128E+00
  1.09626915E+00  1.09630343E+00  1.12636147E+00  1.17669125E+00  1.17669335E+00
  1.24784461E+00  1.33081795E+00  1.37298699E+00  1.50826321E+00  1.59932427E+00
  1.59937094E+00  1.75771223E+00  1.75771435E+00  1.78019855E+00  1.78019921E+00
  1.82927507E+00  2.13598297E+00  2.16483285E+00  2.16498343E+00  2.18038467E+00
  2.18039229E+00  2.18219067E+00  2.58988602E+00  2.59003199E+00  2.59012251E+00
  2.81254249E+00  2.81254827E+00  2.83249384E+00  2.93839498E+00  2.93858681E+00
  3.25521044E+00  3.43871617E+00  3.57066941E+00  3.57083728E+00  4.20290293E+00
  4.46070618E+00  4.48341789E+00  4.56769683E+00
Alpha MO coefficients                      R   N=        9604
 -2.10905573E-06 -6.52494590E-05 -2.44038964E-05 -4.01445646E-11  3.69955050E-09
  1.46974286E-05 -1.14629890E-04 -5.62262396E-10 -2.90560982E-09 -1.67369575E-04
 -1.90041046E-06  3.40923939E-10  1.97785936E-08  8.57175499E-05  1.73529776E-05
  1.73478419E-05  4.30397702E-10 -2.68140265E-09  3.71864105E-11  9.95997486E-01
  1.51505383E-02  2.54859391E-05  1.46443200E-10 -1.99212382E-09 -2.10568879E-02
 -1.11141726E-05 -3.02001751E-11  1.67381113E-09  1.85750316E-03 -6.35165273E-05
 -3.07878406E-10  5.56410402E-09 -2.79186121E-04  1.74692108E-05  1.54707458E-10
 -3.37654357E-09  7.50068432E-03  7.52778502E-03  7.52778507E-03 -1.12635332E-10
  3.47735816E-09  1.01790041E-12 -8.42585457E-06 -9.55632586E-06  4.96442865E-05
  2.23975177E-05  7.61196179E-09 -3.22400941E-06 -8.41505716E-06 -9.55363849E-06
  4.96140631E-05  2.23966936E-05  2.78894437E-06  1.61793460E-06 -8.41547534E-06
 -9.55368811E-06  4.96151201E-05  2.23966884E-05 -2.79618113E-06  1.60492638E-06
 -1.60414302E-06 -4.63692209E-06  2.70797078E-06  8.02461904E-11 -3.75276505E-09
 -1.44183485E-04 -1.66466072E-04  1.04628312E-09 -3.15507137E-08 -5.27663952E-05
 -7.85378134E-05  1.65957638E-10 -2.22270487E-10 -9.45906325E-06 -1.59905437E-06
 -1.59911885E-06  1.71689642E-10 -7.24804700E-09  9.66634401E-13 -3.14406933E-06
 -1.35429062E-05 -5.11571820E-07 -3.72624379E-11  1.83940171E-09  1.88579183E-04
 -9.12821560E-05  1.15175979E-09 -4.28409611E-08  1.28371476E-04  4.35883096E-06
  4.49600911E-10 -2.03300873E-08  2.86745804E-06 -8.08079143E-06 -8.08077058E-06
 -1.72345951E-10  6.37644455E-09  3.69362896E-13 -2.67968237E-06  8.44242021E-06
 -2.44478560E-05  5.73733050E-11  2.21805597E-09  5.64576326E-05  4.15551014E-05
 -8.24732926E-11 -3.56668943E-08  1.28750086E-03  5.29530200E-04  2.16202306E-09
 -1.59944516E-07 -2.50824834E-05 -3.77152535E-06 -3.77282987E-06 -2.77006514E-11
  4.09039074E-09  1.60876809E-11  1.41676270E-07  1.73418603E-06  2.17722492E-07
  7.62489695E-12 -3.64198040E-10  5.12957308E-06 -1.56807164E-06 -4.39019259E-11
  2.06709674E-09 -5.13389019E-05  3.72360407E-06  1.62685119E-10 -5.21600121E-09
  2.25611947E-04  2.76918942E-05 -9.71881676E-10  5.10108779E-08  6.03678495E-06
  1.90978276E-06  1.91012737E-06 -5.94451174E-12  7.03488834E-10 -8.83787001E-12
  2.11126131E-06 -9.05869016E-05 -1.56887204E-04 -6.23066857E-06  1.40930162E-08
 -6.05840033E-06  2.09804043E-06 -9.05005021E-05 -1.57038194E-04 -6.22783526E-06
  5.23734272E-06  3.04145752E-06  2.09787117E-06 -9.04997426E-05 -1.57042738E-04
 -6.22773146E-06 -5.25136956E-06  3.01702876E-06  8.40217854E-05  2.05152706E-04
 -3.19079826E-04  3.11182235E-09 -1.10294830E-07 -2.02161896E-04 -3.61077053E-04
  4.46438008E-09 -1.57981237E-07  8.56890480E-04  1.35894233E-03 -1.12433825E-08
  3.77736223E-07 -7.95124320E-04 -9.58820933E-06 -9.58905632E-06  9.22699515E-09
 -3.26899359E-07  4.16052954E-12  9.92701844E-01  3.44622467E-02 -1.47502738E-03
  1.49819534E-08 -5.28261287E-07  5.14228288E-03  1.62186971E-04 -1.74242362E-09
  5.86300744E-08 -3.03346142E-03 -3.18597731E-05 -6.48053527E-10  3.23645173E-08
 -7.67701064E-03 -8.42143154E-03 -8.42143167E-03 -8.70890328E-09  3.08402416E-07
 -6.31969110E-12  9.93073452E-01  4.92809464E-02 -2.55728678E-04  7.13668838E-10
 -1.79745815E-07 -1.62221469E-02 -2.45341874E-04  8.38128391E-09  1.06387831E-06
  4.86067212E-03 -3.11743349E-03 -7.13037749E-09  9.27121316E-07 -9.27910536E-03
 -8.57764031E-03 -8.57781232E-03 -2.83438585E-10  1.44248640E-07  2.04950295E-09
 -7.50286434E-06 -5.71917889E-05 -3.26417421E-05 -7.74783587E-12  6.77119361E-09
 -2.91663805E-04  2.10181223E-04  7.44986426E-11 -4.03679662E-08  1.99575616E-03
  1.18117881E-03  6.77095870E-09 -9.90797710E-08 -4.25270982E-03 -1.61045634E-03
 -8.82902906E-09  1.10649054E-08  1.81342824E-04 -1.17111959E-04 -1.17124972E-04
  1.63639944E-09 -4.01421672E-08  2.61998899E-10 -1.78830280E-04  3.04489942E-03
 -9.16000895E-04  6.24583390E-05  3.98842982E-07 -1.71733878E-04 -1.78929099E-04
  3.04376722E-03 -9.16763655E-04  6.25015678E-05  1.48582817E-04  8.61917091E-05
 -1.78926079E-04  3.04377652E-03 -9.16764378E-04  6.25015620E-05 -1.48981297E-04
  8.54984853E-05 -8.26208040E-06 -1.81054834E-04  4.90390394E-05  3.76165444E-10
  1.27882260E-08 -1.62307258E-03 -2.66062329E-03  1.65427020E-08 -6.78627969E-07
  1.86840077E-03  1.78849735E-04  4.73120674E-09 -3.67301989E-07  4.53666712E-05
 -4.09403536E-05 -4.09212642E-05  1.60541551E-09 -6.21542848E-08 -2.69876847E-12
 -6.64951607E-05 -2.81327015E-04  2.68887424E-05 -1.62718102E-09  5.68697922E-08
  3.16293426E-03 -1.18079059E-03  1.79869300E-08 -6.19529386E-07 -2.60879111E-04
 -2.02335272E-04 -5.13438445E-09  3.41889251E-07 -6.45420355E-05 -1.45686978E-04
 -1.45688873E-04 -1.06491775E-09  2.75993980E-08  8.21212594E-12 -4.70753592E-05
 -1.92256567E-04 -6.88872564E-05  1.40029855E-10  1.03563102E-08  5.72978960E-04
  7.83421173E-04  5.70151728E-10 -2.32838400E-07  4.25300420E-04  1.06127556E-02
  1.58056470E-08 -6.39874625E-07  9.46191740E-05 -4.00968005E-05 -4.01001153E-05
 -4.51551699E-10 -1.74028526E-08  8.07227708E-11  2.48599414E-07  9.62791030E-06
  1.00047440E-05  1.11886031E-10 -3.50300234E-09  1.92228775E-05 -6.67842668E-05
 -6.75867428E-10  2.08733733E-08 -3.41451306E-04  5.05438102E-04  3.02857634E-09
 -8.04641508E-08  9.74643520E-03  2.57897929E-03  1.80772696E-08 -3.21957686E-07
  6.70705379E-05 -1.21800214E-07 -1.18004073E-07  6.40132905E-10 -1.11494222E-08
 -1.12967894E-11 -3.23708838E-05 -4.55465781E-04  2.67073773E-04 -2.15532052E-05
 -1.89904017E-08  8.10470235E-06 -3.23846674E-05 -4.55153768E-04  2.67321174E-04
 -2.14697840E-05 -7.03949267E-06 -4.06839594E-06 -3.23851931E-05 -4.55149937E-04
  2.67328642E-04 -2.14690512E-05  7.05843751E-06 -4.03582500E-06  9.92834465E-01
  4.94471252E-02  1.70994519E-03 -1.97664764E-08  7.27164960E-07 -1.04844755E-02
  4.50574567E-05  9.11911276E-09 -3.96290225E-07 -1.47801192E-02  3.05099127E-03
  2.96297921E-09 -8.47184866E-07 -8.46985540E-03 -9.72745063E-03 -9.72745428E-03
 -1.47906636E-08  5.24128179E-07  2.91301366E-11 -4.78338966E-04  1.31439477E-04
  3.92488607E-04 -3.58890126E-09  1.33493575E-07 -2.06922285E-03  9.38434610E-04
 -1.28757719E-08  4.31804553E-07  9.29054292E-03 -4.14278421E-03  3.58723660E-08
 -9.32963643E-07 -2.11372073E-04  2.11858009E-04  2.11858546E-04  5.51507570E-09
 -2.00530457E-07  8.33164405E-13 -5.00316018E-05  6.26796248E-05  1.70520294E-04
  8.67470991E-10  9.10095447E-10  1.78978182E-03 -1.78297587E-03  6.58817289E-10
  1.22504100E-07 -1.12169893E-02  3.20286126E-02  6.04901498E-08 -2.48125155E-06
 -3.20855192E-04 -4.23049731E-05 -4.23757548E-05 -1.58849976E-09  1.62940481E-08
  1.64739228E-09 -2.84618419E-01  1.02275606E+00  2.99529139E-03  1.84265326E-08
 -2.29732057E-07  7.57937100E-02  4.84776864E-04  1.50598235E-09 -5.09649758E-08
 -2.49420966E-02 -1.66408404E-03 -5.28764457E-09  1.51034716E-07  4.49012280E-02
  1.35518791E-02  6.65439678E-08 -1.51358000E-06 -1.54109593E-02 -1.55429578E-02
 -1.55429629E-02  1.13753011E-09 -1.65112371E-08  4.94091493E-11 -4.93090242E-05
 -5.98465457E-04 -1.66954983E-04 -4.80625945E-05 -8.68839247E-09  3.52132686E-06
 -4.93502015E-05 -5.98419942E-04 -1.65787109E-04 -4.79231786E-05 -3.02406769E-06
 -1.74107349E-06 -4.93497003E-05 -5.98403524E-04 -1.65826256E-04 -4.79272421E-05
  3.03330191E-06 -1.72823259E-06  1.59217492E-05  6.54103065E-05  3.34978733E-05
 -1.75763604E-09  6.95395261E-08 -6.42116793E-04 -2.03351642E-04  7.16551242E-09
 -2.38084049E-07 -2.42093987E-02  1.15022332E-02 -5.34172363E-08 -3.62509062E-07
  9.04955440E-05  1.75478470E-05  1.75441320E-05  6.63241529E-11 -1.18945070E-09
  3.95796011E-11 -2.30453826E-05 -6.96736512E-05 -1.16563720E-05 -4.56208328E-10
  5.16006533E-08  5.63678498E-04  1.14959333E-04 -1.98725430E-10 -1.68202787E-07
  2.46661688E-04 -2.45412904E-03  1.55534217E-08  4.47550866E-07 -8.87169884E-05
 -4.88344565E-05 -4.88335630E-05  6.21259151E-10 -2.11946952E-08 -2.21834500E-11
  9.78299749E-05  8.92771947E-04 -3.96479027E-04 -2.11394590E-10  2.96766678E-08
 -4.81396859E-04  8.54389185E-04  8.39736307E-09  6.62244053E-07  9.37712001E-03
 -6.22907720E-02 -9.96933937E-08  2.72344435E-06 -6.63052097E-04  3.08701223E-04
  3.08532876E-04 -4.81459550E-09  3.45608743E-08  3.27306152E-09  8.90180245E-04
 -3.34616145E-03  9.90485682E-01  5.18596866E-06 -5.80251934E-05  8.99238623E-07
  3.10214213E-02  1.61194260E-07 -1.90923558E-06  2.72227422E-03 -1.36666730E-02
 -6.87871673E-08  9.68102704E-07 -5.77109910E-02 -1.15661266E-02 -9.04937770E-08
  1.95317524E-06  2.39175130E-04 -1.94961029E-04 -1.94970881E-04  1.00470856E-09
 -3.61925131E-08  1.74715326E-11 -2.17148792E-04  1.52913740E-03 -5.26774335E-03
 -2.90839415E-04  3.78212453E-08 -1.67359974E-05 -2.17497878E-04  1.52863020E-03
 -5.26841519E-03 -2.90640042E-04  1.45958744E-05  8.46892287E-06 -2.17484995E-04
  1.52862619E-03 -5.26845297E-03 -2.90648930E-04 -1.46349228E-05  8.39956026E-06
 -4.95369777E-05 -2.28061100E-04 -8.65891766E-05  2.68700326E-09 -1.45794451E-07
  2.97122748E-03  1.35345828E-03 -2.44061157E-08  1.00324844E-06  6.54441439E-02
 -2.54021582E-02  7.47344164E-08  2.01052652E-06  7.08667189E-06 -8.27998907E-05
 -8.27968499E-05 -2.84617582E-09  1.03084730E-07 -4.60101339E-11 -1.47760149E-05
 -3.92833932E-05  3.28740384E-05  3.21192894E-10 -7.20643149E-08 -5.65609560E-04
  5.79565132E-04 -5.30656021E-09  4.68007453E-07 -9.75034093E-03  7.30399973E-03
 -5.07624974E-08 -2.59867707E-07 -8.54089926E-05 -1.81919515E-05 -1.81960418E-05
  6.46660692E-10 -1.07629450E-08 -4.26803124E-12 -9.34308759E-10 -5.21930181E-09
  2.12458091E-09 -5.69586816E-05 -5.75594453E-07  2.56944543E-08 -1.17197141E-08
  2.78805135E-04  2.81979560E-06 -1.99847170E-08  2.69450292E-08  2.66432957E-04
  2.68101394E-06 -4.62163736E-10 -2.13652399E-07  2.11907193E-07 -8.66891644E-05
 -8.75392245E-07 -7.87047959E-05  4.81947304E-10 -1.65233837E-09 -4.60041453E-06
  9.90797262E-01  1.00076289E-02  3.33759719E-10 -1.39203176E-07  2.95817663E-02
  2.98792591E-04 -5.09097370E-09  4.92291893E-08 -1.15785307E-02 -1.16948647E-04
  1.78641530E-08 -1.39587980E-08  5.14456141E-03  5.19607935E-05 -3.41012131E-09
  1.57137223E-08 -1.36656345E-08  1.96487391E-04  1.98449696E-06  4.98610341E-06
  7.04375029E-07 -4.53026792E-06  3.33504252E-05  1.49880520E-06 -2.67068944E-05
 -8.22304369E-07 -7.87956249E-05  5.05784899E-04 -3.73317230E-03 -1.67510729E-04
 -8.01429897E-05 -3.12360411E-05  7.80894040E-05 -5.01290370E-04  3.69983917E-03
  1.66019227E-04 -7.98079839E-05  3.01735868E-05 -1.15928968E-10 -2.17354350E-10
  5.94761100E-10  5.71500106E-05  5.76946667E-07 -9.58895388E-09 -1.13411150E-08
 -2.37601367E-04 -2.39884558E-06 -1.83108893E-08 -9.11642777E-09  1.02500710E-03
  1.03523163E-05 -8.34454338E-10  7.74380004E-09 -8.10132671E-09  3.59348551E-07
  3.59794461E-09  2.84211151E-06 -1.62853055E-10 -7.68636236E-10 -2.62513093E-10
 -2.32203230E-05 -2.34783032E-07  1.13993095E-08 -4.84179323E-09  1.40252702E-04
  1.41756857E-06  1.53097414E-08  3.10953109E-09 -3.66632215E-04 -3.70661716E-06
  1.50274796E-11  6.84091463E-09 -7.35015608E-09 -1.68659101E-05 -1.70247158E-07
  2.59363817E-06 -2.04509131E-08 -1.04721371E-07  2.47568556E-08  5.75263826E-07
 -5.69811213E-05  5.85285545E-07 -1.85595594E-07 -2.81041594E-06  2.78609769E-04
 -3.32184449E-07  9.21120119E-06 -2.69088959E-06  2.65409386E-04 -5.22740083E-08
 -6.82576928E-05  6.82539712E-05  8.75545340E-07 -8.66609719E-05  2.46217711E-07
 -1.86448584E-08  8.67717491E-08  5.81354767E-05 -1.00076285E-02  9.90797266E-01
  2.72076967E-08  1.63781407E-06 -2.98793242E-04  2.95817406E-02 -5.15203627E-07
 -5.60671514E-07  1.16950481E-04 -1.15784652E-02  7.99593710E-06  2.58415865E-06
 -5.19662371E-05  5.14465258E-03  1.65201453E-08  4.36710528E-06 -4.34325375E-06
 -1.98485395E-06  1.96494988E-04 -1.43589776E-08  9.04913000E-05 -5.82241532E-04
  4.29106094E-03  1.92644933E-04  4.35410966E-07 -9.78028611E-05 -4.46638329E-05
  2.86631202E-04 -2.11563165E-03 -9.49483159E-05 -3.00222283E-05 -4.42941311E-05
 -4.58812716E-05  2.94470152E-04 -2.17344023E-03 -9.75430576E-05  3.14734475E-05
 -4.46283527E-05  1.48260199E-08  6.60029775E-08 -1.41118075E-08 -5.77347352E-07