RxCoord=0.99975 DE=52.93                                                
Freq      RB3LYP                                                      6-31++G(d,p)        
Number of atoms                            I                7
Info1-9                                    I   N=           9
          16          16           0           0           0         100
           6          18        -502
Full Title                                 C   N=           2
RxCoord=0.99975 DE=52.93
Route                                      C   N=           6
#p b3lyp 6-31++g(d,p) scf=verytight NoSymm freq=noraman int=
ultrafine   
Charge                                     I               -1
Multiplicity                               I                1
Number of electrons                        I               40
Number of alpha electrons                  I               20
Number of beta electrons                   I               20
Number of basis functions                  I               98
Number of independent functions            I               98
Number of point charges in /Mol/           I                0
Number of translation vectors              I                0
Atomic numbers                             I   N=           7
           6          17           1           1           1           6
           7
Nuclear charges                            R   N=           7
  6.00000000E+00  1.70000000E+01  1.00000000E+00  1.00000000E+00  1.00000000E+00
  6.00000000E+00  7.00000000E+00
Current cartesian coordinates              R   N=          21
 -2.38075256E-01  1.32280829E-05 -2.79679466E-04 -4.11791354E+00 -1.88972612E-06
  8.50376756E-05  1.55052029E-01  4.66195435E-03 -2.00068328E+00  1.55781463E-01
  1.73019167E+00  1.00361087E+00  1.55781463E-01 -1.73481394E+00  9.95556855E-01
  4.43142855E+00  7.55890450E-06 -3.53378785E-04  6.65626926E+00 -1.51178090E-05
  4.36526735E-04
Number of symbols in /Mol/                 I                0
Force Field                                I                0
Atom Types                                 C   N=           7
                                                            
                        
Int Atom Types                             I   N=           7
           0           0           0           0           0           0
           0
MM charges                                 R   N=           7
  0.00000000E+00  0.00000000E+00  0.00000000E+00  0.00000000E+00  0.00000000E+00
  0.00000000E+00  0.00000000E+00
Integer atomic weights                     I   N=           7
          12          35           1           1           1          12
          14
Real atomic weights                        R   N=           7
  1.20000000E+01  3.49688527E+01  1.00782504E+00  1.00782504E+00  1.00782504E+00
  1.20000000E+01  1.40030740E+01
Atom fragment info                         I   N=           7
           0           0           0           0           0           0
           0
Atom residue num                           I   N=           7
           0           0           0           0           0           0
           0
Nuclear spins                              I   N=           7
           0           3           1           1           1           0
           2
Nuclear ZEff                               R   N=           7
 -3.60000000E+00 -1.42400000E+01 -1.00000000E+00 -1.00000000E+00 -1.00000000E+00
 -3.60000000E+00 -4.55000000E+00
Nuclear ZNuc                               R   N=           7
  6.00000000E+00  1.70000000E+01  1.00000000E+00  1.00000000E+00  1.00000000E+00
  6.00000000E+00  7.00000000E+00
Nuclear QMom                               R   N=           7
  0.00000000E+00 -8.16500000E+00  0.00000000E+00  0.00000000E+00  0.00000000E+00
  0.00000000E+00  2.04400000E+00
Nuclear GFac                               R   N=           7
  0.00000000E+00  8.21874000E-01  2.79284600E+00  2.79284600E+00  2.79284600E+00
  0.00000000E+00  4.03761000E-01
MicOpt                                     I   N=           7
          -1          -1          -1          -1          -1          -1
          -1
Number of residues                         I                0
Number of secondary structures             I                0
Number of contracted shells                I               33
Number of primitive shells                 I               72
Pure/Cartesian d shells                    I                1
Pure/Cartesian f shells                    I                0
Highest angular momentum                   I                2
Largest degree of contraction              I                6
Shell types                                I   N=          33
           0          -1          -1          -1           2           0
          -1          -1          -1          -1           2           0
           0           0           1           0           0           0
           1           0           0           0           1           0
          -1          -1          -1           2           0          -1
          -1          -1           2
Number of primitives per shell             I   N=          33
           6           3           1           1           1           6
           6           3           1           1           1           3
           1           1           1           3           1           1
           1           3           1           1           1           6
           3           1           1           1           6           3
           1           1           1
Shell to atom map                          I   N=          33
           1           1           1           1           1           2
           2           2           2           2           2           3
           3           3           3           4           4           4
           4           5           5           5           5           6
           6           6           6           6           7           7
           7           7           7
Primitive exponents                        R   N=          72
  3.04752488E+03  4.57369518E+02  1.03948685E+02  2.92101553E+01  9.28666296E+00
  3.16392696E+00  7.86827235E+00  1.88128854E+00  5.44249258E-01  1.68714478E-01
  4.38000000E-02  8.00000000E-01  2.51801000E+04  3.78035000E+03  8.60474000E+02
  2.42145000E+02  7.73349000E+01  2.62470000E+01  4.91765000E+02  1.16984000E+02
  3.74153000E+01  1.37834000E+01  5.45215000E+00  2.22588000E+00  3.18649000E+00
  1.14427000E+00  4.20377000E-01  1.42657000E-01  4.83000000E-02  7.50000000E-01
  1.87311370E+01  2.82539436E+00  6.40121692E-01  1.61277759E-01  3.60000000E-02
  1.10000000E+00  1.87311370E+01  2.82539436E+00  6.40121692E-01  1.61277759E-01
  3.60000000E-02  1.10000000E+00  1.87311370E+01  2.82539436E+00  6.40121692E-01
  1.61277759E-01  3.60000000E-02  1.10000000E+00  3.04752488E+03  4.57369518E+02
  1.03948685E+02  2.92101553E+01  9.28666296E+00  3.16392696E+00  7.86827235E+00
  1.88128854E+00  5.44249258E-01  1.68714478E-01  4.38000000E-02  8.00000000E-01
  4.17351146E+03  6.27457911E+02  1.42902093E+02  4.02343293E+01  1.28202129E+01
  4.39043701E+00  1.16263619E+01  2.71627981E+00  7.72218397E-01  2.12031498E-01
  6.39000000E-02  8.00000000E-01
Contraction coefficients                   R   N=          72
  1.83473713E-03  1.40373228E-02  6.88426223E-02  2.32184443E-01  4.67941348E-01
  3.62311985E-01 -1.19332420E-01 -1.60854152E-01  1.14345644E+00  1.00000000E+00
  1.00000000E+00  1.00000000E+00  1.83295985E-03  1.40341988E-02  6.90973943E-02
  2.37451980E-01  4.83033960E-01  3.39855972E-01 -2.29739142E-03 -3.07137189E-02
 -1.12528069E-01  4.50163278E-02  5.89353363E-01  4.65206287E-01 -2.51828028E-01
  6.15892514E-02  1.06018433E+00  1.00000000E+00  1.00000000E+00  1.00000000E+00
  3.34946043E-02  2.34726953E-01  8.13757326E-01  1.00000000E+00  1.00000000E+00
  1.00000000E+00  3.34946043E-02  2.34726953E-01  8.13757326E-01  1.00000000E+00
  1.00000000E+00  1.00000000E+00  3.34946043E-02  2.34726953E-01  8.13757326E-01
  1.00000000E+00  1.00000000E+00  1.00000000E+00  1.83473713E-03  1.40373228E-02
  6.88426223E-02  2.32184443E-01  4.67941348E-01  3.62311985E-01 -1.19332420E-01
 -1.60854152E-01  1.14345644E+00  1.00000000E+00  1.00000000E+00  1.00000000E+00
  1.83477216E-03  1.39946270E-02  6.85865518E-02  2.32240873E-01  4.69069948E-01
  3.60455199E-01 -1.14961182E-01 -1.69117479E-01  1.14585195E+00  1.00000000E+00
  1.00000000E+00  1.00000000E+00
P(S=P) Contraction coefficients            R   N=          72
  0.00000000E+00  0.00000000E+00  0.00000000E+00  0.00000000E+00  0.00000000E+00
  0.00000000E+00  6.89990666E-02  3.16423961E-01  7.44308291E-01  1.00000000E+00
  1.00000000E+00  0.00000000E+00  0.00000000E+00  0.00000000E+00  0.00000000E+00
  0.00000000E+00  0.00000000E+00  0.00000000E+00  3.98940088E-03  3.03177067E-02
  1.29880029E-01  3.27951072E-01  4.53527100E-01  2.52154056E-01 -1.42993147E-02
  3.23572333E-01  7.43507765E-01  1.00000000E+00  1.00000000E+00  0.00000000E+00
  0.00000000E+00  0.00000000E+00  0.00000000E+00  0.00000000E+00  0.00000000E+00
  0.00000000E+00  0.00000000E+00  0.00000000E+00  0.00000000E+00  0.00000000E+00
  0.00000000E+00  0.00000000E+00  0.00000000E+00  0.00000000E+00  0.00000000E+00
  0.00000000E+00  0.00000000E+00  0.00000000E+00  0.00000000E+00  0.00000000E+00
  0.00000000E+00  0.00000000E+00  0.00000000E+00  0.00000000E+00  6.89990666E-02
  3.16423961E-01  7.44308291E-01  1.00000000E+00  1.00000000E+00  0.00000000E+00
  0.00000000E+00  0.00000000E+00  0.00000000E+00  0.00000000E+00  0.00000000E+00
  0.00000000E+00  6.75797439E-02  3.23907296E-01  7.40895140E-01  1.00000000E+00
  1.00000000E+00  0.00000000E+00
Coordinates of each shell                  R   N=          99
 -2.38075256E-01  1.32280829E-05 -2.79679466E-04 -2.38075256E-01  1.32280829E-05
 -2.79679466E-04 -2.38075256E-01  1.32280829E-05 -2.79679466E-04 -2.38075256E-01
  1.32280829E-05 -2.79679466E-04 -2.38075256E-01  1.32280829E-05 -2.79679466E-04
 -4.11791354E+00 -1.88972612E-06  8.50376756E-05 -4.11791354E+00 -1.88972612E-06
  8.50376756E-05 -4.11791354E+00 -1.88972612E-06  8.50376756E-05 -4.11791354E+00
 -1.88972612E-06  8.50376756E-05 -4.11791354E+00 -1.88972612E-06  8.50376756E-05
 -4.11791354E+00 -1.88972612E-06  8.50376756E-05  1.55052029E-01  4.66195435E-03
 -2.00068328E+00  1.55052029E-01  4.66195435E-03 -2.00068328E+00  1.55052029E-01
  4.66195435E-03 -2.00068328E+00  1.55052029E-01  4.66195435E-03 -2.00068328E+00
  1.55781463E-01  1.73019167E+00  1.00361087E+00  1.55781463E-01  1.73019167E+00
  1.00361087E+00  1.55781463E-01  1.73019167E+00  1.00361087E+00  1.55781463E-01
  1.73019167E+00  1.00361087E+00  1.55781463E-01 -1.73481394E+00  9.95556855E-01
  1.55781463E-01 -1.73481394E+00  9.95556855E-01  1.55781463E-01 -1.73481394E+00
  9.95556855E-01  1.55781463E-01 -1.73481394E+00  9.95556855E-01  4.43142855E+00
  7.55890450E-06 -3.53378785E-04  4.43142855E+00  7.55890450E-06 -3.53378785E-04
  4.43142855E+00  7.55890450E-06 -3.53378785E-04  4.43142855E+00  7.55890450E-06
 -3.53378785E-04  4.43142855E+00  7.55890450E-06 -3.53378785E-04  6.65626926E+00
 -1.51178090E-05  4.36526735E-04  6.65626926E+00 -1.51178090E-05  4.36526735E-04
  6.65626926E+00 -1.51178090E-05  4.36526735E-04  6.65626926E+00 -1.51178090E-05
  4.36526735E-04  6.65626926E+00 -1.51178090E-05  4.36526735E-04
Num ILSW                                   I              100
ILSW                                       I   N=         100
           0           1           0           0           2           0
           0           0           0           0         402          -1
           5           0           0           0           2           0
           0           0           0           0           1           0
           1           1           0           0           0           0
           0           0      100000           0          -1           0
           0           0           0           0           0           0
           0           0           0           1           0           0
           0 -2000000000           1           0           0           0
           0           0           4          52           0           0
           0           0           5           0           0           0
           0           0           0           7           0           1
           0           0           0           0           0           0
           0           0           0           0           0           0
           0           0           0           0           0           0
           0           0           0           0           0           0
           0           0           0           0
Num RLSW                                   I               52
RLSW                                       R   N=          52
  8.00000000E-01  7.20000000E-01  1.00000000E+00  8.10000000E-01  2.00000000E-01
  0.00000000E+00  0.00000000E+00  1.00000000E+00  0.00000000E+00  0.00000000E+00
  0.00000000E+00  0.00000000E+00  1.00000000E+00  0.00000000E+00  0.00000000E+00
  0.00000000E+00  0.00000000E+00  1.00000000E+00  0.00000000E+00  0.00000000E+00
  0.00000000E+00  0.00000000E+00  1.00000000E+00  0.00000000E+00  0.00000000E+00
  0.00000000E+00  0.00000000E+00  1.00000000E+00  0.00000000E+00  0.00000000E+00
  0.00000000E+00  0.00000000E+00  1.00000000E+00  0.00000000E+00  0.00000000E+00
  0.00000000E+00  0.00000000E+00  0.00000000E+00  1.00000000E+00  1.00000000E+00
  0.00000000E+00  1.00000000E+00  0.00000000E+00  0.00000000E+00  0.00000000E+00
  0.00000000E+00  0.00000000E+00  0.00000000E+00  0.00000000E+00  0.00000000E+00
  0.00000000E+00  0.00000000E+00
MxBond                                     I                4
NBond                                      I   N=           7
           4           1           1           1           1           1
           1
IBond                                      I   N=          28
           2           3           4           5           1           0
           0           0           1           0           0           0
           1           0           0           0           1           0
           0           0           7           0           0           0
           6           0           0           0
RBond                                      R   N=          28
  1.00000000E+00  1.00000000E+00  1.00000000E+00  1.00000000E+00  1.00000000E+00
  0.00000000E+00  0.00000000E+00  0.00000000E+00  1.00000000E+00  0.00000000E+00
  0.00000000E+00  0.00000000E+00  1.00000000E+00  0.00000000E+00  0.00000000E+00
  0.00000000E+00  1.00000000E+00  0.00000000E+00  0.00000000E+00  0.00000000E+00
  3.00000000E+00  0.00000000E+00  0.00000000E+00  0.00000000E+00  3.00000000E+00
  0.00000000E+00  0.00000000E+00  0.00000000E+00
Virial Ratio                               R      2.004633482959769E+00
SCF Energy                                 R     -5.929888440347474E+02
Total Energy                               R     -5.929888440347474E+02
RMS Force                                  R      2.921099377380225E-03
RMS Density                                R      3.360872880731947E-09
NImag                                      I                3
Job Status                                 I                1
Nuclear derivative order                   I                2
External E-field                           R   N=          35
  0.00000000E+00  0.00000000E+00  0.00000000E+00  0.00000000E+00  0.00000000E+00
  0.00000000E+00  0.00000000E+00  0.00000000E+00  0.00000000E+00  0.00000000E+00
  0.00000000E+00  0.00000000E+00  0.00000000E+00  0.00000000E+00  0.00000000E+00
  0.00000000E+00  0.00000000E+00  0.00000000E+00  0.00000000E+00  0.00000000E+00
  0.00000000E+00  0.00000000E+00  0.00000000E+00  0.00000000E+00  0.00000000E+00
  0.00000000E+00  0.00000000E+00  0.00000000E+00  0.00000000E+00  0.00000000E+00
  0.00000000E+00  0.00000000E+00  0.00000000E+00  0.00000000E+00  0.00000000E+00
IOpCl                                      I                0
IROHF                                      I                0
Alpha Orbital Energies                     R   N=          98
 -1.01370787E+02 -1.41158776E+01 -1.01067771E+01 -9.98311311E+00 -9.28589480E+00
 -7.04778966E+00 -7.04127726E+00 -7.04127712E+00 -6.70496502E-01 -6.55416412E-01
 -5.40534813E-01 -3.03098918E-01 -3.03066393E-01 -2.34808764E-01 -1.92493501E-01
 -1.50144344E-01 -1.50140494E-01 -1.18055655E-01 -1.18055379E-01 -8.77659165E-02
  1.12545068E-01  1.26121651E-01  1.48587889E-01  1.48589910E-01  1.62016867E-01
  1.92065463E-01  2.05586396E-01  2.05587493E-01  2.22080959E-01  2.22095061E-01
  2.49123920E-01  2.49331032E-01  2.49333436E-01  2.62840777E-01  2.62841008E-01
  2.63253855E-01  3.11425182E-01  3.42577077E-01  3.42597617E-01  3.74397707E-01
  3.78401211E-01  3.78403420E-01  3.80217558E-01  4.61702847E-01  4.73209255E-01
  7.20003162E-01  7.61565935E-01  7.61669784E-01  7.61673652E-01  7.94969865E-01
  7.94990352E-01  8.80242148E-01  8.80250201E-01  8.85333463E-01  9.88261858E-01
  1.01586719E+00  1.03154909E+00  1.03156972E+00  1.07521847E+00  1.07523641E+00
  1.09599957E+00  1.09604062E+00  1.12576050E+00  1.17794885E+00  1.17795150E+00
  1.24898477E+00  1.33210451E+00  1.36864881E+00  1.50691052E+00  1.59902913E+00
  1.59908231E+00  1.75963290E+00  1.75963506E+00  1.78231216E+00  1.78231242E+00
  1.82841094E+00  2.13762094E+00  2.16920042E+00  2.16936397E+00  2.18227868E+00
  2.18228614E+00  2.18559748E+00  2.58211429E+00  2.58224278E+00  2.59596962E+00
  2.81450721E+00  2.81451355E+00  2.83334933E+00  2.94253223E+00  2.94274269E+00
  3.25632189E+00  3.43527661E+00  3.56921280E+00  3.56939299E+00  4.20426260E+00
  4.46067327E+00  4.48108361E+00  4.56502110E+00
Alpha MO coefficients                      R   N=        9604
 -2.33321170E-06 -6.16228710E-05 -2.69701829E-05 -5.63911306E-11  4.24615247E-09
  1.63236068E-05 -1.11836102E-04 -5.07378495E-10 -4.36374841E-09 -1.63687562E-04
 -1.72963597E-05  2.55198454E-10  2.15644493E-08  8.32563034E-05  1.78926305E-05
  1.78861842E-05  4.04279118E-10 -2.22988839E-09  3.80960633E-11  9.95997467E-01
  1.51505613E-02  2.64743344E-05  1.49186671E-10 -2.07266806E-09 -2.10566523E-02
 -1.17956462E-05 -3.49930004E-11  1.71116283E-09  1.85771998E-03 -6.37897073E-05
 -3.09474700E-10  6.02882238E-09 -2.93105860E-04  1.37011008E-05  1.24997907E-10
 -2.96470470E-09  7.50008068E-03  7.52766284E-03  7.52766289E-03 -1.18740328E-10
  3.74307807E-09  9.49734223E-13 -9.22286487E-06 -9.38301711E-06  4.84694243E-05
  2.22647647E-05  8.94326146E-09 -3.80095507E-06 -9.21106758E-06 -9.38116739E-06
  4.84382011E-05  2.22645234E-05  3.28839493E-06  1.90793106E-06 -9.21141837E-06
 -9.38122122E-06  4.84391276E-05  2.22644950E-05 -3.29697928E-06  1.89260668E-06
 -1.60663414E-06 -4.36573062E-06  2.65860419E-06  8.24412443E-11 -3.69788036E-09
 -1.44327625E-04 -1.64635706E-04  1.03387789E-09 -3.11457453E-08 -3.78491696E-05
 -8.38164920E-05  1.75626288E-10 -3.08371965E-11 -9.86365453E-06 -1.62018239E-06
 -1.62026083E-06  1.74139243E-10 -7.11813896E-09  8.08259847E-13 -3.15806283E-06
 -1.35190989E-05 -5.81551253E-07 -3.60878720E-11  1.70745381E-09  1.88045007E-04
 -9.11794186E-05  1.14738830E-09 -4.17033175E-08  1.25447908E-04  6.11160246E-06
  4.40432404E-10 -1.97619973E-08  2.94540187E-06 -8.17177937E-06 -8.17175589E-06
 -1.74043084E-10  6.30030889E-09  3.67233203E-13 -2.18693876E-06  9.62467502E-06
 -2.31455759E-05  5.22466584E-11  2.05320277E-09  4.86558874E-05  3.75895210E-05
  1.38059359E-11 -3.80267041E-08  1.26351325E-03  4.94983118E-04  2.23492858E-09
 -1.56144538E-07 -2.39352513E-05 -2.68315594E-06 -2.68447635E-06 -2.95489217E-11
  3.88258763E-09  1.07057705E-11  1.39269995E-07  1.76414861E-06  1.51474670E-07
  7.56084486E-12 -3.56079947E-10  5.01336712E-06 -1.20394937E-06 -4.36273678E-11
  2.01418442E-09 -5.10307071E-05  2.20154075E-06  1.55034240E-10 -4.68859178E-09
  2.00289284E-04  2.02540397E-05 -1.03183021E-09  5.03108356E-08  6.07579434E-06
  2.05004504E-06  2.05041457E-06 -6.84831316E-12  7.29813008E-10 -7.95047726E-12
  2.39454942E-06 -8.81875993E-05 -1.59215924E-04 -5.90488050E-06  1.39458973E-08
 -5.99956825E-06  2.38050754E-06 -8.80973256E-05 -1.59366276E-04 -5.90282765E-06
  5.18634668E-06  3.01173614E-06  2.38030635E-06 -8.80964004E-05 -1.59370861E-04
 -5.90273318E-06 -5.20022786E-06  2.98756010E-06  8.40743610E-05  2.05005313E-04
 -3.16373889E-04  3.09427460E-09 -1.07991748E-07 -2.07527461E-04 -3.67804139E-04
  4.47279637E-09 -1.55028988E-07  9.10936216E-04  1.33182235E-03 -1.12060605E-08
  3.75498286E-07 -7.92239982E-04 -9.81531201E-06 -9.81621615E-06  9.19661077E-09
 -3.20514013E-07  3.07557784E-12  9.92701247E-01  3.44616999E-02 -1.46879006E-03
  1.48953636E-08 -5.16512717E-07  5.15132359E-03  1.56702486E-04 -1.66144219E-09
  5.49401031E-08 -3.03341677E-03 -2.47267106E-05 -6.52243816E-10  2.97176317E-08
 -7.67969471E-03 -8.42219404E-03 -8.42219416E-03 -8.68921221E-09  3.02683629E-07
 -6.19289955E-12  9.93068849E-01  4.92952935E-02 -2.86037008E-04  1.17943094E-09
 -2.01969615E-07 -1.62139663E-02 -1.67913636E-04  5.18515857E-09  1.17036222E-06
  5.05148045E-03 -3.18902764E-03 -9.46303214E-09  9.97048693E-07 -9.27929380E-03
 -8.59478230E-03 -8.59497103E-03 -5.77065102E-10  1.47875632E-07  1.75924271E-09
 -7.50823128E-06 -5.79484607E-05 -3.18703084E-05 -2.25754842E-11  7.18940529E-09
 -2.81700264E-04  2.14415655E-04  1.94107421E-10 -4.34377942E-08  2.06958132E-03
  1.21929242E-03  6.83285349E-09 -1.08805348E-07 -4.42016655E-03 -1.65270577E-03
 -8.65744269E-09  6.55890108E-09  1.68886018E-04 -1.20524089E-04 -1.20538326E-04
  1.61219573E-09 -4.19351038E-08  2.37024297E-10 -1.77101378E-04  3.04410911E-03
 -9.24538490E-04  6.12765489E-05  3.85925650E-07 -1.66230831E-04 -1.77206673E-04
  3.04285794E-03 -9.25375633E-04  6.13213888E-05  1.43824850E-04  8.34255115E-05
 -1.77203938E-04  3.04286333E-03 -9.25378728E-04  6.13214495E-05 -1.44210368E-04
  8.27551047E-05 -9.09692485E-06 -1.73807824E-04  4.86737195E-05  2.40646629E-10
  1.79707194E-08 -1.54022087E-03 -2.52028992E-03  1.63385215E-08 -6.70513836E-07
  1.90522086E-03  2.11532071E-04  5.46597041E-09 -3.88815021E-07  4.30023217E-05
 -4.06798882E-05 -4.06590358E-05  1.48581801E-09 -5.48691382E-08  1.97868018E-11
 -6.43810175E-05 -2.71156430E-04  2.58028461E-05 -1.53866210E-09  5.18430255E-08
  3.02360034E-03 -1.12143861E-03  1.69296879E-08 -5.67606917E-07 -3.37127645E-04
 -1.99964319E-04 -5.89157503E-09  3.61535639E-07 -6.34688829E-05 -1.41571478E-04
 -1.41573649E-04 -9.52539922E-10  2.29097219E-08  5.18392119E-12 -4.48097532E-05
 -1.87230326E-04 -7.24766657E-05  8.15162935E-11  1.31834091E-08  5.58312848E-04
  7.75523943E-04  1.45914478E-09 -2.66821868E-07  3.44482123E-05  1.02561377E-02
  1.56946673E-08 -6.08432972E-07  8.87573706E-05 -3.94828677E-05 -3.94859464E-05
 -3.73101060E-10 -1.86486922E-08  8.69643445E-11  2.52959993E-07  9.59285496E-06
  9.69218625E-06  1.12971153E-10 -3.65161347E-09  1.96124672E-05 -6.44883534E-05
 -6.78444072E-10  2.15908486E-08 -3.32303044E-04  4.99024873E-04  3.01267372E-09
 -8.06273037E-08  9.62368748E-03  2.52811737E-03  1.76538036E-08 -3.26461848E-07
  6.61658169E-05 -2.18457438E-08 -1.77483039E-08  6.17402391E-10 -1.07091162E-08
 -6.75517422E-12 -3.31132388E-05 -4.55904462E-04  2.54393797E-04 -2.19967499E-05
 -1.60088546E-08  6.80518498E-06 -3.31266088E-05 -4.55548032E-04  2.54583060E-04
 -2.19056051E-05 -5.92021131E-06 -3.41626837E-06 -3.31271244E-05 -4.55543145E-04
  2.54589592E-04 -2.19046578E-05  5.93619115E-06 -3.38902633E-06  9.92834329E-01
  4.94434552E-02  1.72750747E-03 -1.98840003E-08  7.16662152E-07 -1.05094548E-02
 -1.30129273E-05  9.32882256E-09 -3.87028050E-07 -1.42242846E-02  2.81227385E-03
  3.17992533E-09 -7.47008550E-07 -8.46808028E-03 -9.72788213E-03 -9.72788627E-03
 -1.47897640E-08  5.14938644E-07  2.26808210E-11 -4.79558461E-04  1.25875990E-04
  3.96869584E-04 -3.63445051E-09  1.32217140E-07 -2.00778675E-03  9.15100873E-04
 -1.25738323E-08  4.16444841E-07  9.27173566E-03 -4.09169708E-03  3.59764128E-08
 -9.62269334E-07 -2.17534426E-04  2.09543278E-04  2.09543819E-04  5.53885549E-09
 -1.97371066E-07  1.25667495E-12 -5.30775535E-05  7.26433919E-05  1.78125073E-04
  8.15168000E-10  3.39879770E-09  1.88389270E-03 -1.75981936E-03  6.93843377E-10
  9.98983842E-08 -1.26359010E-02  3.26698562E-02  6.41569529E-08 -2.54017413E-06
 -3.56288962E-04 -4.69861117E-05 -4.70629670E-05 -1.65672671E-09  1.82650000E-08
  1.51091379E-09 -2.84617656E-01  1.02275638E+00  3.10772520E-03  1.86613879E-08
 -2.40151910E-07  7.58122119E-02  4.85113496E-04  1.54701948E-09 -5.17120441E-08
 -2.50492888E-02 -1.65917952E-03 -5.40880656E-09  1.53386028E-07  4.62423460E-02
  1.38731513E-02  6.90716505E-08 -1.59951764E-06 -1.54021612E-02 -1.55451463E-02
 -1.55451516E-02  1.17824917E-09 -1.78586172E-08  4.56766421E-11 -5.04747662E-05
 -6.18801769E-04 -7.39313270E-05 -4.88419644E-05 -5.10212370E-09  1.96629329E-06
 -5.05153395E-05 -6.18739451E-04 -7.27096451E-05 -4.86880840E-05 -1.68037374E-06
 -9.58997561E-07 -5.05149677E-05 -6.18723189E-04 -7.27438713E-05 -4.86915978E-05
  1.68579579E-06 -9.52352249E-07  1.64101854E-05  6.86772640E-05  3.45422391E-05
 -1.76751352E-09  6.73400211E-08 -5.95831027E-04 -1.44509998E-04  6.72701117E-09
 -2.15977768E-07 -2.43824679E-02  1.16220656E-02 -5.34637933E-08 -2.11662668E-07
  8.99632461E-05  1.77424123E-05  1.77382319E-05  4.98503005E-11 -3.71538572E-10
  3.38691330E-11 -2.06602750E-05 -6.03796145E-05 -1.25211908E-05 -4.34199091E-10
  4.80126247E-08  4.68287670E-04  1.48062893E-04 -6.08462772E-10 -1.42179585E-07
  3.27847441E-04 -2.52357420E-03  1.59092784E-08  3.69269534E-07 -8.58619327E-05
 -4.35343139E-05 -4.35332779E-05  6.55142199E-10 -2.18229353E-08 -1.99475426E-11
  9.72536815E-05  9.47699908E-04 -3.64427738E-04 -8.82767244E-11  2.04241814E-08
 -4.55965468E-04  9.23615903E-04  5.70168528E-09  7.55953376E-07  1.20199723E-02
 -6.22618344E-02 -1.00413879E-07  2.60048040E-06 -7.53426834E-04  3.08279481E-04
  3.08090647E-04 -5.05822254E-09  4.63674275E-08  2.90013352E-09  9.22214516E-04
 -3.47331622E-03  9.90478418E-01  5.05700394E-06 -5.79313325E-05 -1.93048725E-05
  3.10418028E-02  1.57538541E-07 -1.91557348E-06  2.89495269E-03 -1.36270378E-02
 -6.73626566E-08  9.72903364E-07 -5.90776875E-02 -1.18641450E-02 -9.27254072E-08
  2.06201329E-06  2.51685453E-04 -2.15895661E-04 -2.15906257E-04  1.22143428E-09
 -4.29396022E-08  4.07318662E-12 -2.22660836E-04  1.51770676E-03 -5.33190439E-03
 -2.92125271E-04  5.26932861E-08 -2.31063669E-05 -2.23049137E-04  1.51714070E-03
 -5.33245498E-03 -2.91898963E-04  2.01133461E-05  1.16670279E-05 -2.23037915E-04
  1.51713480E-03 -5.33249138E-03 -2.91906881E-04 -2.01676746E-05  1.15724189E-05
 -4.76329433E-05 -2.21284836E-04 -8.83480847E-05  2.58311261E-09 -1.34603154E-07
  3.00533607E-03  1.43200825E-03 -2.46162449E-08  9.77524905E-07  6.42768438E-02
 -2.49718974E-02  7.45164154E-08  1.57325420E-06  1.38274438E-05 -8.00178517E-05
 -8.00144786E-05 -2.97425854E-09  1.06564006E-07 -4.06596324E-11 -1.37649881E-05
 -3.40384827E-05  3.28143391E-05  3.20119323E-10 -6.62584281E-08 -6.42351460E-04
  6.23801984E-04 -5.75538974E-09  4.54575931E-07 -9.76907444E-03  7.24897717E-03
 -5.14745502E-08 -5.61343150E-08 -8.85870806E-05 -1.55810230E-05 -1.55853730E-05
  7.34857893E-10 -1.47830624E-08 -8.20320937E-12 -8.21278514E-10 -4.74194508E-09
  1.95224052E-09 -5.77404808E-05 -4.77635548E-07  2.26601625E-08 -1.09310203E-08
  2.85886621E-04  2.36705992E-06 -1.92406955E-08 -4.33339877E-09  2.72199750E-04
  2.24019040E-06 -1.90528261E-10 -9.10920973E-08  8.95881549E-08 -7.77245983E-05
 -6.42365705E-07 -8.06632179E-05  5.30493688E-10 -1.88043157E-09 -4.57885106E-06
  9.90814364E-01  8.19162128E-03  2.64488089E-10 -1.38189149E-07  2.95812902E-02
  2.44564742E-04 -3.63101329E-09  4.85708930E-08 -1.15822876E-02 -9.57560117E-05
 -8.37243898E-09 -2.14200394E-08  5.14756030E-03  4.25553940E-05 -3.38419189E-09
  7.80674345E-09 -5.83000445E-09  2.02566985E-04  1.67459460E-06  5.04836639E-06
  5.21370594E-07 -3.43229646E-06  2.56075782E-05  1.17065094E-06 -2.70350330E-05
 -6.38102379E-07 -7.62036508E-05  5.00646322E-04 -3.74677549E-03 -1.70952887E-04
 -7.94260436E-05 -3.05782683E-05  7.56806506E-05 -4.97244050E-04  3.72117819E-03
  1.69788739E-04 -7.92074488E-05  2.96819174E-05 -1.59298441E-10 -4.18017894E-10
  5.96054700E-10  5.69190130E-05  4.70283948E-07 -6.91105255E-09 -1.02668362E-08
 -2.35860325E-04 -1.94885889E-06  1.32098320E-08 -2.34964545E-08  1.02598687E-03
  8.48043725E-06 -7.99002584E-10  3.22241128E-09 -3.76128549E-09  1.25840896E-07
  1.02087443E-09  2.92787460E-06 -1.42147067E-10 -6.92426929E-10 -2.54499540E-10
 -2.31226719E-05 -1.91360714E-07  1.00052321E-08 -4.05850530E-09  1.39692017E-04
  1.15558550E-06  1.19021962E-08  7.20352343E-09 -3.68180245E-04 -3.04639564E-06
 -3.63360540E-11  2.78763869E-09 -3.13937010E-09 -1.67630686E-05 -1.38482229E-07
  2.57732860E-06 -2.36324440E-08 -1.24314400E-07  2.11371273E-08  4.77329736E-07
 -5.77669825E-05  6.65362139E-07 -1.64560973E-07 -2.35833568E-06  2.85672179E-04
 -7.61278787E-07  1.02560190E-05 -2.25109290E-06  2.71043295E-04 -5.17825743E-08
 -6.99656019E-05  6.99583029E-05  6.42583773E-07 -7.76959205E-05  1.04690831E-07
 -2.00142651E-08  9.34096824E-08  5.80363557E-05 -8.19162087E-03  9.90814370E-01
  2.90067628E-08  1.62417341E-06 -2.44565421E-04  2.95812599E-02 -5.66218251E-07
 -5.34342428E-07  9.57579220E-05 -1.15822065E-02  9.09434623E-06  2.87257657E-06
 -4.25608266E-05  5.14764135E-03  1.81593465E-08  4.42389221E-06 -4.39676266E-06
 -1.67494598E-06  2.02575367E-04 -5.29901752E-09  8.75904610E-05 -5.77020614E-04
  4.31107692E-03  1.96817073E-04  3.86122758E-07 -9.68236888E-05 -4.33801354E-05
  2.84920102E-04 -2.13220611E-03 -9.73103973E-05 -2.96031573E-05 -4.43528133E-05
 -4.42807179E-05  2.90858696E-04 -2.17661176E-03 -9.93370431E-05  3.07532841E-05
 -4.45705080E-05  1.59229565E-08  7.07459824E-08 -1.15464590E-08 -4.70697982E-07