 Entering Gaussian System, Link 0=g16
 Initial command:
 /usr/local/g16_AVX//g16/l1.exe "/scratch/alanqf/0111-54553.ixchel.mda.cinvestav.mx/Gau-16553.inp" -scrdir="/scratch/alanqf/0111-54553.ixchel.mda.cinvestav.mx/"
 Entering Link 1 = /usr/local/g16_AVX//g16/l1.exe PID=     16554.
  
 Copyright (c) 1988-2017, Gaussian, Inc.  All Rights Reserved.
  
 This is part of the Gaussian(R) 16 program.  It is based on
 the Gaussian(R) 09 system (copyright 2009, Gaussian, Inc.),
 the Gaussian(R) 03 system (copyright 2003, Gaussian, Inc.),
 the Gaussian(R) 98 system (copyright 1998, Gaussian, Inc.),
 the Gaussian(R) 94 system (copyright 1995, Gaussian, Inc.),
 the Gaussian 92(TM) system (copyright 1992, Gaussian, Inc.),
 the Gaussian 90(TM) system (copyright 1990, Gaussian, Inc.),
 the Gaussian 88(TM) system (copyright 1988, Gaussian, Inc.),
 the Gaussian 86(TM) system (copyright 1986, Carnegie Mellon
 University), and the Gaussian 82(TM) system (copyright 1983,
 Carnegie Mellon University). Gaussian is a federally registered
 trademark of Gaussian, Inc.
  
 This software contains proprietary and confidential information,
 including trade secrets, belonging to Gaussian, Inc.
  
 This software is provided under written license and may be
 used, copied, transmitted, or stored only in accord with that
 written license.
  
 The following legend is applicable only to US Government
 contracts under FAR:
  
                    RESTRICTED RIGHTS LEGEND
  
 Use, reproduction and disclosure by the US Government is
 subject to restrictions as set forth in subparagraphs (a)
 and (c) of the Commercial Computer Software - Restricted
 Rights clause in FAR 52.227-19.
  
 Gaussian, Inc.
 340 Quinnipiac St., Bldg. 40, Wallingford CT 06492
  
  
 ---------------------------------------------------------------
 Warning -- This program may not be used in any manner that
 competes with the business of Gaussian, Inc. or will provide
 assistance to any competitor of Gaussian, Inc.  The licensee
 of this program is prohibited from giving any competitor of
 Gaussian, Inc. access to this program.  By using this program,
 the user acknowledges that Gaussian, Inc. is engaged in the
 business of creating and licensing software in the field of
 computational chemistry and represents and warrants to the
 licensee that it is not a competitor of Gaussian, Inc. and that
 it will not use this program in any manner prohibited above.
 ---------------------------------------------------------------
  

 Cite this work as:
 Gaussian 16, Revision B.01,
 M. J. Frisch, G. W. Trucks, H. B. Schlegel, G. E. Scuseria, 
 M. A. Robb, J. R. Cheeseman, G. Scalmani, V. Barone, 
 G. A. Petersson, H. Nakatsuji, X. Li, M. Caricato, A. V. Marenich, 
 J. Bloino, B. G. Janesko, R. Gomperts, B. Mennucci, H. P. Hratchian, 
 J. V. Ortiz, A. F. Izmaylov, J. L. Sonnenberg, D. Williams-Young, 
 F. Ding, F. Lipparini, F. Egidi, J. Goings, B. Peng, A. Petrone, 
 T. Henderson, D. Ranasinghe, V. G. Zakrzewski, J. Gao, N. Rega, 
 G. Zheng, W. Liang, M. Hada, M. Ehara, K. Toyota, R. Fukuda, 
 J. Hasegawa, M. Ishida, T. Nakajima, Y. Honda, O. Kitao, H. Nakai, 
 T. Vreven, K. Throssell, J. A. Montgomery, Jr., J. E. Peralta, 
 F. Ogliaro, M. J. Bearpark, J. J. Heyd, E. N. Brothers, K. N. Kudin, 
 V. N. Staroverov, T. A. Keith, R. Kobayashi, J. Normand, 
 K. Raghavachari, A. P. Rendell, J. C. Burant, S. S. Iyengar, 
 J. Tomasi, M. Cossi, J. M. Millam, M. Klene, C. Adamo, R. Cammi, 
 J. W. Ochterski, R. L. Martin, K. Morokuma, O. Farkas, 
 J. B. Foresman, and D. J. Fox, Gaussian, Inc., Wallingford CT, 2016.
 
 ******************************************
 Gaussian 16:  ES64L-G16RevB.01 20-Dec-2017
                13-Oct-2024 
 ******************************************
 %NProcShared=26
 Will use up to   26 processors via shared memory.
 %MEM=20GB
 %chk=CHKfiles/0111.chk
 ---------------------------------------------------------------------
 #p b3lyp 6-31++g(d,p) scf=verytight NoSymm freq=noraman int=ultrafine
 ---------------------------------------------------------------------
 1/10=4,30=1,38=1/1,3;
 2/12=2,15=1,17=6,18=5,40=1/2;
 3/5=1,6=6,7=1111,11=2,25=1,30=1,71=2,74=-5,75=-5,140=1/1,2,3;
 4//1;
 5/5=2,17=3,38=5,98=1/2;
 8/6=4,10=90,11=11/1;
 11/6=1,8=1,9=11,15=111,16=1,31=1/1,2,10;
 10/6=1,31=1/2;
 6/7=2,8=2,9=2,10=2,28=1/1;
 7/8=1,10=1,25=1,30=1/1,2,3,16;
 1/10=4,30=1/3;
 99//99;
 Leave Link    1 at Sun Oct 13 09:51:03 2024, MaxMem=  2684354560 cpu:               1.5 elap:               0.1
 (Enter /usr/local/g16_AVX//g16/l101.exe)
 ------------------------
 RxCoord=0.99975 DE=52.93
 ------------------------
 Symbolic Z-matrix:
 Charge = -1 Multiplicity = 1
 C                    -0.12598   0.00001  -0.00015 
 Cl                   -2.17911  0.         0.00005 
 H                     0.08205   0.00247  -1.05872 
 H                     0.08244   0.91558   0.53109 
 H                     0.08244  -0.91802   0.52683 
 C                     2.34501   0.       -0.00019 
 N                     3.52235  -0.00001   0.00023 
 
 ITRead=  0  0  0  0  0  0  0
 MicOpt= -1 -1 -1 -1 -1 -1 -1
 NAtoms=      7 NQM=        7 NQMF=       0 NMMI=      0 NMMIF=      0
                NMic=       0 NMicF=      0.
                    Isotopes and Nuclear Properties:
 (Nuclear quadrupole moments (NQMom) in fm**2, nuclear magnetic moments (NMagM)
  in nuclear magnetons)

  Atom         1           2           3           4           5           6           7
 IAtWgt=          12          35           1           1           1          12          14
 AtmWgt=  12.0000000  34.9688527   1.0078250   1.0078250   1.0078250  12.0000000  14.0030740
 NucSpn=           0           3           1           1           1           0           2
 AtZEff=  -0.0000000  -0.0000000  -0.0000000  -0.0000000  -0.0000000  -0.0000000  -0.0000000
 NQMom=    0.0000000  -8.1650000   0.0000000   0.0000000   0.0000000   0.0000000   2.0440000
 NMagM=    0.0000000   0.8218740   2.7928460   2.7928460   2.7928460   0.0000000   0.4037610
 AtZNuc=   6.0000000  17.0000000   1.0000000   1.0000000   1.0000000   6.0000000   7.0000000
 Leave Link  101 at Sun Oct 13 09:51:04 2024, MaxMem=  2684354560 cpu:               2.9 elap:               0.2
 (Enter /usr/local/g16_AVX//g16/l103.exe)

 GradGradGradGradGradGradGradGradGradGradGradGradGradGradGradGradGradGrad
 Berny optimization.
 Initialization pass.
 Trust Radius=3.00D-01 FncErr=1.00D-07 GrdErr=1.00D-07 EigMax=2.50D+02 EigMin=1.00D-04
 Number of steps in this run=      2 maximum allowed number of steps=      2.
 GradGradGradGradGradGradGradGradGradGradGradGradGradGradGradGradGradGrad

 Leave Link  103 at Sun Oct 13 09:51:04 2024, MaxMem=  2684354560 cpu:               0.6 elap:               0.1
 (Enter /usr/local/g16_AVX//g16/l202.exe)
                          Input orientation:                          
 ---------------------------------------------------------------------
 Center     Atomic      Atomic             Coordinates (Angstroms)
 Number     Number       Type             X           Y           Z
 ---------------------------------------------------------------------
      1          6           0       -0.125984    0.000007   -0.000148
      2         17           0       -2.179106   -0.000001    0.000045
      3          1           0        0.082050    0.002467   -1.058716
      4          1           0        0.082436    0.915578    0.531088
      5          1           0        0.082436   -0.918024    0.526826
      6          6           0        2.345011    0.000004   -0.000187
      7          7           0        3.522346   -0.000008    0.000231
 ---------------------------------------------------------------------
                    Distance matrix (angstroms):
                    1          2          3          4          5
     1  C    0.000000
     2  Cl   2.053122   0.000000
     3  H    1.078819   2.496759   0.000000
     4  H    1.078852   2.496971   1.833371   0.000000
     5  H    1.078852   2.496965   1.833370   1.833607   0.000000
     6  C    2.470995   4.524117   2.498296   2.497954   2.497952
     7  N    3.648330   5.701452   3.599585   3.599040   3.599033
                    6          7
     6  C    0.000000
     7  N    1.177335   0.000000
 Symmetry turned off by external request.
 Stoichiometry    C2H3ClN(1-)
 Framework group  C1[X(C2H3ClN)]
 Deg. of freedom    15
 Full point group                 C1      NOp   1
 Rotational constants (GHZ):         149.1742921           1.2396517           1.2396499
 Leave Link  202 at Sun Oct 13 09:51:04 2024, MaxMem=  2684354560 cpu:               0.2 elap:               0.0
 (Enter /usr/local/g16_AVX//g16/l301.exe)
 Standard basis: 6-31++G(d,p) (6D, 7F)
 Ernie: Thresh=  0.10000D-02 Tol=  0.10000D-05 Strict=F.
    98 basis functions,   176 primitive gaussians,    98 cartesian basis functions
    20 alpha electrons       20 beta electrons
       nuclear repulsion energy       109.3488746820 Hartrees.
 IExCor=  402 DFT=T Ex+Corr=B3LYP ExCW=0 ScaHFX=  0.200000
 ScaDFX=  0.800000  0.720000  1.000000  0.810000 ScalE2=  1.000000  1.000000
 IRadAn=      5 IRanWt=     -1 IRanGd=            0 ICorTp=0 IEmpDi=  4
 NAtoms=    7 NActive=    7 NUniq=    7 SFac= 1.00D+00 NAtFMM=   60 NAOKFM=F Big=F
 Integral buffers will be    131072 words long.
 Raffenetti 2 integral format.
 Two-electron integral symmetry is turned off.
 Leave Link  301 at Sun Oct 13 09:51:04 2024, MaxMem=  2684354560 cpu:               1.4 elap:               0.1
 (Enter /usr/local/g16_AVX//g16/l302.exe)
 NPDir=0 NMtPBC=     1 NCelOv=     1 NCel=       1 NClECP=     1 NCelD=      1
         NCelK=      1 NCelE2=     1 NClLst=     1 CellRange=     0.0.
 One-electron integrals computed using PRISM.
 NBasis=    98 RedAO= T EigKep=  1.27D-04  NBF=    98
 NBsUse=    98 1.00D-06 EigRej= -1.00D+00 NBFU=    98
 Precomputing XC quadrature grid using
 IXCGrd= 4 IRadAn=           5 IRanWt=          -1 IRanGd=           0 AccXCQ= 0.00D+00.
 Generated NRdTot=       0 NPtTot=           0 NUsed=           0 NTot=          32
 NSgBfM=    98    98    98    98    98 MxSgAt=     7 MxSgA2=     7.
 Leave Link  302 at Sun Oct 13 09:51:04 2024, MaxMem=  2684354560 cpu:               3.9 elap:               0.2
 (Enter /usr/local/g16_AVX//g16/l303.exe)
 DipDrv:  MaxL=1.
 Leave Link  303 at Sun Oct 13 09:51:04 2024, MaxMem=  2684354560 cpu:               0.7 elap:               0.1
 (Enter /usr/local/g16_AVX//g16/l401.exe)
 ExpMin= 3.60D-02 ExpMax= 2.52D+04 ExpMxC= 3.78D+03 IAcc=3 IRadAn=         5 AccDes= 0.00D+00
 Harris functional with IExCor=  402 and IRadAn=       5 diagonalized for initial guess.
 HarFok:  IExCor=  402 AccDes= 0.00D+00 IRadAn=         5 IDoV= 1 UseB2=F ITyADJ=14
 ICtDFT=  3500011 ScaDFX=  1.000000  1.000000  1.000000  1.000000
 FoFCou: FMM=F IPFlag=           0 FMFlag=      100000 FMFlg1=           0
         NFxFlg=           0 DoJE=T BraDBF=F KetDBF=T FulRan=T
         wScrn=  0.000000 ICntrl=       500 IOpCl=  0 I1Cent=   200000004 NGrid=           0
         NMat0=    1 NMatS0=      1 NMatT0=    0 NMatD0=    1 NMtDS0=    0 NMtDT0=    0
 Symmetry not used in FoFCou.
 Harris En= -593.057205266428    
 JPrj=0 DoOrth=F DoCkMO=F.
 Leave Link  401 at Sun Oct 13 09:51:04 2024, MaxMem=  2684354560 cpu:               5.8 elap:               0.3
 (Enter /usr/local/g16_AVX//g16/l502.exe)
 Keep R1 ints in memory in canonical form, NReq=35752935.
 FoFCou: FMM=F IPFlag=           0 FMFlag=           0 FMFlg1=           0
         NFxFlg=           0 DoJE=F BraDBF=F KetDBF=F FulRan=T
         wScrn=  0.000000 ICntrl=       600 IOpCl=  0 I1Cent=           0 NGrid=           0
         NMat0=    1 NMatS0=   4851 NMatT0=    0 NMatD0=    1 NMtDS0=    0 NMtDT0=    0
 Symmetry not used in FoFCou.
 Two-electron integral symmetry not used.
 Closed shell SCF:
 Using DIIS extrapolation, IDIIS=  1040.
 NGot=  2684354560 LenX=  2672563405 LenY=  2672553360
 Requested convergence on RMS density matrix=1.00D-08 within 128 cycles.
 Requested convergence on MAX density matrix=1.00D-06.
 Requested convergence on             energy=1.00D-06.
 No special actions if energy rises.

 Cycle   1  Pass 1  IDiag  1:
 E= -592.838889154947    
 DIIS: error= 3.39D-02 at cycle   1 NSaved=   1.
 NSaved= 1 IEnMin= 1 EnMin= -592.838889154947     IErMin= 1 ErrMin= 3.39D-02
 ErrMax= 3.39D-02  0.00D+00 EMaxC= 1.00D-01 BMatC= 1.26D-01 BMatP= 1.26D-01
 IDIUse=3 WtCom= 6.61D-01 WtEn= 3.39D-01
 Coeff-Com:  0.100D+01
 Coeff-En:   0.100D+01
 Coeff:      0.100D+01
 Gap=     0.381 Goal=   None    Shift=    0.000
 GapD=    0.381 DampG=1.000 DampE=0.500 DampFc=0.5000 IDamp=-1.
 Damping current iteration by 5.00D-01
 RMSDP=5.27D-02 MaxDP=1.66D+00              OVMax= 3.63D-01

 Cycle   2  Pass 1  IDiag  1:
 E= -592.876192855733     Delta-E=       -0.037303700786 Rises=F Damp=T
 DIIS: error= 1.11D-02 at cycle   2 NSaved=   2.
 NSaved= 2 IEnMin= 2 EnMin= -592.876192855733     IErMin= 2 ErrMin= 1.11D-02
 ErrMax= 1.11D-02  0.00D+00 EMaxC= 1.00D-01 BMatC= 1.65D-02 BMatP= 1.26D-01
 IDIUse=3 WtCom= 8.89D-01 WtEn= 1.11D-01
 Coeff-Com:  0.199D+00 0.801D+00
 Coeff-En:   0.363D+00 0.637D+00
 Coeff:      0.217D+00 0.783D+00
 Gap=     0.215 Goal=   None    Shift=    0.000
 RMSDP=2.49D-02 MaxDP=8.29D-01 DE=-3.73D-02 OVMax= 2.67D-01

 Cycle   3  Pass 1  IDiag  1:
 E= -592.976873125429     Delta-E=       -0.100680269695 Rises=F Damp=F
 DIIS: error= 1.53D-02 at cycle   3 NSaved=   3.
 NSaved= 3 IEnMin= 3 EnMin= -592.976873125429     IErMin= 2 ErrMin= 1.11D-02
 ErrMax= 1.53D-02  0.00D+00 EMaxC= 1.00D-01 BMatC= 1.25D-02 BMatP= 1.65D-02
 IDIUse=3 WtCom= 8.47D-01 WtEn= 1.53D-01
 Coeff-Com:  0.650D-01 0.465D+00 0.470D+00
 Coeff-En:   0.000D+00 0.000D+00 0.100D+01
 Coeff:      0.551D-01 0.394D+00 0.551D+00
 Gap=     0.209 Goal=   None    Shift=    0.000
 RMSDP=1.93D-03 MaxDP=3.54D-02 DE=-1.01D-01 OVMax= 6.28D-02

 Cycle   4  Pass 1  IDiag  1:
 E= -592.981407759867     Delta-E=       -0.004534634438 Rises=F Damp=F
 DIIS: error= 1.32D-02 at cycle   4 NSaved=   4.
 NSaved= 4 IEnMin= 4 EnMin= -592.981407759867     IErMin= 2 ErrMin= 1.11D-02
 ErrMax= 1.32D-02  0.00D+00 EMaxC= 1.00D-01 BMatC= 7.96D-03 BMatP= 1.25D-02
 IDIUse=3 WtCom= 8.68D-01 WtEn= 1.32D-01
 Coeff-Com: -0.764D-02 0.960D-01 0.434D+00 0.477D+00
 Coeff-En:   0.000D+00 0.000D+00 0.409D+00 0.591D+00
 Coeff:     -0.663D-02 0.834D-01 0.431D+00 0.492D+00
 Gap=     0.197 Goal=   None    Shift=    0.000
 RMSDP=1.15D-03 MaxDP=1.83D-02 DE=-4.53D-03 OVMax= 3.23D-02

 Cycle   5  Pass 1  IDiag  1:
 E= -592.988281481857     Delta-E=       -0.006873721991 Rises=F Damp=F
 DIIS: error= 2.62D-03 at cycle   5 NSaved=   5.
 NSaved= 5 IEnMin= 5 EnMin= -592.988281481857     IErMin= 5 ErrMin= 2.62D-03
 ErrMax= 2.62D-03  0.00D+00 EMaxC= 1.00D-01 BMatC= 4.89D-04 BMatP= 7.96D-03
 IDIUse=3 WtCom= 9.74D-01 WtEn= 2.62D-02
 Coeff-Com: -0.843D-02 0.230D-01 0.211D+00 0.298D+00 0.476D+00
 Coeff-En:   0.000D+00 0.000D+00 0.000D+00 0.299D-01 0.970D+00
 Coeff:     -0.821D-02 0.224D-01 0.206D+00 0.291D+00 0.489D+00
 Gap=     0.201 Goal=   None    Shift=    0.000
 RMSDP=4.68D-04 MaxDP=6.24D-03 DE=-6.87D-03 OVMax= 1.23D-02

 Cycle   6  Pass 1  IDiag  1:
 E= -592.988828947202     Delta-E=       -0.000547465344 Rises=F Damp=F
 DIIS: error= 3.62D-04 at cycle   6 NSaved=   6.
 NSaved= 6 IEnMin= 6 EnMin= -592.988828947202     IErMin= 6 ErrMin= 3.62D-04
 ErrMax= 3.62D-04  0.00D+00 EMaxC= 1.00D-01 BMatC= 1.41D-05 BMatP= 4.89D-04
 IDIUse=3 WtCom= 9.96D-01 WtEn= 3.62D-03
 Coeff-Com: -0.277D-02 0.306D-03 0.606D-01 0.930D-01 0.222D+00 0.626D+00
 Coeff-En:   0.000D+00 0.000D+00 0.000D+00 0.000D+00 0.000D+00 0.100D+01
 Coeff:     -0.276D-02 0.304D-03 0.604D-01 0.927D-01 0.222D+00 0.628D+00
 Gap=     0.200 Goal=   None    Shift=    0.000
 RMSDP=7.25D-05 MaxDP=1.54D-03 DE=-5.47D-04 OVMax= 1.42D-03

 Cycle   7  Pass 1  IDiag  1:
 E= -592.988843203341     Delta-E=       -0.000014256139 Rises=F Damp=F
 DIIS: error= 6.36D-05 at cycle   7 NSaved=   7.
 NSaved= 7 IEnMin= 7 EnMin= -592.988843203341     IErMin= 7 ErrMin= 6.36D-05
 ErrMax= 6.36D-05  0.00D+00 EMaxC= 1.00D-01 BMatC= 6.48D-07 BMatP= 1.41D-05
 IDIUse=1 WtCom= 1.00D+00 WtEn= 0.00D+00
 Coeff-Com: -0.212D-03-0.949D-03 0.629D-02 0.101D-01 0.438D-01 0.242D+00
 Coeff-Com:  0.699D+00
 Coeff:     -0.212D-03-0.949D-03 0.629D-02 0.101D-01 0.438D-01 0.242D+00
 Coeff:      0.699D+00
 Gap=     0.200 Goal=   None    Shift=    0.000
 RMSDP=2.24D-05 MaxDP=4.68D-04 DE=-1.43D-05 OVMax= 4.92D-04

 Cycle   8  Pass 1  IDiag  1:
 E= -592.988843947676     Delta-E=       -0.000000744336 Rises=F Damp=F
 DIIS: error= 2.44D-05 at cycle   8 NSaved=   8.
 NSaved= 8 IEnMin= 8 EnMin= -592.988843947676     IErMin= 8 ErrMin= 2.44D-05
 ErrMax= 2.44D-05  0.00D+00 EMaxC= 1.00D-01 BMatC= 7.60D-08 BMatP= 6.48D-07
 IDIUse=1 WtCom= 1.00D+00 WtEn= 0.00D+00
 Coeff-Com:  0.218D-03-0.763D-03-0.237D-02-0.302D-02 0.237D-02 0.565D-01
 Coeff-Com:  0.313D+00 0.634D+00
 Coeff:      0.218D-03-0.763D-03-0.237D-02-0.302D-02 0.237D-02 0.565D-01
 Coeff:      0.313D+00 0.634D+00
 Gap=     0.200 Goal=   None    Shift=    0.000
 RMSDP=4.09D-06 MaxDP=1.11D-04 DE=-7.44D-07 OVMax= 9.12D-05

 Cycle   9  Pass 1  IDiag  1:
 E= -592.988844033586     Delta-E=       -0.000000085909 Rises=F Damp=F
 DIIS: error= 3.66D-06 at cycle   9 NSaved=   9.
 NSaved= 9 IEnMin= 9 EnMin= -592.988844033586     IErMin= 9 ErrMin= 3.66D-06
 ErrMax= 3.66D-06  0.00D+00 EMaxC= 1.00D-01 BMatC= 9.82D-10 BMatP= 7.60D-08
 IDIUse=1 WtCom= 1.00D+00 WtEn= 0.00D+00
 Coeff-Com:  0.722D-04-0.136D-03-0.761D-03-0.943D-03-0.110D-02 0.118D-02
 Coeff-Com:  0.376D-01 0.148D+00 0.816D+00
 Coeff:      0.722D-04-0.136D-03-0.761D-03-0.943D-03-0.110D-02 0.118D-02
 Coeff:      0.376D-01 0.148D+00 0.816D+00
 Gap=     0.200 Goal=   None    Shift=    0.000
 RMSDP=1.37D-06 MaxDP=3.19D-05 DE=-8.59D-08 OVMax= 9.19D-06

 Cycle  10  Pass 1  IDiag  1:
 E= -592.988844034728     Delta-E=       -0.000000001143 Rises=F Damp=F
 DIIS: error= 4.01D-07 at cycle  10 NSaved=  10.
 NSaved=10 IEnMin=10 EnMin= -592.988844034728     IErMin=10 ErrMin= 4.01D-07
 ErrMax= 4.01D-07  0.00D+00 EMaxC= 1.00D-01 BMatC= 1.31D-11 BMatP= 9.82D-10
 IDIUse=1 WtCom= 1.00D+00 WtEn= 0.00D+00
 Coeff-Com:  0.497D-05-0.299D-06-0.473D-04-0.591D-04-0.161D-03-0.846D-03
 Coeff-Com: -0.327D-02 0.846D-02 0.101D+00 0.895D+00
 Coeff:      0.497D-05-0.299D-06-0.473D-04-0.591D-04-0.161D-03-0.846D-03
 Coeff:     -0.327D-02 0.846D-02 0.101D+00 0.895D+00
 Gap=     0.200 Goal=   None    Shift=    0.000
 RMSDP=1.16D-07 MaxDP=2.70D-06 DE=-1.14D-09 OVMax= 1.95D-06

 Cycle  11  Pass 1  IDiag  1:
 E= -592.988844034747     Delta-E=       -0.000000000019 Rises=F Damp=F
 DIIS: error= 6.79D-08 at cycle  11 NSaved=  11.
 NSaved=11 IEnMin=11 EnMin= -592.988844034747     IErMin=11 ErrMin= 6.79D-08
 ErrMax= 6.79D-08  0.00D+00 EMaxC= 1.00D-01 BMatC= 3.40D-13 BMatP= 1.31D-11
 IDIUse=1 WtCom= 1.00D+00 WtEn= 0.00D+00
 Coeff-Com: -0.754D-06 0.193D-05 0.117D-05 0.171D-05-0.164D-04-0.733D-04
 Coeff-Com: -0.768D-03-0.590D-03 0.234D-02 0.118D+00 0.882D+00
 Coeff:     -0.754D-06 0.193D-05 0.117D-05 0.171D-05-0.164D-04-0.733D-04
 Coeff:     -0.768D-03-0.590D-03 0.234D-02 0.118D+00 0.882D+00
 Gap=     0.200 Goal=   None    Shift=    0.000
 RMSDP=1.00D-08 MaxDP=1.41D-07 DE=-1.88D-11 OVMax= 1.98D-07

 Cycle  12  Pass 1  IDiag  1:
 E= -592.988844034747     Delta-E=       -0.000000000000 Rises=F Damp=F
 DIIS: error= 8.09D-09 at cycle  12 NSaved=  12.
 NSaved=12 IEnMin=12 EnMin= -592.988844034747     IErMin=12 ErrMin= 8.09D-09
 ErrMax= 8.09D-09  0.00D+00 EMaxC= 1.00D-01 BMatC= 7.26D-15 BMatP= 3.40D-13
 IDIUse=1 WtCom= 1.00D+00 WtEn= 0.00D+00
 Coeff-Com: -0.281D-06 0.403D-06 0.468D-06 0.593D-06-0.116D-05 0.153D-05
 Coeff-Com: -0.356D-04-0.294D-03-0.153D-02 0.287D-02 0.157D+00 0.842D+00
 Coeff:     -0.281D-06 0.403D-06 0.468D-06 0.593D-06-0.116D-05 0.153D-05
 Coeff:     -0.356D-04-0.294D-03-0.153D-02 0.287D-02 0.157D+00 0.842D+00
 Gap=     0.200 Goal=   None    Shift=    0.000
 RMSDP=3.36D-09 MaxDP=5.74D-08 DE=-2.27D-13 OVMax= 4.70D-08

 SCF Done:  E(RB3LYP) =  -592.988844035     A.U. after   12 cycles
            NFock= 12  Conv=0.34D-08     -V/T= 2.0046
 KE= 5.902539125888D+02 PE=-1.628720435816D+03 EE= 3.361288045107D+02
 Leave Link  502 at Sun Oct 13 09:51:06 2024, MaxMem=  2684354560 cpu:              35.4 elap:               1.6
 (Enter /usr/local/g16_AVX//g16/l801.exe)
 DoSCS=F DFT=T ScalE2(SS,OS)=  1.000000  1.000000
 Range of M.O.s used for correlation:     1    98
 NBasis=    98 NAE=    20 NBE=    20 NFC=     0 NFV=     0
 NROrb=     98 NOA=    20 NOB=    20 NVA=    78 NVB=    78

 **** Warning!!: The largest alpha MO coefficient is  0.27741514D+02

 Leave Link  801 at Sun Oct 13 09:51:06 2024, MaxMem=  2684354560 cpu:               0.8 elap:               0.1
 (Enter /usr/local/g16_AVX//g16/l1101.exe)
 Using compressed storage, NAtomX=     7.
 Will process      8 centers per pass.
 Leave Link 1101 at Sun Oct 13 09:51:06 2024, MaxMem=  2684354560 cpu:               3.6 elap:               0.2
 (Enter /usr/local/g16_AVX//g16/l1102.exe)
 Symmetrizing basis deriv contribution to polar:
 IMax=3 JMax=2 DiffMx= 0.00D+00
 Leave Link 1102 at Sun Oct 13 09:51:06 2024, MaxMem=  2684354560 cpu:               0.7 elap:               0.1
 (Enter /usr/local/g16_AVX//g16/l1110.exe)
 Forming Gx(P) for the SCF density, NAtomX=     7.
 Integral derivatives from FoFJK, PRISM(SPDF).
 Do as many integral derivatives as possible in FoFJK.
 G2DrvN: MDV=    2684353864.
 G2DrvN: will do     8 centers at a time, making    1 passes.
 Calling FoFCou, ICntrl=  3107 FMM=F I1Cent=   0 AccDes= 0.00D+00.
 FoFJK:  IHMeth= 1 ICntrl=    3107 DoSepK=F KAlg= 0 I1Cent=           0 FoldK=F
 IRaf=         0 NMat=       1 IRICut=       1 DoRegI=T DoRafI=F ISym2E= 0 IDoP0=0 IntGTp=1.
 FoFCou: FMM=F IPFlag=           0 FMFlag=      100000 FMFlg1=           0
         NFxFlg=           0 DoJE=F BraDBF=F KetDBF=F FulRan=T
         wScrn=  0.000000 ICntrl=      3107 IOpCl=  0 I1Cent=           0 NGrid=           0
         NMat0=    1 NMatS0=      1 NMatT0=    0 NMatD0=    1 NMtDS0=    0 NMtDT0=    0
 Symmetry not used in FoFCou.
 End of G2Drv F.D. properties file   721 does not exist.
 End of G2Drv F.D. properties file   722 does not exist.
 End of G2Drv F.D. properties file   788 does not exist.
 Leave Link 1110 at Sun Oct 13 09:51:08 2024, MaxMem=  2684354560 cpu:              38.6 elap:               1.5
 (Enter /usr/local/g16_AVX//g16/l1002.exe)
 Minotr:  Closed shell wavefunction.
          IDoAtm=1111111
          Direct CPHF calculation.
          Differentiating once with respect to electric field.
                with respect to dipole field.
          Differentiating once with respect to nuclear coordinates.
          Requested convergence is 1.0D-08 RMS, and 1.0D-07 maximum.
          Secondary convergence is 1.0D-12 RMS, and 1.0D-12 maximum.
          NewPWx=T KeepS1=F KeepF1=F KeepIn=T MapXYZ=F SortEE=F KeepMc=T.
         2136 words used for storage of precomputed grid.
 Keep R1 ints in memory in canonical form, NReq=35668397.
 FoFCou: FMM=F IPFlag=           0 FMFlag=           0 FMFlg1=           0
         NFxFlg=           0 DoJE=F BraDBF=F KetDBF=F FulRan=T
         wScrn=  0.000000 ICntrl=       600 IOpCl=  0 I1Cent=           0 NGrid=           0
         NMat0=    1 NMatS0=   4851 NMatT0=    0 NMatD0=    1 NMtDS0=    0 NMtDT0=    0
 Symmetry not used in FoFCou.
 Two-electron integral symmetry not used.
          MDV=    2684354560 using IRadAn=       1.
          Solving linear equations simultaneously, MaxMat=       0.
          There are    24 degrees of freedom in the 1st order CPHF.  IDoFFX=6 NUNeed=     3.
     21 vectors produced by pass  0 Test12= 6.50D-15 4.17D-09 XBig12= 1.30D+02 7.27D+00.
 AX will form    21 AO Fock derivatives at one time.
     21 vectors produced by pass  1 Test12= 6.50D-15 4.17D-09 XBig12= 4.31D+01 1.80D+00.
     21 vectors produced by pass  2 Test12= 6.50D-15 4.17D-09 XBig12= 6.59D-01 2.41D-01.
     21 vectors produced by pass  3 Test12= 6.50D-15 4.17D-09 XBig12= 4.73D-03 1.51D-02.
     21 vectors produced by pass  4 Test12= 6.50D-15 4.17D-09 XBig12= 1.90D-05 1.07D-03.
     17 vectors produced by pass  5 Test12= 6.50D-15 4.17D-09 XBig12= 3.39D-08 4.32D-05.
      6 vectors produced by pass  6 Test12= 6.50D-15 4.17D-09 XBig12= 3.20D-11 1.50D-06.
      1 vectors produced by pass  7 Test12= 6.50D-15 4.17D-09 XBig12= 2.84D-14 3.95D-08.
 InvSVY:  IOpt=1 It=  1 EMax= 6.22D-15
 Solved reduced A of dimension   129 with    24 vectors.
 FullF1:  Do perturbations      1 to       3.
 Isotropic polarizability for W=    0.000000       64.35 Bohr**3.
 End of Minotr F.D. properties file   721 does not exist.
 End of Minotr F.D. properties file   722 does not exist.
 End of Minotr F.D. properties file   788 does not exist.
 Leave Link 1002 at Sun Oct 13 09:51:10 2024, MaxMem=  2684354560 cpu:              53.2 elap:               2.1
 (Enter /usr/local/g16_AVX//g16/l601.exe)
 Copying SCF densities to generalized density rwf, IOpCl= 0 IROHF=0.

 **********************************************************************

            Population analysis using the SCF Density.

 **********************************************************************

 Alpha  occ. eigenvalues -- -101.37079 -14.11588 -10.10678  -9.98311  -9.28589
 Alpha  occ. eigenvalues --   -7.04779  -7.04128  -7.04128  -0.67050  -0.65542
 Alpha  occ. eigenvalues --   -0.54053  -0.30310  -0.30307  -0.23481  -0.19249
 Alpha  occ. eigenvalues --   -0.15014  -0.15014  -0.11806  -0.11806  -0.08777
 Alpha virt. eigenvalues --    0.11255   0.12612   0.14859   0.14859   0.16202
 Alpha virt. eigenvalues --    0.19207   0.20559   0.20559   0.22208   0.22210
 Alpha virt. eigenvalues --    0.24912   0.24933   0.24933   0.26284   0.26284
 Alpha virt. eigenvalues --    0.26325   0.31143   0.34258   0.34260   0.37440
 Alpha virt. eigenvalues --    0.37840   0.37840   0.38022   0.46170   0.47321
 Alpha virt. eigenvalues --    0.72000   0.76157   0.76167   0.76167   0.79497
 Alpha virt. eigenvalues --    0.79499   0.88024   0.88025   0.88533   0.98826
 Alpha virt. eigenvalues --    1.01587   1.03155   1.03157   1.07522   1.07524
 Alpha virt. eigenvalues --    1.09600   1.09604   1.12576   1.17795   1.17795
 Alpha virt. eigenvalues --    1.24898   1.33210   1.36865   1.50691   1.59903
 Alpha virt. eigenvalues --    1.59908   1.75963   1.75964   1.78231   1.78231
 Alpha virt. eigenvalues --    1.82841   2.13762   2.16920   2.16936   2.18228
 Alpha virt. eigenvalues --    2.18229   2.18560   2.58211   2.58224   2.59597
 Alpha virt. eigenvalues --    2.81451   2.81451   2.83335   2.94253   2.94274
 Alpha virt. eigenvalues --    3.25632   3.43528   3.56921   3.56939   4.20426
 Alpha virt. eigenvalues --    4.46067   4.48108   4.56502
          Condensed to atoms (all electrons):
               1          2          3          4          5          6
     1  C    5.449015  -0.176289   0.429156   0.429172   0.429172  -0.183664
     2  Cl  -0.176289  17.626027  -0.049921  -0.049902  -0.049902   0.107211
     3  H    0.429156  -0.049921   0.499047  -0.021217  -0.021217  -0.045461
     4  H    0.429172  -0.049902  -0.021217   0.499004  -0.021185  -0.045490
     5  H    0.429172  -0.049902  -0.021217  -0.021185   0.499004  -0.045491
     6  C   -0.183664   0.107211  -0.045461  -0.045490  -0.045491   5.825832
     7  N   -0.017810  -0.003205  -0.001380  -0.001381  -0.001381   0.705640
               7
     1  C   -0.017810
     2  Cl  -0.003205
     3  H   -0.001380
     4  H   -0.001381
     5  H   -0.001381
     6  C    0.705640
     7  N    6.871164
 Mulliken charges:
               1
     1  C   -0.358751
     2  Cl  -0.404019
     3  H    0.210993
     4  H    0.211000
     5  H    0.211000
     6  C   -0.318576
     7  N   -0.551646
 Sum of Mulliken charges =  -1.00000
 Mulliken charges with hydrogens summed into heavy atoms:
               1
     1  C    0.274241
     2  Cl  -0.404019
     6  C   -0.318576
     7  N   -0.551646
 APT charges:
               1
     1  C    1.049087
     2  Cl  -0.945704
     3  H   -0.006220
     4  H   -0.006176
     5  H   -0.006177
     6  C   -0.438627
     7  N   -0.646183
 Sum of APT charges =  -1.00000
 APT charges with hydrogens summed into heavy atoms:
               1
     1  C    1.030514
     2  Cl  -0.945704
     6  C   -0.438627
     7  N   -0.646183
 Electronic spatial extent (au):  <R**2>=            846.5764
 Charge=             -1.0000 electrons
 Dipole moment (field-independent basis, Debye):
    X=             -6.6679    Y=              0.0000    Z=             -0.0005  Tot=              6.6679
 Quadrupole moment (field-independent basis, Debye-Ang):
   XX=            -87.9699   YY=            -35.3178   ZZ=            -35.3188
   XY=              0.0001   XZ=             -0.0009   YZ=              0.0000
 Traceless Quadrupole moment (field-independent basis, Debye-Ang):
   XX=            -35.1011   YY=             17.5510   ZZ=             17.5500
   XY=              0.0001   XZ=             -0.0009   YZ=              0.0000
 Octapole moment (field-independent basis, Debye-Ang**2):
  XXX=           -145.4756  YYY=             -0.0070  ZZZ=             -1.0015  XYY=             -8.5453
  XXY=              0.0003  XXZ=             -0.0080  XZZ=             -8.5459  YZZ=              0.0070
  YYZ=              1.0031  XYZ=              0.0000
 Hexadecapole moment (field-independent basis, Debye-Ang**3):
 XXXX=          -1773.1130 YYYY=            -55.5516 ZZZZ=            -55.5508 XXXY=              0.0016
 XXXZ=             -0.0411 YYYX=             -0.0007 YYYZ=              0.0000 ZZZX=             -0.1515
 ZZZY=             -0.0000 XXYY=           -217.0112 XXZZ=           -217.0112 YYZZ=            -18.5178
 XXYZ=              0.0000 YYXZ=              0.1474 ZZXY=              0.0011
 N-N= 1.093488746820D+02 E-N=-1.628720434847D+03  KE= 5.902539125888D+02
  Exact polarizability: 115.095  -0.000  38.975   0.003  -0.000  38.975
 Approx polarizability: 146.104  -0.000  48.917   0.006   0.000  48.915
 No NMR shielding tensors so no spin-rotation constants.
 Leave Link  601 at Sun Oct 13 09:51:10 2024, MaxMem=  2684354560 cpu:               2.7 elap:               0.1
 (Enter /usr/local/g16_AVX//g16/l701.exe)
 ... and contract with generalized density number  0.
 Compute integral second derivatives.
 Leave Link  701 at Sun Oct 13 09:51:10 2024, MaxMem=  2684354560 cpu:               4.5 elap:               0.2
 (Enter /usr/local/g16_AVX//g16/l702.exe)
 L702 exits ... SP integral derivatives will be done elsewhere.
 Leave Link  702 at Sun Oct 13 09:51:11 2024, MaxMem=  2684354560 cpu:               0.5 elap:               0.0
 (Enter /usr/local/g16_AVX//g16/l703.exe)
 Integral derivatives from FoFJK, PRISM(SPDF).
 Compute integral second derivatives, UseDBF=F ICtDFT=           0.
 Calling FoFJK, ICntrl=    100127 FMM=F ISym2X=0 I1Cent= 0 IOpClX= 0 NMat=1 NMatS=1 NMatT=0.
 FoFJK:  IHMeth= 1 ICntrl=  100127 DoSepK=F KAlg= 0 I1Cent=           0 FoldK=F
 IRaf=         0 NMat=       1 IRICut=       1 DoRegI=T DoRafI=F ISym2E= 0 IDoP0=0 IntGTp=1.
 FoFCou: FMM=F IPFlag=           0 FMFlag=      100000 FMFlg1=         800
         NFxFlg=           0 DoJE=F BraDBF=F KetDBF=F FulRan=T
         wScrn=  0.000000 ICntrl=    100127 IOpCl=  0 I1Cent=           0 NGrid=           0
         NMat0=    1 NMatS0=      1 NMatT0=    0 NMatD0=    1 NMtDS0=    0 NMtDT0=    0
 Symmetry not used in FoFCou.
 Leave Link  703 at Sun Oct 13 09:51:13 2024, MaxMem=  2684354560 cpu:              66.2 elap:               2.6
 (Enter /usr/local/g16_AVX//g16/l716.exe)
 Dipole        =-2.62335273D+00 7.28334486D-06-1.90911953D-04
 Polarizability= 1.15094601D+02-6.18458054D-05 3.89752942D+01
                 3.00203286D-03-2.50564383D-06 3.89751478D+01
 Full mass-weighted force constant matrix:
 Low frequencies --- -220.8410  -58.1320  -58.1237  -16.0606  -16.0579   -0.0031
 Low frequencies ---    0.0030    0.0038  116.6808
 ******    3 imaginary frequencies (negative Signs) ****** 
 Diagonal vibrational polarizability:
      490.3464403      17.8766747      17.8787732
 Harmonic frequencies (cm**-1), IR intensities (KM/Mole), Raman scattering
 activities (A**4/AMU), depolarization ratios for plane and unpolarized
 incident light, reduced masses (AMU), force constants (mDyne/A),
 and normal coordinates:
                      1                      2                      3
                      A                      A                      A
 Frequencies --   -220.8410               -55.0248               -55.0164
 Red. masses --     10.6762                 9.1440                 9.1438
 Frc consts  --      0.3068                 0.0163                 0.0163
 IR Inten    --    858.7673                 1.2397                 1.2396
  Atom  AN      X      Y      Z        X      Y      Z        X      Y      Z
     1   6     0.83   0.00   0.00     0.00   0.26  -0.01    -0.00   0.01   0.26
     2  17    -0.10  -0.00  -0.00     0.00  -0.11   0.00    -0.00  -0.00  -0.11
     3   1     0.20   0.00  -0.10    -0.00   0.30  -0.01     0.19   0.01   0.30
     4   1     0.20   0.09   0.05    -0.17   0.30  -0.01    -0.10   0.00   0.30
     5   1     0.20  -0.09   0.05     0.17   0.30  -0.00    -0.09   0.01   0.30
     6   6    -0.27  -0.00   0.00     0.00   0.58  -0.01    -0.00   0.01   0.58
     7   7    -0.28   0.00  -0.00    -0.00  -0.50   0.01     0.00  -0.01  -0.50
                      4                      5                      6
                      A                      A                      A
 Frequencies --    229.9934               229.9948               245.2262
 Red. masses --      4.4903                 4.4904                18.5215
 Frc consts  --      0.1399                 0.1399                 0.6562
 IR Inten    --     13.3440                13.3435                33.2753
  Atom  AN      X      Y      Z        X      Y      Z        X      Y      Z
     1   6     0.00   0.44  -0.05    -0.00   0.05   0.44    -0.25   0.00  -0.00
     2  17    -0.00  -0.10   0.01     0.00  -0.01  -0.10     0.51  -0.00   0.00
     3   1    -0.01   0.47  -0.05     0.13   0.05   0.48     0.04  -0.00   0.05
     4   1    -0.11   0.48  -0.04    -0.08   0.06   0.47     0.04  -0.05  -0.03
     5   1     0.12   0.48  -0.06    -0.05   0.05   0.47     0.04   0.05  -0.03
     6   6     0.00  -0.30   0.03    -0.00  -0.03  -0.30    -0.57  -0.00   0.00
     7   7     0.00   0.03  -0.00    -0.00   0.00   0.03    -0.58   0.00  -0.00
                      7                      8                      9
                      A                      A                      A
 Frequencies --    982.4800               982.5720              1149.7771
 Red. masses --      1.0569                 1.0569                 1.0561
 Frc consts  --      0.6011                 0.6012                 0.8226
 IR Inten    --      0.0178                 0.0177                76.2310
  Atom  AN      X      Y      Z        X      Y      Z        X      Y      Z
     1   6    -0.00   0.00  -0.06     0.00  -0.06  -0.00    -0.05  -0.00   0.00
     2  17    -0.00  -0.00   0.01    -0.00   0.01   0.00    -0.02   0.00   0.00
     3   1     0.80  -0.00   0.09    -0.00   0.14   0.00     0.57  -0.00   0.10
     4   1    -0.40  -0.02   0.13    -0.69   0.10  -0.02     0.57  -0.09  -0.05
     5   1    -0.40   0.02   0.13     0.69   0.10   0.02     0.57   0.09  -0.05
     6   6     0.00   0.00  -0.01    -0.00  -0.01  -0.00    -0.01  -0.00   0.00
     7   7     0.00  -0.00   0.00     0.00   0.00   0.00    -0.02   0.00  -0.00
                     10                     11                     12
                      A                      A                      A
 Frequencies --   1425.4398              1425.5504              2174.4385
 Red. masses --      1.0869                 1.0869                12.7771
 Frc consts  --      1.3012                 1.3014                35.5939
 IR Inten    --      5.0994                 5.0942                 6.4539
  Atom  AN      X      Y      Z        X      Y      Z        X      Y      Z
     1   6    -0.00  -0.00  -0.08    -0.00  -0.08   0.00    -0.00   0.00   0.00
     2  17    -0.00  -0.00  -0.00    -0.00  -0.00   0.00    -0.00  -0.00   0.00
     3   1    -0.18   0.01  -0.10     0.00   0.79   0.00    -0.04   0.00  -0.01
     4   1     0.09  -0.39   0.56     0.15   0.13  -0.39    -0.04   0.01   0.00
     5   1     0.09   0.39   0.57    -0.15   0.11   0.38    -0.04  -0.01   0.00
     6   6    -0.00   0.00   0.00     0.00   0.00  -0.00     0.76  -0.00   0.00
     7   7    -0.00   0.00   0.00    -0.00   0.00  -0.00    -0.64   0.00  -0.00
                     13                     14                     15
                      A                      A                      A
 Frequencies --   3171.1726              3345.7731              3345.8711
 Red. masses --      1.0139                 1.1195                 1.1195
 Frc consts  --      6.0076                 7.3836                 7.3839
 IR Inten    --      2.9497                 0.5465                 0.5423
  Atom  AN      X      Y      Z        X      Y      Z        X      Y      Z
     1   6     0.02  -0.00   0.00    -0.00  -0.10   0.00    -0.00  -0.00  -0.10
     2  17    -0.00   0.00  -0.00     0.00   0.00  -0.00    -0.00   0.00   0.00
     3   1    -0.09  -0.00   0.57     0.00  -0.02  -0.01    -0.15  -0.00   0.80
     4   1    -0.10  -0.49  -0.29     0.13   0.59   0.35     0.08   0.36   0.19
     5   1    -0.10   0.49  -0.28    -0.13   0.60  -0.35     0.07  -0.34   0.18
     6   6     0.00   0.00  -0.00    -0.00   0.00  -0.00     0.00   0.00   0.00
     7   7     0.00  -0.00   0.00    -0.00  -0.00   0.00     0.00  -0.00  -0.00

 -------------------
 - Thermochemistry -
 -------------------
 Temperature   298.150 Kelvin.  Pressure   1.00000 Atm.
 Atom     1 has atomic number  6 and mass  12.00000
 Atom     2 has atomic number 17 and mass  34.96885
 Atom     3 has atomic number  1 and mass   1.00783
 Atom     4 has atomic number  1 and mass   1.00783
 Atom     5 has atomic number  1 and mass   1.00783
 Atom     6 has atomic number  6 and mass  12.00000
 Atom     7 has atomic number  7 and mass  14.00307
 Molecular mass:    75.99540 amu.
 Principal axes and moments of inertia in atomic units:
                           1         2         3
     Eigenvalues --    12.098211455.845401455.84748
           X            1.00000   0.00000  -0.00001
           Y           -0.00000   1.00000  -0.00291
           Z            0.00001   0.00291   1.00000
 This molecule is an asymmetric top.
 Rotational symmetry number  1.
 Rotational temperatures (Kelvin)      7.15924     0.05949     0.05949
 Rotational constants (GHZ):         149.17429     1.23965     1.23965
    3 imaginary frequencies ignored.
 Zero-point vibrational energy     111900.4 (Joules/Mol)
                                   26.74484 (Kcal/Mol)
 Warning -- explicit consideration of   3 degrees of freedom as
           vibrations may cause significant error
 Vibrational temperatures:    330.91   330.91   352.83  1413.57  1413.70
          (Kelvin)           1654.27  2050.89  2051.05  3128.53  4562.61
                             4813.82  4813.96
 
 Zero-point correction=                           0.042621 (Hartree/Particle)
 Thermal correction to Energy=                    0.047090
 Thermal correction to Enthalpy=                  0.048034
 Thermal correction to Gibbs Free Energy=         0.015031
 Sum of electronic and zero-point Energies=           -592.946223
 Sum of electronic and thermal Energies=              -592.941754
 Sum of electronic and thermal Enthalpies=            -592.940810
 Sum of electronic and thermal Free Energies=         -592.973813
 
                     E (Thermal)             CV                S
                      KCal/Mol        Cal/Mol-Kelvin    Cal/Mol-Kelvin
 Total                   29.549             12.556             69.460
 Electronic               0.000              0.000              0.000
 Translational            0.889              2.981             38.900
 Rotational               0.889              2.981             24.753
 Vibrational             27.772              6.595              5.807
 Vibration     1          0.652              1.795              1.879
 Vibration     2          0.652              1.795              1.879
 Vibration     3          0.660              1.771              1.765
                       Q            Log10(Q)             Ln(Q)
 Total Bot       0.121951D-06         -6.913814        -15.919644
 Total V=0       0.490109D+13         12.690293         29.220479
 Vib (Bot)       0.817015D-19        -19.087770        -43.951215
 Vib (Bot)    1  0.856367D+00         -0.067340         -0.155056
 Vib (Bot)    2  0.856361D+00         -0.067343         -0.155063
 Vib (Bot)    3  0.797669D+00         -0.098177         -0.226062
 Vib (V=0)       0.328349D+01          0.516336          1.188908
 Vib (V=0)    1  0.149165D+01          0.173666          0.399881
 Vib (V=0)    2  0.149164D+01          0.173665          0.399878
 Vib (V=0)    3  0.144142D+01          0.158791          0.365630
 Electronic      0.100000D+01          0.000000          0.000000
 Translational   0.260396D+08          7.415635         17.075130
 Rotational      0.573220D+05          4.758322         10.956440
 
                                                       RxCoord=0.99975 DE=52.93
                                                             IR Spectrum
 
      3     3                                     2                           1          1                                           
      3     1                                     1                           4          1     9                           22        
      4     7                                     7                           2          5     8                           43        
      6     1                                     4                           5          0     2                           50        
 
      X     X                                     X                           X          X                                 XX        
                                                  X                           X          X                                 XX        
                                                                              X          X                                 XX        
                                                                                         X                                 XX        
                                                                                         X                                 XX        
                                                                                         X                                 XX        
                                                                                         X                                 XX        
                                                                                         X                                 X         
                                                                                         X                                 X         
                                                                                         X                                           
                                                                                         X                                           
                                                                                         X                                           
                                                                                         X                                           
                                                                                         X                                           
                                                                                         X                                           
                                                                                         X                                           
                                                                                         X                                           
                                                                                         X                                           
                                                                                         X                                           
                                                                                         X                                           
 
 -------------------------------------------------------------------
 Center     Atomic                   Forces (Hartrees/Bohr)
 Number     Number              X              Y              Z
 -------------------------------------------------------------------
      1        6          -0.011569142   -0.000000573   -0.000007911
      2       17           0.003446476    0.000000220    0.000006025
      3        1           0.000209235   -0.000002318    0.001011050
      4        1           0.000190833   -0.000908346   -0.000504879
      5        1           0.000191061    0.000910966   -0.000500705
      6        6           0.002815932    0.000000093   -0.000005161
      7        7           0.004715605   -0.000000041    0.000001582
 -------------------------------------------------------------------
 Cartesian Forces:  Max     0.011569142 RMS     0.002921099
 Z-matrix is all fixed cartesians, so copy forces.
 Force constants in Cartesian coordinates: 
                1             2             3             4             5 
      1  0.302437D-01
      2  0.000000D+00  0.657367D+00
      3  0.102585D-03  0.000000D+00  0.657297D+00
      4  0.209804D-01  0.000000D+00 -0.166138D-05  0.685605D-01
      5  0.000000D+00 -0.271645D-01  0.000000D+00  0.000000D+00  0.151576D-01
      6 -0.245815D-05  0.000000D+00 -0.271605D-01 -0.961083D-05  0.000000D+00
      7 -0.262974D-01 -0.144897D-03  0.623904D-01 -0.215858D-01 -0.307992D-04
      8 -0.135164D-03 -0.521412D-01  0.719566D-03  0.119800D-04  0.348862D-03
      9  0.581669D-01  0.719564D-03 -0.361931D+00 -0.516496D-02 -0.124882D-04
     10 -0.263437D-01 -0.540565D-01 -0.313707D-01 -0.215793D-01 -0.114171D-01
     11 -0.503978D-01 -0.283834D+00 -0.134438D+00  0.447050D-02  0.437198D-02
     12 -0.292513D-01 -0.134430D+00 -0.130154D+00  0.259807D-02  0.233611D-02
     13 -0.263434D-01  0.542014D-01 -0.311192D-01 -0.215797D-01  0.114478D-01
     14  0.505330D-01 -0.285079D+00  0.133718D+00 -0.448260D-02  0.439362D-02
     15 -0.290170D-01  0.133710D+00 -0.128907D+00  0.257733D-02 -0.232353D-02
     16  0.108610D-01  0.000000D+00  0.000000D+00 -0.145165D-01  0.000000D+00
     17  0.000000D+00 -0.117947D-01  0.000000D+00  0.000000D+00  0.348497D-02
     18 -0.711686D-05  0.000000D+00 -0.117912D-01  0.652253D-05  0.000000D+00
     19  0.168993D-01  0.000000D+00 -0.218365D-05 -0.102797D-01  0.000000D+00
     20  0.000000D+00  0.264657D-02  0.000000D+00  0.000000D+00 -0.592485D-03
     21  0.838488D-05  0.000000D+00  0.264627D-02 -0.569745D-05  0.000000D+00
                6             7             8             9            10 
      6  0.151601D-01
      7  0.132071D-01  0.522102D-01
      8 -0.123900D-04  0.139532D-03  0.456155D-01
      9  0.572454D-02 -0.600335D-01 -0.753808D-03  0.370115D+00
     10 -0.662464D-02  0.228456D-02  0.443651D-02  0.333474D-02  0.522602D-01
     11  0.233425D-02 -0.644096D-03  0.367636D-02  0.350303D-02  0.520143D-01
     12  0.170271D-02 -0.551942D-02 -0.239171D-01 -0.823232D-02  0.301822D-01
     13 -0.657167D-02  0.228460D-02 -0.445197D-02  0.331412D-02  0.228359D-02
     14 -0.232172D-02  0.669748D-03  0.358117D-02 -0.344805D-02  0.510467D-02
     15  0.168116D-02 -0.551644D-02  0.239720D-01 -0.813717D-02  0.220392D-02
     16  0.000000D+00 -0.782982D-02  0.000000D+00 -0.196555D-03 -0.783811D-02
     17  0.000000D+00  0.120373D-04 -0.144069D-02 -0.109581D-04  0.449210D-02
     18  0.348445D-02 -0.519083D-02 -0.109460D-04  0.327085D-02  0.260854D-02
     19  0.000000D+00 -0.106642D-02 -0.134056D-05  0.579266D-03 -0.106726D-02
     20  0.000000D+00 -0.152476D-05  0.360015D-03  0.270935D-05 -0.574028D-03
     21 -0.592409D-03  0.662729D-03  0.271733D-05 -0.809902D-03 -0.334056D-03
               11            12            13            14            15 
     11  0.288297D+00
     12  0.140825D+00  0.127336D+00
     13 -0.511480D-02  0.218015D-02  0.522604D-01
     14 -0.140800D-01  0.136505D-01 -0.521538D-01  0.289602D+00
     15 -0.137603D-01  0.953674D-02  0.299404D-01 -0.140070D+00  0.126030D+00
     16  0.172499D-03  0.100717D-03 -0.783822D-02 -0.172972D-03  0.999224D-04
     17  0.208427D-02  0.204352D-02 -0.450419D-02  0.210330D-02 -0.203260D-02
     18  0.204459D-02 -0.254012D-03  0.258766D-02 -0.203367D-02 -0.272895D-03
     19 -0.500620D-03 -0.290429D-03 -0.106729D-02  0.501962D-03 -0.288083D-03
     20 -0.515415D-03 -0.507873D-03  0.575616D-03 -0.520151D-03  0.505160D-03
     21 -0.508191D-03  0.649623D-04 -0.331384D-03  0.505468D-03  0.696711D-04
               16            17            18            19            20 
     16  0.117592D+01
     17 -0.116179D-04  0.590503D-02
     18  0.400732D-03  0.000000D+00  0.590554D-02
     19 -0.114876D+01  0.116553D-04 -0.405501D-03  0.114534D+01
     20  0.116795D-04 -0.342230D-03  0.000000D+00 -0.116654D-04 -0.103630D-02
     21 -0.406014D-03  0.000000D+00 -0.342763D-03  0.406037D-03  0.000000D+00
               21 
     21 -0.103583D-02
 Leave Link  716 at Sun Oct 13 09:51:13 2024, MaxMem=  2684354560 cpu:               0.9 elap:               0.1
 (Enter /usr/local/g16_AVX//g16/l103.exe)

 GradGradGradGradGradGradGradGradGradGradGradGradGradGradGradGradGradGrad
 Berny optimization.
 Search for a local minimum.
 Step number   1 out of a maximum of    2
 All quantities printed in internal units (Hartrees-Bohrs-Radians)
 Second derivative matrix not updated -- analytic derivatives used.
 ITU=  0
     Eigenvalues ---   -0.02148  -0.00119  -0.00119   0.01238   0.01238
     Eigenvalues ---    0.04167   0.04691   0.04692   0.08799   0.10759
     Eigenvalues ---    0.10760   0.40922   0.96315   0.96320   2.30853
 Eigenvalue     1 is  -2.15D-02 should be greater than     0.000000 Eigenvector:
                          X1        X7        X6        X2        X4
   1                    0.82472  -0.32366  -0.31673  -0.18443   0.12415
                          X5        X3        Z3        Y5        Y4
   1                    0.12415   0.12412  -0.10710  -0.09304   0.09279
 Eigenvalue     2 is  -1.19D-03 should be greater than     0.000000 Eigenvector:
                          Y7        Y6        Y3        Y2        Y4
   1                    0.60604  -0.57281  -0.22786   0.22534  -0.22468
                          Y5        X5        Y1        X4        Z7
   1                   -0.22457  -0.18470  -0.18467   0.17988  -0.01245
 Eigenvalue     3 is  -1.19D-03 should be greater than     0.000000 Eigenvector:
                          Z7        Z6        Z5        Z4        Z2
   1                    0.60603  -0.57279  -0.22702  -0.22688   0.22534
                          Z3        X3        Z1        X4        X5
   1                   -0.22320  -0.21047  -0.18467   0.10951   0.10118
 Quadratic step=6.018D-01 exceeds max=3.000D-01 adjusted using Lamda=-2.181D-02.
 Angle between NR and scaled steps=   2.20 degrees.
 Angle between quadratic step and forces=  10.38 degrees.
 Linear search not attempted -- first point.
 B after Tr=     0.012107    0.000001   -0.000009
         Rot=    1.000000    0.000000   -0.000002    0.000000 Ang=  -0.00 deg.
 Variable       Old X    -DE/DX   Delta X   Delta X   Delta X     New X
                                 (Linear)    (Quad)   (Total)
    X1       -0.23808  -0.01157   0.00000  -0.25977  -0.24766  -0.48574
    Y1        0.00001  -0.00000   0.00000  -0.00000  -0.00000   0.00001
    Z1       -0.00028  -0.00001   0.00000  -0.00005  -0.00006  -0.00034
    X2       -4.11791   0.00345   0.00000   0.06725   0.07935  -4.03856
    Y2       -0.00000   0.00000   0.00000   0.00000   0.00000   0.00000
    Z2        0.00009   0.00001   0.00000   0.00001   0.00002   0.00011
    X3        0.15505   0.00021   0.00000  -0.01794  -0.00584   0.14921
    Y3        0.00466  -0.00000   0.00000  -0.00008  -0.00008   0.00458
    Z3       -2.00068   0.00101   0.00000   0.03578   0.03577  -1.96492
    X4        0.15578   0.00019   0.00000  -0.01824  -0.00613   0.14965
    Y4        1.73019  -0.00091   0.00000  -0.03117  -0.03117   1.69903
    Z4        1.00361  -0.00050   0.00000  -0.01788  -0.01789   0.98573
    X5        0.15578   0.00019   0.00000  -0.01824  -0.00613   0.14965
    Y5       -1.73481   0.00091   0.00000   0.03124   0.03125  -1.70357
    Z5        0.99556  -0.00050   0.00000  -0.01773  -0.01774   0.97782
    X6        4.43143   0.00282   0.00000   0.07986   0.09197   4.52339
    Y6        0.00001   0.00000   0.00000   0.00000   0.00000   0.00001
    Z6       -0.00035  -0.00001   0.00000  -0.00010  -0.00013  -0.00048
    X7        6.65627   0.00472   0.00000   0.08233   0.09444   6.75071
    Y7       -0.00002  -0.00000   0.00000  -0.00000  -0.00000  -0.00002
    Z7        0.00044   0.00000   0.00000   0.00006   0.00002   0.00046
         Item               Value     Threshold  Converged?
 Maximum Force            0.011569     0.000450     NO 
 RMS     Force            0.002921     0.000300     NO 
 Maximum Displacement     0.247661     0.001800     NO 
 RMS     Displacement     0.065093     0.001200     NO 
 Predicted change in Energy=-4.850031D-03
 GradGradGradGradGradGradGradGradGradGradGradGradGradGradGradGradGradGrad

 Leave Link  103 at Sun Oct 13 09:51:13 2024, MaxMem=  2684354560 cpu:               0.8 elap:               0.1
 (Enter /usr/local/g16_AVX//g16/l9999.exe)

 ----------------------------------------------------------------------

 Electric dipole moment (input orientation):
 (Debye = 10**-18 statcoulomb cm , SI units = C m)
                  (au)            (Debye)         (10**-30 SI)
   Tot        0.262335D+01      0.666790D+01      0.222417D+02
   x         -0.262335D+01     -0.666790D+01     -0.222417D+02
   y          0.000000D+00      0.000000D+00      0.000000D+00
   z         -0.190912D-03     -0.485250D-03     -0.161862D-02

 Dipole polarizability, Alpha (input orientation).
 (esu units = cm**3 , SI units = C**2 m**2 J**-1)
 Alpha(0;0):
               (au)            (10**-24 esu)      (10**-40 SI)
   iso        0.643483D+02      0.953544D+01      0.106096D+02
   aniso      0.761194D+02      0.112797D+02      0.125504D+02
   xx         0.115095D+03      0.170553D+02      0.189765D+02
   yx        -0.618458D-04     -0.916460D-05     -0.101970D-04
   yy         0.389753D+02      0.577554D+01      0.642616D+01
   zx         0.300203D-02      0.444855D-03      0.494968D-03
   zy         0.000000D+00      0.000000D+00      0.000000D+00
   zz         0.389751D+02      0.577552D+01      0.642613D+01

 ----------------------------------------------------------------------

 Dipole orientation:
     6         -0.00026235          0.00001257          0.23807528
    17          0.00038471         -0.00001332          4.11791352
     1         -2.00069455          0.00466794         -0.15490642
     1          1.00360433          1.73018931         -0.15584970
     1          0.99554070         -1.73481627         -0.15585873
     6         -0.00067587          0.00001986         -4.43142851
     7         -0.00004788          0.00000336         -6.65626927

 Electric dipole moment (dipole orientation):
 (Debye = 10**-18 statcoulomb cm , SI units = C m)
                  (au)            (Debye)         (10**-30 SI)
   Tot        0.262335D+01      0.666790D+01      0.222417D+02
   x          0.000000D+00      0.000000D+00      0.000000D+00
   y          0.000000D+00      0.000000D+00      0.000000D+00
   z          0.262335D+01      0.666790D+01      0.222417D+02

 Dipole polarizability, Alpha (dipole orientation).
 (esu units = cm**3 , SI units = C**2 m**2 J**-1)
 Alpha(0;0):
               (au)            (10**-24 esu)      (10**-40 SI)
   iso        0.643483D+02      0.953544D+01      0.106096D+02
   aniso      0.761194D+02      0.112797D+02      0.125504D+02
   xx         0.389751D+02      0.577552D+01      0.642613D+01
   yx         0.000000D+00      0.000000D+00      0.000000D+00
   yy         0.389753D+02      0.577554D+01      0.642616D+01
   zx         0.253749D-02      0.376017D-03      0.418375D-03
   zy        -0.149495D-03     -0.221529D-04     -0.246484D-04
   zz         0.115095D+03      0.170553D+02      0.189765D+02

 ----------------------------------------------------------------------
 1\1\GINC-NODO10\Freq\RB3LYP\6-31++G(d,p)\C2H3Cl1N1(1-)\ALANQF\13-Oct-2
 024\0\\#p b3lyp 6-31++g(d,p) scf=verytight NoSymm freq=noraman int=ult
 rafine\\RxCoord=0.99975 DE=52.93\\-1,1\C,-0.125984,0.000007,-0.000148\
 Cl,-2.179106,-0.000001,0.000045\H,0.08205,0.002467,-1.058716\H,0.08243
 6,0.915578,0.531088\H,0.082436,-0.918024,0.526826\C,2.345011,0.000004,
 -0.000187\N,3.522346,-0.000008,0.000231\\Version=ES64L-G16RevB.01\HF=-
 592.988844\RMSD=3.361e-09\RMSF=2.921e-03\ZeroPoint=0.0426206\Thermal=0
 .0470898\Dipole=-2.5665299,0.000008,-0.0002117\DipoleDeriv=2.9946163,0
 .0000044,-0.0001411,0.0000052,0.0762959,0.0000002,-0.0002875,0.0000001
 ,0.0763475,-1.9608705,-0.0000013,0.0000809,-0.000006,-0.4381247,0.,0.0
 000758,0.,-0.438117,-0.1180474,0.0000142,-0.0063603,0.0000657,0.071414
 9,0.0001007,-0.0283852,0.0001009,0.0279728,-0.1180056,0.0055119,0.0032
 036,0.0246242,0.038981,-0.0188454,0.0143392,-0.0188198,0.0604973,-0.11
 80078,-0.0055282,0.0031782,-0.0246898,0.0388062,0.0187444,0.0142241,0.
 0187188,0.0606719,-0.5719545,-0.0000031,0.0001094,-0.0000086,-0.371962
 ,0.,0.0003736,0.,-0.3719658,-1.1077305,0.0000022,-0.0000707,0.0000093,
 -0.4154113,0.,-0.0003398,0.,-0.4154067\Polar=115.0946006,-0.0000618,38
 .9752942,0.003002,-0.0000025,38.9751478\Quadrupole=-26.096773,13.04877
 25,13.0480005,0.000046,-0.0006827,0.0000023\PG=C01 [X(C2H3Cl1N1)]\NIma
 g=3\\0.03024365,-0.00000027,0.65736703,0.00010259,0.00000085,0.6572967
 0,0.02098044,0.00000016,-0.00000166,0.06856050,0.00000026,-0.02716451,
 -0.00000001,-0.00000003,0.01515756,-0.00000246,-0.00000005,-0.02716054
 ,-0.00000961,-0.00000008,0.01516010,-0.02629736,-0.00014490,0.06239040
 ,-0.02158578,-0.00003080,0.01320709,0.05221022,-0.00013516,-0.05214119
 ,0.00071957,0.00001198,0.00034886,-0.00001239,0.00013953,0.04561548,0.
 05816690,0.00071956,-0.36193061,-0.00516496,-0.00001249,0.00572454,-0.
 06003352,-0.00075381,0.37011461,-0.02634373,-0.05405645,-0.03137071,-0
 .02157925,-0.01141711,-0.00662464,0.00228456,0.00443651,0.00333474,0.0
 5226020,-0.05039779,-0.28383385,-0.13443837,0.00447050,0.00437198,0.00
 233425,-0.00064410,0.00367636,0.00350303,0.05201430,0.28829670,-0.0292
 5128,-0.13443007,-0.13015364,0.00259807,0.00233611,0.00170271,-0.00551
 942,-0.02391714,-0.00823232,0.03018219,0.14082496,0.12733556,-0.026343
 36,0.05420140,-0.03111924,-0.02157970,0.01144776,-0.00657167,0.0022846
 0,-0.00445197,0.00331412,0.00228359,-0.00511480,0.00218015,0.05226038,
 0.05053302,-0.28507940,0.13371796,-0.00448260,0.00439362,-0.00232172,0
 .00066975,0.00358117,-0.00344805,0.00510467,-0.01408005,0.01365049,-0.
 05215382,0.28960151,-0.02901702,0.13370970,-0.12890702,0.00257733,-0.0
 0232353,0.00168116,-0.00551644,0.02397200,-0.00813717,0.00220392,-0.01
 376027,0.00953674,0.02994036,-0.14007047,0.12602953,0.01086104,0.,0.00
 000081,-0.01451650,-0.00000004,0.00000039,-0.00782982,0.00000045,-0.00
 019655,-0.00783811,0.00017250,0.00010072,-0.00783822,-0.00017297,0.000
 09992,1.17592124,0.00000018,-0.01179465,0.,-0.00000017,0.00348497,0.,0
 .00001204,-0.00144069,-0.00001096,0.00449210,0.00208427,0.00204352,-0.
 00450419,0.00210330,-0.00203260,-0.00001162,0.00590503,-0.00000712,0.,
 -0.01179117,0.00000652,0.,0.00348445,-0.00519083,-0.00001095,0.0032708
 5,0.00260854,0.00204459,-0.00025401,0.00258766,-0.00203367,-0.00027289
 ,0.00040073,0.00000003,0.00590554,0.01689931,0.00000006,-0.00000218,-0
 .01027972,-0.00000005,0.00000089,-0.00106642,-0.00000134,0.00057927,-0
 .00106726,-0.00050062,-0.00029043,-0.00106729,0.00050196,-0.00028808,-
 1.14875964,0.00001166,-0.00040550,1.14534101,-0.00000024,0.00264657,0.
 ,0.00000016,-0.00059248,0.,-0.00000152,0.00036002,0.00000271,-0.000574
 03,-0.00051542,-0.00050787,0.00057562,-0.00052015,0.00050516,0.0000116
 8,-0.00034223,0.,-0.00001167,-0.00103630,0.00000838,0.,0.00264627,-0.0
 0000570,0.,-0.00059241,0.00066273,0.00000272,-0.00080990,-0.00033406,-
 0.00050819,0.00006496,-0.00033138,0.00050547,0.00006967,-0.00040601,0.
 ,-0.00034276,0.00040604,0.,-0.00103583\\0.01156914,0.00000057,0.000007
 91,-0.00344648,-0.00000022,-0.00000602,-0.00020923,0.00000232,-0.00101
 105,-0.00019083,0.00090835,0.00050488,-0.00019106,-0.00091097,0.000500
 71,-0.00281593,-0.00000009,0.00000516,-0.00471560,0.00000004,-0.000001
 58\\\@


 IT IS BY LOGIC THAT WE PROVE, BUT BY INTUITION THAT WE DISCOVER.
     -- J.H.POINCARE (1854-1912)
 Job cpu time:       0 days  0 hours  3 minutes 46.3 seconds.
 Elapsed time:       0 days  0 hours  0 minutes  9.7 seconds.
 File lengths (MBytes):  RWF=     88 Int=      0 D2E=      0 Chk=      2 Scr=      2
 Normal termination of Gaussian 16 at Sun Oct 13 09:51:14 2024.
