 Entering Gaussian System, Link 0=g16
 Initial command:
 /usr/local/g16_AVX//g16/l1.exe "/scratch/alanqf/0112-54554.ixchel.mda.cinvestav.mx/Gau-24258.inp" -scrdir="/scratch/alanqf/0112-54554.ixchel.mda.cinvestav.mx/"
 Entering Link 1 = /usr/local/g16_AVX//g16/l1.exe PID=     24259.
  
 Copyright (c) 1988-2017, Gaussian, Inc.  All Rights Reserved.
  
 This is part of the Gaussian(R) 16 program.  It is based on
 the Gaussian(R) 09 system (copyright 2009, Gaussian, Inc.),
 the Gaussian(R) 03 system (copyright 2003, Gaussian, Inc.),
 the Gaussian(R) 98 system (copyright 1998, Gaussian, Inc.),
 the Gaussian(R) 94 system (copyright 1995, Gaussian, Inc.),
 the Gaussian 92(TM) system (copyright 1992, Gaussian, Inc.),
 the Gaussian 90(TM) system (copyright 1990, Gaussian, Inc.),
 the Gaussian 88(TM) system (copyright 1988, Gaussian, Inc.),
 the Gaussian 86(TM) system (copyright 1986, Carnegie Mellon
 University), and the Gaussian 82(TM) system (copyright 1983,
 Carnegie Mellon University). Gaussian is a federally registered
 trademark of Gaussian, Inc.
  
 This software contains proprietary and confidential information,
 including trade secrets, belonging to Gaussian, Inc.
  
 This software is provided under written license and may be
 used, copied, transmitted, or stored only in accord with that
 written license.
  
 The following legend is applicable only to US Government
 contracts under FAR:
  
                    RESTRICTED RIGHTS LEGEND
  
 Use, reproduction and disclosure by the US Government is
 subject to restrictions as set forth in subparagraphs (a)
 and (c) of the Commercial Computer Software - Restricted
 Rights clause in FAR 52.227-19.
  
 Gaussian, Inc.
 340 Quinnipiac St., Bldg. 40, Wallingford CT 06492
  
  
 ---------------------------------------------------------------
 Warning -- This program may not be used in any manner that
 competes with the business of Gaussian, Inc. or will provide
 assistance to any competitor of Gaussian, Inc.  The licensee
 of this program is prohibited from giving any competitor of
 Gaussian, Inc. access to this program.  By using this program,
 the user acknowledges that Gaussian, Inc. is engaged in the
 business of creating and licensing software in the field of
 computational chemistry and represents and warrants to the
 licensee that it is not a competitor of Gaussian, Inc. and that
 it will not use this program in any manner prohibited above.
 ---------------------------------------------------------------
  

 Cite this work as:
 Gaussian 16, Revision B.01,
 M. J. Frisch, G. W. Trucks, H. B. Schlegel, G. E. Scuseria, 
 M. A. Robb, J. R. Cheeseman, G. Scalmani, V. Barone, 
 G. A. Petersson, H. Nakatsuji, X. Li, M. Caricato, A. V. Marenich, 
 J. Bloino, B. G. Janesko, R. Gomperts, B. Mennucci, H. P. Hratchian, 
 J. V. Ortiz, A. F. Izmaylov, J. L. Sonnenberg, D. Williams-Young, 
 F. Ding, F. Lipparini, F. Egidi, J. Goings, B. Peng, A. Petrone, 
 T. Henderson, D. Ranasinghe, V. G. Zakrzewski, J. Gao, N. Rega, 
 G. Zheng, W. Liang, M. Hada, M. Ehara, K. Toyota, R. Fukuda, 
 J. Hasegawa, M. Ishida, T. Nakajima, Y. Honda, O. Kitao, H. Nakai, 
 T. Vreven, K. Throssell, J. A. Montgomery, Jr., J. E. Peralta, 
 F. Ogliaro, M. J. Bearpark, J. J. Heyd, E. N. Brothers, K. N. Kudin, 
 V. N. Staroverov, T. A. Keith, R. Kobayashi, J. Normand, 
 K. Raghavachari, A. P. Rendell, J. C. Burant, S. S. Iyengar, 
 J. Tomasi, M. Cossi, J. M. Millam, M. Klene, C. Adamo, R. Cammi, 
 J. W. Ochterski, R. L. Martin, K. Morokuma, O. Farkas, 
 J. B. Foresman, and D. J. Fox, Gaussian, Inc., Wallingford CT, 2016.
 
 ******************************************
 Gaussian 16:  ES64L-G16RevB.01 20-Dec-2017
                13-Oct-2024 
 ******************************************
 %NProcShared=26
 Will use up to   26 processors via shared memory.
 %MEM=20GB
 %chk=CHKfiles/0112.chk
 ---------------------------------------------------------------------
 #p b3lyp 6-31++g(d,p) scf=verytight NoSymm freq=noraman int=ultrafine
 ---------------------------------------------------------------------
 1/10=4,30=1,38=1/1,3;
 2/12=2,15=1,17=6,18=5,40=1/2;
 3/5=1,6=6,7=1111,11=2,25=1,30=1,71=2,74=-5,75=-5,140=1/1,2,3;
 4//1;
 5/5=2,17=3,38=5,98=1/2;
 8/6=4,10=90,11=11/1;
 11/6=1,8=1,9=11,15=111,16=1,31=1/1,2,10;
 10/6=1,31=1/2;
 6/7=2,8=2,9=2,10=2,28=1/1;
 7/8=1,10=1,25=1,30=1/1,2,3,16;
 1/10=4,30=1/3;
 99//99;
 Leave Link    1 at Sun Oct 13 09:51:04 2024, MaxMem=  2684354560 cpu:               1.3 elap:               0.1
 (Enter /usr/local/g16_AVX//g16/l101.exe)
 ------------------------
 RxCoord=1.09973 DE=52.51
 ------------------------
 Symbolic Z-matrix:
 Charge = -1 Multiplicity = 1
 C                    -0.13965   0.00001  -0.00015 
 Cl                   -2.17674  0.         0.00005 
 H                     0.07871   0.00246  -1.05699 
 H                     0.07912   0.91408   0.53019 
 H                     0.07912  -0.91652   0.52594 
 C                     2.34847   0.       -0.00018 
 N                     3.5259   -0.00001   0.00023 
 
 ITRead=  0  0  0  0  0  0  0
 MicOpt= -1 -1 -1 -1 -1 -1 -1
 NAtoms=      7 NQM=        7 NQMF=       0 NMMI=      0 NMMIF=      0
                NMic=       0 NMicF=      0.
                    Isotopes and Nuclear Properties:
 (Nuclear quadrupole moments (NQMom) in fm**2, nuclear magnetic moments (NMagM)
  in nuclear magnetons)

  Atom         1           2           3           4           5           6           7
 IAtWgt=          12          35           1           1           1          12          14
 AtmWgt=  12.0000000  34.9688527   1.0078250   1.0078250   1.0078250  12.0000000  14.0030740
 NucSpn=           0           3           1           1           1           0           2
 AtZEff=  -0.0000000  -0.0000000  -0.0000000  -0.0000000  -0.0000000  -0.0000000  -0.0000000
 NQMom=    0.0000000  -8.1650000   0.0000000   0.0000000   0.0000000   0.0000000   2.0440000
 NMagM=    0.0000000   0.8218740   2.7928460   2.7928460   2.7928460   0.0000000   0.4037610
 AtZNuc=   6.0000000  17.0000000   1.0000000   1.0000000   1.0000000   6.0000000   7.0000000
 Leave Link  101 at Sun Oct 13 09:51:04 2024, MaxMem=  2684354560 cpu:               2.9 elap:               0.1
 (Enter /usr/local/g16_AVX//g16/l103.exe)

 GradGradGradGradGradGradGradGradGradGradGradGradGradGradGradGradGradGrad
 Berny optimization.
 Initialization pass.
 Trust Radius=3.00D-01 FncErr=1.00D-07 GrdErr=1.00D-07 EigMax=2.50D+02 EigMin=1.00D-04
 Number of steps in this run=      2 maximum allowed number of steps=      2.
 GradGradGradGradGradGradGradGradGradGradGradGradGradGradGradGradGradGrad

 Leave Link  103 at Sun Oct 13 09:51:04 2024, MaxMem=  2684354560 cpu:               0.5 elap:               0.0
 (Enter /usr/local/g16_AVX//g16/l202.exe)
                          Input orientation:                          
 ---------------------------------------------------------------------
 Center     Atomic      Atomic             Coordinates (Angstroms)
 Number     Number       Type             X           Y           Z
 ---------------------------------------------------------------------
      1          6           0       -0.139648    0.000007   -0.000152
      2         17           0       -2.176740   -0.000001    0.000045
      3          1           0        0.078712    0.002461   -1.056990
      4          1           0        0.079119    0.914084    0.530194
      5          1           0        0.079122   -0.916523    0.525943
      6          6           0        2.348473    0.000003   -0.000178
      7          7           0        3.525896   -0.000008    0.000232
 ---------------------------------------------------------------------
                    Distance matrix (angstroms):
                    1          2          3          4          5
     1  C    0.000000
     2  Cl   2.037092   0.000000
     3  H    1.079163   2.490862   0.000000
     4  H    1.079195   2.491086   1.830358   0.000000
     5  H    1.079196   2.491083   1.830358   1.830612   0.000000
     6  C    2.488121   4.525213   2.503732   2.503359   2.503353
     7  N    3.665544   5.702636   3.605662   3.605093   3.605083
                    6          7
     6  C    0.000000
     7  N    1.177423   0.000000
 Symmetry turned off by external request.
 Stoichiometry    C2H3ClN(1-)
 Framework group  C1[X(C2H3ClN)]
 Deg. of freedom    15
 Full point group                 C1      NOp   1
 Rotational constants (GHZ):         149.6648128           1.2389790           1.2389771
 Leave Link  202 at Sun Oct 13 09:51:04 2024, MaxMem=  2684354560 cpu:               0.2 elap:               0.0
 (Enter /usr/local/g16_AVX//g16/l301.exe)
 Standard basis: 6-31++G(d,p) (6D, 7F)
 Ernie: Thresh=  0.10000D-02 Tol=  0.10000D-05 Strict=F.
    98 basis functions,   176 primitive gaussians,    98 cartesian basis functions
    20 alpha electrons       20 beta electrons
       nuclear repulsion energy       109.4782035835 Hartrees.
 IExCor=  402 DFT=T Ex+Corr=B3LYP ExCW=0 ScaHFX=  0.200000
 ScaDFX=  0.800000  0.720000  1.000000  0.810000 ScalE2=  1.000000  1.000000
 IRadAn=      5 IRanWt=     -1 IRanGd=            0 ICorTp=0 IEmpDi=  4
 NAtoms=    7 NActive=    7 NUniq=    7 SFac= 1.00D+00 NAtFMM=   60 NAOKFM=F Big=F
 Integral buffers will be    131072 words long.
 Raffenetti 2 integral format.
 Two-electron integral symmetry is turned off.
 Leave Link  301 at Sun Oct 13 09:51:04 2024, MaxMem=  2684354560 cpu:               1.3 elap:               0.1
 (Enter /usr/local/g16_AVX//g16/l302.exe)
 NPDir=0 NMtPBC=     1 NCelOv=     1 NCel=       1 NClECP=     1 NCelD=      1
         NCelK=      1 NCelE2=     1 NClLst=     1 CellRange=     0.0.
 One-electron integrals computed using PRISM.
 NBasis=    98 RedAO= T EigKep=  1.28D-04  NBF=    98
 NBsUse=    98 1.00D-06 EigRej= -1.00D+00 NBFU=    98
 Precomputing XC quadrature grid using
 IXCGrd= 4 IRadAn=           5 IRanWt=          -1 IRanGd=           0 AccXCQ= 0.00D+00.
 Generated NRdTot=       0 NPtTot=           0 NUsed=           0 NTot=          32
 NSgBfM=    98    98    98    98    98 MxSgAt=     7 MxSgA2=     7.
 Leave Link  302 at Sun Oct 13 09:51:05 2024, MaxMem=  2684354560 cpu:               3.9 elap:               0.2
 (Enter /usr/local/g16_AVX//g16/l303.exe)
 DipDrv:  MaxL=1.
 Leave Link  303 at Sun Oct 13 09:51:05 2024, MaxMem=  2684354560 cpu:               0.7 elap:               0.1
 (Enter /usr/local/g16_AVX//g16/l401.exe)
 ExpMin= 3.60D-02 ExpMax= 2.52D+04 ExpMxC= 3.78D+03 IAcc=3 IRadAn=         5 AccDes= 0.00D+00
 Harris functional with IExCor=  402 and IRadAn=       5 diagonalized for initial guess.
 HarFok:  IExCor=  402 AccDes= 0.00D+00 IRadAn=         5 IDoV= 1 UseB2=F ITyADJ=14
 ICtDFT=  3500011 ScaDFX=  1.000000  1.000000  1.000000  1.000000
 FoFCou: FMM=F IPFlag=           0 FMFlag=      100000 FMFlg1=           0
         NFxFlg=           0 DoJE=T BraDBF=F KetDBF=T FulRan=T
         wScrn=  0.000000 ICntrl=       500 IOpCl=  0 I1Cent=   200000004 NGrid=           0
         NMat0=    1 NMatS0=      1 NMatT0=    0 NMatD0=    1 NMtDS0=    0 NMtDT0=    0
 Symmetry not used in FoFCou.
 Harris En= -593.058984571732    
 JPrj=0 DoOrth=F DoCkMO=F.
 Leave Link  401 at Sun Oct 13 09:51:05 2024, MaxMem=  2684354560 cpu:               5.8 elap:               0.3
 (Enter /usr/local/g16_AVX//g16/l502.exe)
 Keep R1 ints in memory in canonical form, NReq=35752935.
 FoFCou: FMM=F IPFlag=           0 FMFlag=           0 FMFlg1=           0
         NFxFlg=           0 DoJE=F BraDBF=F KetDBF=F FulRan=T
         wScrn=  0.000000 ICntrl=       600 IOpCl=  0 I1Cent=           0 NGrid=           0
         NMat0=    1 NMatS0=   4851 NMatT0=    0 NMatD0=    1 NMtDS0=    0 NMtDT0=    0
 Symmetry not used in FoFCou.
 Two-electron integral symmetry not used.
 Closed shell SCF:
 Using DIIS extrapolation, IDIIS=  1040.
 NGot=  2684354560 LenX=  2672563405 LenY=  2672553360
 Requested convergence on RMS density matrix=1.00D-08 within 128 cycles.
 Requested convergence on MAX density matrix=1.00D-06.
 Requested convergence on             energy=1.00D-06.
 No special actions if energy rises.

 Cycle   1  Pass 1  IDiag  1:
 E= -592.838136565896    
 DIIS: error= 3.41D-02 at cycle   1 NSaved=   1.
 NSaved= 1 IEnMin= 1 EnMin= -592.838136565896     IErMin= 1 ErrMin= 3.41D-02
 ErrMax= 3.41D-02  0.00D+00 EMaxC= 1.00D-01 BMatC= 1.27D-01 BMatP= 1.27D-01
 IDIUse=3 WtCom= 6.59D-01 WtEn= 3.41D-01
 Coeff-Com:  0.100D+01
 Coeff-En:   0.100D+01
 Coeff:      0.100D+01
 Gap=     0.383 Goal=   None    Shift=    0.000
 GapD=    0.383 DampG=1.000 DampE=0.500 DampFc=0.5000 IDamp=-1.
 Damping current iteration by 5.00D-01
 RMSDP=5.68D-02 MaxDP=1.83D+00              OVMax= 3.69D-01

 Cycle   2  Pass 1  IDiag  1:
 E= -592.875007276644     Delta-E=       -0.036870710748 Rises=F Damp=T
 DIIS: error= 1.11D-02 at cycle   2 NSaved=   2.
 NSaved= 2 IEnMin= 2 EnMin= -592.875007276644     IErMin= 2 ErrMin= 1.11D-02
 ErrMax= 1.11D-02  0.00D+00 EMaxC= 1.00D-01 BMatC= 1.66D-02 BMatP= 1.27D-01
 IDIUse=3 WtCom= 8.89D-01 WtEn= 1.11D-01
 Coeff-Com:  0.199D+00 0.801D+00
 Coeff-En:   0.366D+00 0.634D+00
 Coeff:      0.218D+00 0.782D+00
 Gap=     0.212 Goal=   None    Shift=    0.000
 RMSDP=2.70D-02 MaxDP=9.13D-01 DE=-3.69D-02 OVMax= 2.72D-01

 Cycle   3  Pass 1  IDiag  1:
 E= -592.977241507827     Delta-E=       -0.102234231183 Rises=F Damp=F
 DIIS: error= 1.53D-02 at cycle   3 NSaved=   3.
 NSaved= 3 IEnMin= 3 EnMin= -592.977241507827     IErMin= 2 ErrMin= 1.11D-02
 ErrMax= 1.53D-02  0.00D+00 EMaxC= 1.00D-01 BMatC= 1.25D-02 BMatP= 1.66D-02
 IDIUse=3 WtCom= 8.47D-01 WtEn= 1.53D-01
 Coeff-Com:  0.648D-01 0.465D+00 0.471D+00
 Coeff-En:   0.000D+00 0.000D+00 0.100D+01
 Coeff:      0.549D-01 0.393D+00 0.552D+00
 Gap=     0.207 Goal=   None    Shift=    0.000
 RMSDP=1.92D-03 MaxDP=3.56D-02 DE=-1.02D-01 OVMax= 6.29D-02

 Cycle   4  Pass 1  IDiag  1:
 E= -592.981784879231     Delta-E=       -0.004543371404 Rises=F Damp=F
 DIIS: error= 1.32D-02 at cycle   4 NSaved=   4.
 NSaved= 4 IEnMin= 4 EnMin= -592.981784879231     IErMin= 2 ErrMin= 1.11D-02
 ErrMax= 1.32D-02  0.00D+00 EMaxC= 1.00D-01 BMatC= 7.97D-03 BMatP= 1.25D-02
 IDIUse=3 WtCom= 8.68D-01 WtEn= 1.32D-01
 Coeff-Com: -0.842D-02 0.967D-01 0.435D+00 0.477D+00
 Coeff-En:   0.000D+00 0.000D+00 0.409D+00 0.591D+00
 Coeff:     -0.730D-02 0.839D-01 0.431D+00 0.492D+00
 Gap=     0.196 Goal=   None    Shift=    0.000
 RMSDP=1.15D-03 MaxDP=1.80D-02 DE=-4.54D-03 OVMax= 3.24D-02

 Cycle   5  Pass 1  IDiag  1:
 E= -592.988670359480     Delta-E=       -0.006885480249 Rises=F Damp=F
 DIIS: error= 2.64D-03 at cycle   5 NSaved=   5.
 NSaved= 5 IEnMin= 5 EnMin= -592.988670359480     IErMin= 5 ErrMin= 2.64D-03
 ErrMax= 2.64D-03  0.00D+00 EMaxC= 1.00D-01 BMatC= 4.83D-04 BMatP= 7.97D-03
 IDIUse=3 WtCom= 9.74D-01 WtEn= 2.64D-02
 Coeff-Com: -0.883D-02 0.238D-01 0.210D+00 0.296D+00 0.478D+00
 Coeff-En:   0.000D+00 0.000D+00 0.000D+00 0.280D-01 0.972D+00
 Coeff:     -0.860D-02 0.232D-01 0.205D+00 0.289D+00 0.491D+00
 Gap=     0.199 Goal=   None    Shift=    0.000
 RMSDP=4.72D-04 MaxDP=6.43D-03 DE=-6.89D-03 OVMax= 1.20D-02

 Cycle   6  Pass 1  IDiag  1:
 E= -592.989207069249     Delta-E=       -0.000536709769 Rises=F Damp=F
 DIIS: error= 3.70D-04 at cycle   6 NSaved=   6.
 NSaved= 6 IEnMin= 6 EnMin= -592.989207069249     IErMin= 6 ErrMin= 3.70D-04
 ErrMax= 3.70D-04  0.00D+00 EMaxC= 1.00D-01 BMatC= 1.45D-05 BMatP= 4.83D-04
 IDIUse=3 WtCom= 9.96D-01 WtEn= 3.70D-03
 Coeff-Com: -0.289D-02 0.461D-03 0.599D-01 0.920D-01 0.224D+00 0.626D+00
 Coeff-En:   0.000D+00 0.000D+00 0.000D+00 0.000D+00 0.000D+00 0.100D+01
 Coeff:     -0.288D-02 0.459D-03 0.597D-01 0.917D-01 0.223D+00 0.628D+00
 Gap=     0.199 Goal=   None    Shift=    0.000
 RMSDP=7.40D-05 MaxDP=1.58D-03 DE=-5.37D-04 OVMax= 1.42D-03

 Cycle   7  Pass 1  IDiag  1:
 E= -592.989221674962     Delta-E=       -0.000014605713 Rises=F Damp=F
 DIIS: error= 6.23D-05 at cycle   7 NSaved=   7.
 NSaved= 7 IEnMin= 7 EnMin= -592.989221674962     IErMin= 7 ErrMin= 6.23D-05
 ErrMax= 6.23D-05  0.00D+00 EMaxC= 1.00D-01 BMatC= 6.17D-07 BMatP= 1.45D-05
 IDIUse=1 WtCom= 1.00D+00 WtEn= 0.00D+00
 Coeff-Com: -0.206D-03-0.968D-03 0.604D-02 0.971D-02 0.431D-01 0.236D+00
 Coeff-Com:  0.706D+00
 Coeff:     -0.206D-03-0.968D-03 0.604D-02 0.971D-02 0.431D-01 0.236D+00
 Coeff:      0.706D+00
 Gap=     0.199 Goal=   None    Shift=    0.000
 RMSDP=2.29D-05 MaxDP=4.57D-04 DE=-1.46D-05 OVMax= 4.89D-04

 Cycle   8  Pass 1  IDiag  1:
 E= -592.989222380412     Delta-E=       -0.000000705449 Rises=F Damp=F
 DIIS: error= 2.38D-05 at cycle   8 NSaved=   8.
 NSaved= 8 IEnMin= 8 EnMin= -592.989222380412     IErMin= 8 ErrMin= 2.38D-05
 ErrMax= 2.38D-05  0.00D+00 EMaxC= 1.00D-01 BMatC= 7.38D-08 BMatP= 6.17D-07
 IDIUse=1 WtCom= 1.00D+00 WtEn= 0.00D+00
 Coeff-Com:  0.226D-03-0.773D-03-0.227D-02-0.292D-02 0.244D-02 0.556D-01
 Coeff-Com:  0.315D+00 0.632D+00
 Coeff:      0.226D-03-0.773D-03-0.227D-02-0.292D-02 0.244D-02 0.556D-01
 Coeff:      0.315D+00 0.632D+00
 Gap=     0.199 Goal=   None    Shift=    0.000
 RMSDP=4.16D-06 MaxDP=1.13D-04 DE=-7.05D-07 OVMax= 9.13D-05

 Cycle   9  Pass 1  IDiag  1:
 E= -592.989222463852     Delta-E=       -0.000000083440 Rises=F Damp=F
 DIIS: error= 3.59D-06 at cycle   9 NSaved=   9.
 NSaved= 9 IEnMin= 9 EnMin= -592.989222463852     IErMin= 9 ErrMin= 3.59D-06
 ErrMax= 3.59D-06  0.00D+00 EMaxC= 1.00D-01 BMatC= 1.03D-09 BMatP= 7.38D-08
 IDIUse=1 WtCom= 1.00D+00 WtEn= 0.00D+00
 Coeff-Com:  0.737D-04-0.137D-03-0.726D-03-0.904D-03-0.107D-02 0.123D-02
 Coeff-Com:  0.374D-01 0.152D+00 0.812D+00
 Coeff:      0.737D-04-0.137D-03-0.726D-03-0.904D-03-0.107D-02 0.123D-02
 Coeff:      0.374D-01 0.152D+00 0.812D+00
 Gap=     0.199 Goal=   None    Shift=    0.000
 RMSDP=1.37D-06 MaxDP=3.17D-05 DE=-8.34D-08 OVMax= 9.34D-06

 Cycle  10  Pass 1  IDiag  1:
 E= -592.989222465046     Delta-E=       -0.000000001193 Rises=F Damp=F
 DIIS: error= 4.13D-07 at cycle  10 NSaved=  10.
 NSaved=10 IEnMin=10 EnMin= -592.989222465046     IErMin=10 ErrMin= 4.13D-07
 ErrMax= 4.13D-07  0.00D+00 EMaxC= 1.00D-01 BMatC= 1.36D-11 BMatP= 1.03D-09
 IDIUse=1 WtCom= 1.00D+00 WtEn= 0.00D+00
 Coeff-Com:  0.483D-05 0.928D-07-0.447D-04-0.552D-04-0.160D-03-0.842D-03
 Coeff-Com: -0.352D-02 0.892D-02 0.101D+00 0.895D+00
 Coeff:      0.483D-05 0.928D-07-0.447D-04-0.552D-04-0.160D-03-0.842D-03
 Coeff:     -0.352D-02 0.892D-02 0.101D+00 0.895D+00
 Gap=     0.199 Goal=   None    Shift=    0.000
 RMSDP=1.20D-07 MaxDP=2.85D-06 DE=-1.19D-09 OVMax= 2.07D-06

 Cycle  11  Pass 1  IDiag  1:
 E= -592.989222465066     Delta-E=       -0.000000000021 Rises=F Damp=F
 DIIS: error= 6.97D-08 at cycle  11 NSaved=  11.
 NSaved=11 IEnMin=11 EnMin= -592.989222465066     IErMin=11 ErrMin= 6.97D-08
 ErrMax= 6.97D-08  0.00D+00 EMaxC= 1.00D-01 BMatC= 3.45D-13 BMatP= 1.36D-11
 IDIUse=1 WtCom= 1.00D+00 WtEn= 0.00D+00
 Coeff-Com: -0.774D-06 0.194D-05 0.633D-06 0.131D-05-0.169D-04-0.735D-04
 Coeff-Com: -0.756D-03-0.563D-03 0.263D-02 0.116D+00 0.883D+00
 Coeff:     -0.774D-06 0.194D-05 0.633D-06 0.131D-05-0.169D-04-0.735D-04
 Coeff:     -0.756D-03-0.563D-03 0.263D-02 0.116D+00 0.883D+00
 Gap=     0.199 Goal=   None    Shift=    0.000
 RMSDP=1.00D-08 MaxDP=1.39D-07 DE=-2.08D-11 OVMax= 1.87D-07

 Cycle  12  Pass 1  IDiag  1:
 E= -592.989222465064     Delta-E=        0.000000000002 Rises=F Damp=F
 DIIS: error= 8.26D-09 at cycle  12 NSaved=  12.
 NSaved=12 IEnMin=11 EnMin= -592.989222465066     IErMin=12 ErrMin= 8.26D-09
 ErrMax= 8.26D-09  0.00D+00 EMaxC= 1.00D-01 BMatC= 7.44D-15 BMatP= 3.45D-13
 IDIUse=1 WtCom= 1.00D+00 WtEn= 0.00D+00
 Coeff-Com: -0.280D-06 0.390D-06 0.307D-06 0.414D-06-0.125D-05 0.123D-05
 Coeff-Com: -0.276D-04-0.302D-03-0.148D-02 0.265D-02 0.157D+00 0.842D+00
 Coeff:     -0.280D-06 0.390D-06 0.307D-06 0.414D-06-0.125D-05 0.123D-05
 Coeff:     -0.276D-04-0.302D-03-0.148D-02 0.265D-02 0.157D+00 0.842D+00
 Gap=     0.199 Goal=   None    Shift=    0.000
 RMSDP=3.53D-09 MaxDP=6.07D-08 DE= 2.16D-12 OVMax= 4.88D-08

 SCF Done:  E(RB3LYP) =  -592.989222465     A.U. after   12 cycles
            NFock= 12  Conv=0.35D-08     -V/T= 2.0046
 KE= 5.902589985240D+02 PE=-1.628963048667D+03 EE= 3.362366240945D+02
 Leave Link  502 at Sun Oct 13 09:51:07 2024, MaxMem=  2684354560 cpu:              35.6 elap:               1.6
 (Enter /usr/local/g16_AVX//g16/l801.exe)
 DoSCS=F DFT=T ScalE2(SS,OS)=  1.000000  1.000000
 Range of M.O.s used for correlation:     1    98
 NBasis=    98 NAE=    20 NBE=    20 NFC=     0 NFV=     0
 NROrb=     98 NOA=    20 NOB=    20 NVA=    78 NVB=    78

 **** Warning!!: The largest alpha MO coefficient is  0.27717546D+02

 Leave Link  801 at Sun Oct 13 09:51:07 2024, MaxMem=  2684354560 cpu:               0.6 elap:               0.1
 (Enter /usr/local/g16_AVX//g16/l1101.exe)
 Using compressed storage, NAtomX=     7.
 Will process      8 centers per pass.
 Leave Link 1101 at Sun Oct 13 09:51:07 2024, MaxMem=  2684354560 cpu:               3.4 elap:               0.2
 (Enter /usr/local/g16_AVX//g16/l1102.exe)
 Symmetrizing basis deriv contribution to polar:
 IMax=3 JMax=2 DiffMx= 0.00D+00
 Leave Link 1102 at Sun Oct 13 09:51:07 2024, MaxMem=  2684354560 cpu:               0.7 elap:               0.1
 (Enter /usr/local/g16_AVX//g16/l1110.exe)
 Forming Gx(P) for the SCF density, NAtomX=     7.
 Integral derivatives from FoFJK, PRISM(SPDF).
 Do as many integral derivatives as possible in FoFJK.
 G2DrvN: MDV=    2684353864.
 G2DrvN: will do     8 centers at a time, making    1 passes.
 Calling FoFCou, ICntrl=  3107 FMM=F I1Cent=   0 AccDes= 0.00D+00.
 FoFJK:  IHMeth= 1 ICntrl=    3107 DoSepK=F KAlg= 0 I1Cent=           0 FoldK=F
 IRaf=         0 NMat=       1 IRICut=       1 DoRegI=T DoRafI=F ISym2E= 0 IDoP0=0 IntGTp=1.
 FoFCou: FMM=F IPFlag=           0 FMFlag=      100000 FMFlg1=           0
         NFxFlg=           0 DoJE=F BraDBF=F KetDBF=F FulRan=T
         wScrn=  0.000000 ICntrl=      3107 IOpCl=  0 I1Cent=           0 NGrid=           0
         NMat0=    1 NMatS0=      1 NMatT0=    0 NMatD0=    1 NMtDS0=    0 NMtDT0=    0
 Symmetry not used in FoFCou.
 End of G2Drv F.D. properties file   721 does not exist.
 End of G2Drv F.D. properties file   722 does not exist.
 End of G2Drv F.D. properties file   788 does not exist.
 Leave Link 1110 at Sun Oct 13 09:51:09 2024, MaxMem=  2684354560 cpu:              38.5 elap:               1.5
 (Enter /usr/local/g16_AVX//g16/l1002.exe)
 Minotr:  Closed shell wavefunction.
          IDoAtm=1111111
          Direct CPHF calculation.
          Differentiating once with respect to electric field.
                with respect to dipole field.
          Differentiating once with respect to nuclear coordinates.
          Requested convergence is 1.0D-08 RMS, and 1.0D-07 maximum.
          Secondary convergence is 1.0D-12 RMS, and 1.0D-12 maximum.
          NewPWx=T KeepS1=F KeepF1=F KeepIn=T MapXYZ=F SortEE=F KeepMc=T.
         2136 words used for storage of precomputed grid.
 Keep R1 ints in memory in canonical form, NReq=35668397.
 FoFCou: FMM=F IPFlag=           0 FMFlag=           0 FMFlg1=           0
         NFxFlg=           0 DoJE=F BraDBF=F KetDBF=F FulRan=T
         wScrn=  0.000000 ICntrl=       600 IOpCl=  0 I1Cent=           0 NGrid=           0
         NMat0=    1 NMatS0=   4851 NMatT0=    0 NMatD0=    1 NMtDS0=    0 NMtDT0=    0
 Symmetry not used in FoFCou.
 Two-electron integral symmetry not used.
          MDV=    2684354560 using IRadAn=       1.
          Solving linear equations simultaneously, MaxMat=       0.
          There are    24 degrees of freedom in the 1st order CPHF.  IDoFFX=6 NUNeed=     3.
     21 vectors produced by pass  0 Test12= 6.50D-15 4.17D-09 XBig12= 1.27D+02 7.13D+00.
 AX will form    21 AO Fock derivatives at one time.
     21 vectors produced by pass  1 Test12= 6.50D-15 4.17D-09 XBig12= 4.29D+01 1.75D+00.
     21 vectors produced by pass  2 Test12= 6.50D-15 4.17D-09 XBig12= 6.61D-01 2.34D-01.
     21 vectors produced by pass  3 Test12= 6.50D-15 4.17D-09 XBig12= 5.38D-03 1.58D-02.
     21 vectors produced by pass  4 Test12= 6.50D-15 4.17D-09 XBig12= 2.17D-05 1.14D-03.
     17 vectors produced by pass  5 Test12= 6.50D-15 4.17D-09 XBig12= 4.08D-08 4.78D-05.
      6 vectors produced by pass  6 Test12= 6.50D-15 4.17D-09 XBig12= 3.75D-11 1.63D-06.
      1 vectors produced by pass  7 Test12= 6.50D-15 4.17D-09 XBig12= 3.19D-14 4.09D-08.
 InvSVY:  IOpt=1 It=  1 EMax= 6.30D-15
 Solved reduced A of dimension   129 with    24 vectors.
 FullF1:  Do perturbations      1 to       3.
 Isotropic polarizability for W=    0.000000       63.87 Bohr**3.
 End of Minotr F.D. properties file   721 does not exist.
 End of Minotr F.D. properties file   722 does not exist.
 End of Minotr F.D. properties file   788 does not exist.
 Leave Link 1002 at Sun Oct 13 09:51:11 2024, MaxMem=  2684354560 cpu:              53.3 elap:               2.1
 (Enter /usr/local/g16_AVX//g16/l601.exe)
 Copying SCF densities to generalized density rwf, IOpCl= 0 IROHF=0.

 **********************************************************************

            Population analysis using the SCF Density.

 **********************************************************************

 Alpha  occ. eigenvalues -- -101.37358 -14.11405 -10.10598  -9.98091  -9.28875
 Alpha  occ. eigenvalues --   -7.05073  -7.04407  -7.04407  -0.66869  -0.65904
 Alpha  occ. eigenvalues --   -0.54015  -0.30265  -0.30262  -0.23650  -0.19242
 Alpha  occ. eigenvalues --   -0.15213  -0.15213  -0.11633  -0.11633  -0.08623
 Alpha virt. eigenvalues --    0.11259   0.12648   0.14853   0.14853   0.16253
 Alpha virt. eigenvalues --    0.19249   0.20580   0.20580   0.22195   0.22197
 Alpha virt. eigenvalues --    0.24879   0.24957   0.24958   0.26376   0.26376
 Alpha virt. eigenvalues --    0.26403   0.31177   0.34256   0.34258   0.37392
 Alpha virt. eigenvalues --    0.37920   0.37920   0.38046   0.46248   0.47390
 Alpha virt. eigenvalues --    0.71676   0.75981   0.76051   0.76051   0.79362
 Alpha virt. eigenvalues --    0.79364   0.88176   0.88177   0.88496   0.98887
 Alpha virt. eigenvalues --    1.02081   1.02930   1.02932   1.07379   1.07381
 Alpha virt. eigenvalues --    1.09583   1.09588   1.12517   1.17918   1.17918
 Alpha virt. eigenvalues --    1.25018   1.33287   1.36458   1.50550   1.59886
 Alpha virt. eigenvalues --    1.59892   1.76149   1.76149   1.78435   1.78435
 Alpha virt. eigenvalues --    1.82731   2.13930   2.17357   2.17374   2.18413
 Alpha virt. eigenvalues --    2.18414   2.18966   2.57441   2.57455   2.60195
 Alpha virt. eigenvalues --    2.81639   2.81640   2.83434   2.94629   2.94652
 Alpha virt. eigenvalues --    3.25739   3.43181   3.56791   3.56810   4.20559
 Alpha virt. eigenvalues --    4.46048   4.47865   4.56274
          Condensed to atoms (all electrons):
               1          2          3          4          5          6
     1  C    5.456688  -0.176211   0.428832   0.428849   0.428850  -0.189250
     2  Cl  -0.176211  17.610401  -0.050040  -0.050017  -0.050016   0.108012
     3  H    0.428832  -0.050040   0.499556  -0.021405  -0.021405  -0.045114
     4  H    0.428849  -0.050017  -0.021405   0.499507  -0.021369  -0.045150
     5  H    0.428850  -0.050016  -0.021405  -0.021369   0.499507  -0.045152
     6  C   -0.189250   0.108012  -0.045114  -0.045150  -0.045152   5.846273
     7  N   -0.016567  -0.003348  -0.001293  -0.001294  -0.001294   0.703614
               7
     1  C   -0.016567
     2  Cl  -0.003348
     3  H   -0.001293
     4  H   -0.001294
     5  H   -0.001294
     6  C    0.703614
     7  N    6.869605
 Mulliken charges:
               1
     1  C   -0.361190
     2  Cl  -0.388781
     3  H    0.210869
     4  H    0.210879
     5  H    0.210879
     6  C   -0.333233
     7  N   -0.549422
 Sum of Mulliken charges =  -1.00000
 Mulliken charges with hydrogens summed into heavy atoms:
               1
     1  C    0.271436
     2  Cl  -0.388781
     6  C   -0.333233
     7  N   -0.549422
 APT charges:
               1
     1  C    1.026390
     2  Cl  -0.931859
     3  H   -0.004585
     4  H   -0.004535
     5  H   -0.004535
     6  C   -0.435091
     7  N   -0.645784
 Sum of APT charges =  -1.00000
 APT charges with hydrogens summed into heavy atoms:
               1
     1  C    1.012735
     2  Cl  -0.931859
     6  C   -0.435091
     7  N   -0.645784
 Electronic spatial extent (au):  <R**2>=            846.9846
 Charge=             -1.0000 electrons
 Dipole moment (field-independent basis, Debye):
    X=             -6.9078    Y=              0.0000    Z=             -0.0005  Tot=              6.9078
 Quadrupole moment (field-independent basis, Debye-Ang):
   XX=            -87.9878   YY=            -35.3273   ZZ=            -35.3284
   XY=              0.0001   XZ=             -0.0009   YZ=              0.0000
 Traceless Quadrupole moment (field-independent basis, Debye-Ang):
   XX=            -35.1066   YY=             17.5539   ZZ=             17.5528
   XY=              0.0001   XZ=             -0.0009   YZ=              0.0000
 Octapole moment (field-independent basis, Debye-Ang**2):
  XXX=           -148.0637  YYY=             -0.0069  ZZZ=             -0.9925  XYY=             -8.7894
  XXY=              0.0003  XXZ=             -0.0081  XZZ=             -8.7901  YZZ=              0.0069
  YYZ=              0.9940  XYZ=             -0.0000
 Hexadecapole moment (field-independent basis, Debye-Ang**3):
 XXXX=          -1776.7731 YYYY=            -55.5848 ZZZZ=            -55.5840 XXXY=              0.0017
 XXXZ=             -0.0421 YYYX=             -0.0007 YYYZ=              0.0000 ZZZX=             -0.1508
 ZZZY=             -0.0000 XXYY=           -217.2185 XXZZ=           -217.2186 YYZZ=            -18.5290
 XXYZ=              0.0000 YYXZ=              0.1459 ZZXY=              0.0011
 N-N= 1.094782035835D+02 E-N=-1.628963047676D+03  KE= 5.902589985240D+02
  Exact polarizability: 113.599  -0.000  39.013   0.003  -0.000  39.013
 Approx polarizability: 143.757  -0.000  48.966   0.006   0.000  48.964
 No NMR shielding tensors so no spin-rotation constants.
 Leave Link  601 at Sun Oct 13 09:51:11 2024, MaxMem=  2684354560 cpu:               2.7 elap:               0.1
 (Enter /usr/local/g16_AVX//g16/l701.exe)
 ... and contract with generalized density number  0.
 Compute integral second derivatives.
 Leave Link  701 at Sun Oct 13 09:51:11 2024, MaxMem=  2684354560 cpu:               4.6 elap:               0.2
 (Enter /usr/local/g16_AVX//g16/l702.exe)
 L702 exits ... SP integral derivatives will be done elsewhere.
 Leave Link  702 at Sun Oct 13 09:51:11 2024, MaxMem=  2684354560 cpu:               0.5 elap:               0.0
 (Enter /usr/local/g16_AVX//g16/l703.exe)
 Integral derivatives from FoFJK, PRISM(SPDF).
 Compute integral second derivatives, UseDBF=F ICtDFT=           0.
 Calling FoFJK, ICntrl=    100127 FMM=F ISym2X=0 I1Cent= 0 IOpClX= 0 NMat=1 NMatS=1 NMatT=0.
 FoFJK:  IHMeth= 1 ICntrl=  100127 DoSepK=F KAlg= 0 I1Cent=           0 FoldK=F
 IRaf=         0 NMat=       1 IRICut=       1 DoRegI=T DoRafI=F ISym2E= 0 IDoP0=0 IntGTp=1.
 FoFCou: FMM=F IPFlag=           0 FMFlag=      100000 FMFlg1=         800
         NFxFlg=           0 DoJE=F BraDBF=F KetDBF=F FulRan=T
         wScrn=  0.000000 ICntrl=    100127 IOpCl=  0 I1Cent=           0 NGrid=           0
         NMat0=    1 NMatS0=      1 NMatT0=    0 NMatD0=    1 NMtDS0=    0 NMtDT0=    0
 Symmetry not used in FoFCou.
 Leave Link  703 at Sun Oct 13 09:51:14 2024, MaxMem=  2684354560 cpu:              66.1 elap:               2.6
 (Enter /usr/local/g16_AVX//g16/l716.exe)
 Dipole        =-2.71775613D+00 7.95209510D-06-1.99818399D-04
 Polarizability= 1.13598771D+02-6.87527655D-05 3.90128479D+01
                 3.07914358D-03-1.59084332D-06 3.90126536D+01
 Full mass-weighted force constant matrix:
 Low frequencies --- -183.0198  -64.5316  -64.5245  -20.0091  -20.0025    0.0046
 Low frequencies ---    0.0049    0.0052  116.4705
 ******    3 imaginary frequencies (negative Signs) ****** 
 Diagonal vibrational polarizability:
      667.1516221      13.9941541      13.9956784
 Harmonic frequencies (cm**-1), IR intensities (KM/Mole), Raman scattering
 activities (A**4/AMU), depolarization ratios for plane and unpolarized
 incident light, reduced masses (AMU), force constants (mDyne/A),
 and normal coordinates:
                      1                      2                      3
                      A                      A                      A
 Frequencies --   -183.0198               -62.3312               -62.3249
 Red. masses --     10.4117                 9.2930                 9.2925
 Frc consts  --      0.2055                 0.0213                 0.0213
 IR Inten    --    800.2415                 0.9861                 0.9862
  Atom  AN      X      Y      Z        X      Y      Z        X      Y      Z
     1   6     0.80  -0.00   0.00     0.00   0.26  -0.01    -0.00   0.01   0.26
     2  17    -0.07   0.00  -0.00     0.00  -0.11   0.00    -0.00  -0.00  -0.11
     3   1     0.22   0.00  -0.10    -0.01   0.30  -0.01     0.19   0.01   0.29
     4   1     0.22   0.09   0.05    -0.16   0.30  -0.01    -0.10   0.01   0.30
     5   1     0.22  -0.09   0.05     0.17   0.30  -0.01    -0.09   0.01   0.30
     6   6    -0.29  -0.00   0.00     0.00   0.59  -0.02     0.00   0.02   0.59
     7   7    -0.30   0.00  -0.00    -0.00  -0.51   0.02     0.00  -0.02  -0.51
                      4                      5                      6
                      A                      A                      A
 Frequencies --    224.9856               224.9892               250.6098
 Red. masses --      4.4031                 4.4030                18.6648
 Frc consts  --      0.1313                 0.1313                 0.6907
 IR Inten    --     13.3412                13.3419                53.0349
  Atom  AN      X      Y      Z        X      Y      Z        X      Y      Z
     1   6    -0.00  -0.03   0.44    -0.00   0.44   0.03    -0.31   0.00  -0.00
     2  17     0.00   0.01  -0.10     0.00  -0.10  -0.01     0.52  -0.00   0.00
     3   1     0.15  -0.03   0.48     0.01   0.47   0.03     0.02  -0.00   0.06
     4   1    -0.07  -0.02   0.47    -0.13   0.48   0.04     0.02  -0.05  -0.03
     5   1    -0.08  -0.04   0.47     0.12   0.48   0.02     0.02   0.05  -0.03
     6   6    -0.00   0.02  -0.29    -0.00  -0.29  -0.02    -0.55  -0.00   0.00
     7   7    -0.00  -0.00   0.02    -0.00   0.02   0.00    -0.56   0.00  -0.00
                      7                      8                      9
                      A                      A                      A
 Frequencies --    983.7550               983.8372              1160.4874
 Red. masses --      1.0621                 1.0621                 1.0576
 Frc consts  --      0.6056                 0.6057                 0.8392
 IR Inten    --      0.0189                 0.0188                72.8458
  Atom  AN      X      Y      Z        X      Y      Z        X      Y      Z
     1   6    -0.00   0.00  -0.06    -0.00   0.06   0.00    -0.05  -0.00   0.00
     2  17    -0.00  -0.00   0.01     0.00  -0.01  -0.00    -0.02  -0.00   0.00
     3   1     0.80  -0.00   0.10    -0.01  -0.15  -0.00     0.57  -0.00   0.11
     4   1    -0.39  -0.02   0.13     0.69  -0.11   0.02     0.57  -0.09  -0.05
     5   1    -0.40   0.02   0.13    -0.69  -0.11  -0.02     0.57   0.09  -0.05
     6   6     0.00   0.00  -0.01     0.00   0.01   0.00    -0.01  -0.00   0.00
     7   7     0.00  -0.00   0.00     0.00  -0.00  -0.00    -0.01   0.00  -0.00
                     10                     11                     12
                      A                      A                      A
 Frequencies --   1427.4699              1427.5960              2173.8702
 Red. masses --      1.0852                 1.0851                12.7805
 Frc consts  --      1.3028                 1.3030                35.5848
 IR Inten    --      5.2368                 5.2311                 7.1499
  Atom  AN      X      Y      Z        X      Y      Z        X      Y      Z
     1   6    -0.00  -0.00  -0.08    -0.00  -0.08   0.00    -0.00   0.00   0.00
     2  17     0.00  -0.00  -0.00    -0.00  -0.00   0.00    -0.00  -0.00   0.00
     3   1    -0.19   0.01  -0.10     0.00   0.79   0.00    -0.04   0.00  -0.01
     4   1     0.09  -0.39   0.56     0.16   0.12  -0.39    -0.04   0.01   0.00
     5   1     0.09   0.39   0.57    -0.16   0.11   0.38    -0.04  -0.01   0.00
     6   6    -0.00   0.00   0.00    -0.00   0.00  -0.00     0.76  -0.00   0.00
     7   7    -0.00   0.00   0.00     0.00   0.00  -0.00    -0.64   0.00  -0.00
                     13                     14                     15
                      A                      A                      A
 Frequencies --   3168.8035              3340.5936              3340.6864
 Red. masses --      1.0146                 1.1190                 1.1190
 Frc consts  --      6.0025                 7.3576                 7.3579
 IR Inten    --      3.3381                 0.4383                 0.4341
  Atom  AN      X      Y      Z        X      Y      Z        X      Y      Z
     1   6     0.02  -0.00   0.00    -0.00  -0.10   0.00    -0.00  -0.00  -0.10
     2  17    -0.00   0.00  -0.00     0.00   0.00  -0.00    -0.00   0.00   0.00
     3   1    -0.10  -0.00   0.57     0.00  -0.02  -0.02    -0.16  -0.00   0.80
     4   1    -0.10  -0.49  -0.29     0.14   0.59   0.35     0.08   0.36   0.19
     5   1    -0.10   0.49  -0.28    -0.14   0.60  -0.35     0.08  -0.34   0.18
     6   6     0.00   0.00  -0.00    -0.00   0.00  -0.00     0.00   0.00   0.00
     7   7     0.00  -0.00   0.00    -0.00  -0.00   0.00     0.00  -0.00  -0.00

 -------------------
 - Thermochemistry -
 -------------------
 Temperature   298.150 Kelvin.  Pressure   1.00000 Atm.
 Atom     1 has atomic number  6 and mass  12.00000
 Atom     2 has atomic number 17 and mass  34.96885
 Atom     3 has atomic number  1 and mass   1.00783
 Atom     4 has atomic number  1 and mass   1.00783
 Atom     5 has atomic number  1 and mass   1.00783
 Atom     6 has atomic number  6 and mass  12.00000
 Atom     7 has atomic number  7 and mass  14.00307
 Molecular mass:    75.99540 amu.
 Principal axes and moments of inertia in atomic units:
                           1         2         3
     Eigenvalues --    12.058551456.635811456.63804
           X            1.00000   0.00000  -0.00001
           Y           -0.00000   1.00000  -0.00275
           Z            0.00001   0.00275   1.00000
 This molecule is an asymmetric top.
 Rotational symmetry number  1.
 Rotational temperatures (Kelvin)      7.18278     0.05946     0.05946
 Rotational constants (GHZ):         149.66481     1.23898     1.23898
    3 imaginary frequencies ignored.
 Zero-point vibrational energy     111896.8 (Joules/Mol)
                                   26.74398 (Kcal/Mol)
 Warning -- explicit consideration of   3 degrees of freedom as
           vibrations may cause significant error
 Vibrational temperatures:    323.70   323.71   360.57  1415.40  1415.52
          (Kelvin)           1669.68  2053.81  2053.99  3127.71  4559.20
                             4806.37  4806.50
 
 Zero-point correction=                           0.042619 (Hartree/Particle)
 Thermal correction to Energy=                    0.047094
 Thermal correction to Enthalpy=                  0.048038
 Thermal correction to Gibbs Free Energy=         0.015019
 Sum of electronic and zero-point Energies=           -592.946603
 Sum of electronic and thermal Energies=              -592.942128
 Sum of electronic and thermal Enthalpies=            -592.941184
 Sum of electronic and thermal Free Energies=         -592.974204
 
                     E (Thermal)             CV                S
                      KCal/Mol        Cal/Mol-Kelvin    Cal/Mol-Kelvin
 Total                   29.552             12.551             69.496
 Electronic               0.000              0.000              0.000
 Translational            0.889              2.981             38.900
 Rotational               0.889              2.981             24.751
 Vibrational             27.775              6.589              5.844
 Vibration     1          0.650              1.803              1.919
 Vibration     2          0.650              1.803              1.919
 Vibration     3          0.663              1.762              1.726
                       Q            Log10(Q)             Ln(Q)
 Total Bot       0.123544D-06         -6.908180        -15.906672
 Total V=0       0.495784D+13         12.695292         29.231991
 Vib (Bot)       0.828592D-19        -19.081659        -43.937144
 Vib (Bot)    1  0.877328D+00         -0.056838         -0.130875
 Vib (Bot)    2  0.877312D+00         -0.056846         -0.130892
 Vib (Bot)    3  0.778561D+00         -0.108707         -0.250308
 Vib (V=0)       0.332516D+01          0.521813          1.201519
 Vib (V=0)    1  0.150980D+01          0.178921          0.411980
 Vib (V=0)    2  0.150979D+01          0.178917          0.411971
 Vib (V=0)    3  0.142529D+01          0.153903          0.354374
 Electronic      0.100000D+01          0.000000          0.000000
 Translational   0.260396D+08          7.415635         17.075130
 Rotational      0.572591D+05          4.757845         10.955342
 
                                                       RxCoord=1.09973 DE=52.51
                                                             IR Spectrum
 
      3     3                                     2                           1         1                                            
      3     1                                     1                           4         1      9                           22        
      4     6                                     7                           2         6      8                           52        
      1     9                                     4                           7         0      4                           15        
 
      X     X                                     X                           X         X                                  XX        
                                                  X                           X         X                                  XX        
                                                                              X         X                                  XX        
                                                                                        X                                  XX        
                                                                                        X                                  XX        
                                                                                        X                                  XX        
                                                                                        X                                  XX        
                                                                                        X                                  X         
                                                                                        X                                  X         
                                                                                        X                                  X         
                                                                                        X                                  X         
                                                                                        X                                  X         
                                                                                        X                                  X         
                                                                                        X                                  X         
                                                                                        X                                  X         
                                                                                        X                                            
                                                                                        X                                            
                                                                                        X                                            
                                                                                        X                                            
                                                                                        X                                            
 
 -------------------------------------------------------------------
 Center     Atomic                   Forces (Hartrees/Bohr)
 Number     Number              X              Y              Z
 -------------------------------------------------------------------
      1        6          -0.012007901   -0.000000576   -0.000011244
      2       17           0.003433087    0.000000160    0.000006567
      3        1           0.000201233   -0.000002317    0.001006819
      4        1           0.000181815   -0.000905595   -0.000501201
      5        1           0.000181820    0.000908249   -0.000497097
      6        6           0.003014755    0.000000128   -0.000005620
      7        7           0.004995192   -0.000000049    0.000001775
 -------------------------------------------------------------------
 Cartesian Forces:  Max     0.012007901 RMS     0.003033780
 Z-matrix is all fixed cartesians, so copy forces.
 Force constants in Cartesian coordinates: 
                1             2             3             4             5 
      1  0.414813D-01
      2  0.000000D+00  0.653938D+00
      3  0.106297D-03  0.000000D+00  0.653855D+00
      4  0.173612D-01  0.000000D+00 -0.111701D-05  0.723974D-01
      5  0.000000D+00 -0.279433D-01  0.000000D+00  0.000000D+00  0.156412D-01
      6 -0.170802D-05  0.000000D+00 -0.279389D-01 -0.113192D-04  0.000000D+00
      7 -0.281954D-01 -0.150496D-03  0.648457D-01 -0.218020D-01 -0.316568D-04
      8 -0.140871D-03 -0.519171D-01  0.714381D-03  0.123238D-04  0.356440D-03
      9  0.606940D-01  0.714361D-03 -0.359691D+00 -0.532703D-02 -0.129274D-04
     10 -0.282444D-01 -0.561854D-01 -0.326054D-01 -0.217948D-01 -0.117475D-01
     11 -0.525887D-01 -0.282103D+00 -0.133560D+00  0.461125D-02  0.452465D-02
     12 -0.305222D-01 -0.133551D+00 -0.129415D+00  0.268012D-02  0.242050D-02
     13 -0.282443D-01  0.563366D-01 -0.323448D-01 -0.217951D-01  0.117790D-01
     14  0.527303D-01 -0.283339D+00  0.132844D+00 -0.462378D-02  0.454708D-02
     15 -0.302785D-01  0.132836D+00 -0.128178D+00  0.265876D-02 -0.240749D-02
     16  0.960441D-02  0.000000D+00  0.124606D-05 -0.141527D-01  0.000000D+00
     17  0.000000D+00 -0.111533D-01  0.000000D+00  0.000000D+00  0.346358D-02
     18 -0.564558D-05  0.000000D+00 -0.111495D-01  0.611395D-05  0.000000D+00
     19  0.162371D-01  0.000000D+00 -0.194672D-05 -0.102141D-01  0.000000D+00
     20  0.000000D+00  0.251775D-02  0.000000D+00  0.000000D+00 -0.589638D-03
     21  0.771014D-05  0.000000D+00  0.251735D-02 -0.552095D-05  0.000000D+00
                6             7             8             9            10 
      6  0.156433D-01
      7  0.135900D-01  0.536974D-01
      8 -0.128177D-04  0.145520D-03  0.456386D-01
      9  0.592601D-02 -0.626669D-01 -0.748513D-03  0.368091D+00
     10 -0.681630D-02  0.239339D-02  0.466400D-02  0.344952D-02  0.537502D-01
     11  0.241841D-02 -0.628743D-03  0.356362D-02  0.343859D-02  0.542973D-01
     12  0.175924D-02 -0.577455D-02 -0.239964D-01 -0.842848D-02  0.315064D-01
     13 -0.676181D-02  0.239345D-02 -0.467997D-02  0.342788D-02  0.239255D-02
     14 -0.240547D-02  0.655576D-03  0.346782D-02 -0.338326D-02  0.531767D-02
     15  0.173692D-02 -0.577169D-02  0.240515D-01 -0.833276D-02  0.234472D-02
     16  0.000000D+00 -0.751408D-02  0.000000D+00 -0.160708D-03 -0.752338D-02
     17  0.000000D+00  0.111952D-04 -0.147467D-02 -0.109412D-04  0.417872D-02
     18  0.346298D-02 -0.482843D-02 -0.109366D-04  0.323161D-02  0.242642D-02
     19  0.000000D+00 -0.972715D-03 -0.135296D-05  0.583267D-03 -0.973663D-03
     20  0.000000D+00 -0.139594D-05  0.365299D-03  0.269000D-05 -0.524764D-03
     21 -0.589554D-03  0.605862D-03  0.269887D-05 -0.796766D-03 -0.305394D-03
               11            12            13            14            15 
     11  0.286789D+00
     12  0.139933D+00  0.126836D+00
     13 -0.532842D-02  0.231996D-02  0.537506D-01
     14 -0.143161D-01  0.136572D-01 -0.544435D-01  0.288084D+00
     15 -0.137676D-01  0.946518D-02  0.312547D-01 -0.139183D+00  0.125540D+00
     16  0.141426D-03  0.826934D-04 -0.752357D-02 -0.141837D-03  0.820466D-04
     17  0.204634D-02  0.204126D-02 -0.418993D-02  0.206532D-02 -0.203037D-02
     18  0.204228D-02 -0.289461D-03  0.240702D-02 -0.203139D-02 -0.308294D-03
     19 -0.504141D-03 -0.292441D-03 -0.973690D-03  0.505492D-03 -0.290086D-03
     20 -0.504288D-03 -0.504468D-03  0.526212D-03 -0.508985D-03  0.501778D-03
     21 -0.504791D-03  0.722749D-04 -0.302955D-03  0.502089D-03  0.769480D-04
               16            17            18            19            20 
     16  0.117523D+01
     17 -0.105993D-04  0.507509D-02
     18  0.392522D-03  0.000000D+00  0.507563D-02
     19 -0.114812D+01  0.107001D-04 -0.398008D-03  0.114502D+01
     20  0.106974D-04 -0.223627D-04  0.000000D+00 -0.106994D-04 -0.125778D-02
     21 -0.398062D-03  0.000000D+00 -0.229556D-04  0.398359D-03  0.000000D+00
               21 
     21 -0.125729D-02
 Leave Link  716 at Sun Oct 13 09:51:14 2024, MaxMem=  2684354560 cpu:               0.9 elap:               0.1
 (Enter /usr/local/g16_AVX//g16/l103.exe)

 GradGradGradGradGradGradGradGradGradGradGradGradGradGradGradGradGradGrad
 Berny optimization.
 Search for a local minimum.
 Step number   1 out of a maximum of    2
 All quantities printed in internal units (Hartrees-Bohrs-Radians)
 Second derivative matrix not updated -- analytic derivatives used.
 ITU=  0
     Eigenvalues ---   -0.01430  -0.00156  -0.00156   0.01156   0.01156
     Eigenvalues ---    0.04431   0.04780   0.04781   0.09007   0.10768
     Eigenvalues ---    0.10769   0.41189   0.95874   0.95880   2.30739
 Eigenvalue     1 is  -1.43D-02 should be greater than     0.000000 Eigenvector:
                          X1        X7        X6        X3        X4
   1                    0.79596  -0.35413  -0.34643   0.14796   0.14791
                          X5        X2        Z3        Y5        Y4
   1                    0.14790  -0.14745  -0.10568  -0.09186   0.09160
 Eigenvalue     2 is  -1.56D-03 should be greater than     0.000000 Eigenvector:
                          Y7        Y6        Y2        Y3        Y4
   1                    0.60896  -0.58979   0.21981  -0.21780  -0.21446
                          Y5        X5        Y1        X4        Z7
   1                   -0.21431  -0.17999  -0.17400   0.17354  -0.01780
 Eigenvalue     3 is  -1.56D-03 should be greater than     0.000000 Eigenvector:
                          Z7        Z6        Z2        Z5        Z4
   1                    0.60895  -0.58976   0.21982  -0.21693  -0.21675
                          Z3        X3        Z1        X4        X5
   1                   -0.21291  -0.20408  -0.17401   0.10774   0.09658
 Quadratic step=9.208D-01 exceeds max=3.000D-01 adjusted using Lamda=-2.996D-02.
 Angle between NR and scaled steps=   4.40 degrees.
 Angle between quadratic step and forces=  12.04 degrees.
 Linear search not attempted -- first point.
 B after Tr=     0.012876    0.000001   -0.000006
         Rot=    1.000000    0.000000   -0.000002    0.000000 Ang=  -0.00 deg.
 Variable       Old X    -DE/DX   Delta X   Delta X   Delta X     New X
                                 (Linear)    (Quad)   (Total)
    X1       -0.26390  -0.01201   0.00000  -0.25559  -0.24272  -0.50661
    Y1        0.00001  -0.00000   0.00000  -0.00000  -0.00000   0.00001
    Z1       -0.00029  -0.00001   0.00000  -0.00006  -0.00007  -0.00035
    X2       -4.11344   0.00343   0.00000   0.05969   0.07257  -4.04088
    Y2       -0.00000   0.00000   0.00000   0.00000   0.00000   0.00000
    Z2        0.00009   0.00001   0.00000   0.00002   0.00003   0.00011
    X3        0.14874   0.00020   0.00000  -0.02355  -0.01069   0.13806
    Y3        0.00465  -0.00000   0.00000  -0.00009  -0.00009   0.00457
    Z3       -1.99742   0.00101   0.00000   0.03638   0.03638  -1.96105
    X4        0.14951   0.00018   0.00000  -0.02384  -0.01096   0.13856
    Y4        1.72737  -0.00091   0.00000  -0.03170  -0.03170   1.69567
    Z4        1.00192  -0.00050   0.00000  -0.01819  -0.01820   0.98372
    X5        0.14952   0.00018   0.00000  -0.02384  -0.01096   0.13856
    Y5       -1.73198   0.00091   0.00000   0.03178   0.03178  -1.70019
    Z5        0.99389  -0.00050   0.00000  -0.01804  -0.01805   0.97584
    X6        4.43797   0.00301   0.00000   0.08714   0.10002   4.53799
    Y6        0.00001   0.00000   0.00000   0.00000   0.00000   0.00001
    Z6       -0.00034  -0.00001   0.00000  -0.00010  -0.00012  -0.00046
    X7        6.66298   0.00500   0.00000   0.08986   0.10273   6.76571
    Y7       -0.00002  -0.00000   0.00000  -0.00000  -0.00000  -0.00002
    Z7        0.00044   0.00000   0.00000   0.00006   0.00003   0.00047
         Item               Value     Threshold  Converged?
 Maximum Force            0.012008     0.000450     NO 
 RMS     Force            0.003034     0.000300     NO 
 Maximum Displacement     0.242718     0.001800     NO 
 RMS     Displacement     0.065132     0.001200     NO 
 Predicted change in Energy=-4.650687D-03
 GradGradGradGradGradGradGradGradGradGradGradGradGradGradGradGradGradGrad

 Leave Link  103 at Sun Oct 13 09:51:14 2024, MaxMem=  2684354560 cpu:               0.6 elap:               0.1
 (Enter /usr/local/g16_AVX//g16/l9999.exe)

 ----------------------------------------------------------------------

 Electric dipole moment (input orientation):
 (Debye = 10**-18 statcoulomb cm , SI units = C m)
                  (au)            (Debye)         (10**-30 SI)
   Tot        0.271776D+01      0.690785D+01      0.230421D+02
   x         -0.271776D+01     -0.690785D+01     -0.230421D+02
   y          0.000000D+00      0.000000D+00      0.000000D+00
   z         -0.199818D-03     -0.507888D-03     -0.169413D-02

 Dipole polarizability, Alpha (input orientation).
 (esu units = cm**3 , SI units = C**2 m**2 J**-1)
 Alpha(0;0):
               (au)            (10**-24 esu)      (10**-40 SI)
   iso        0.638748D+02      0.946526D+01      0.105315D+02
   aniso      0.745860D+02      0.110525D+02      0.122976D+02
   xx         0.113599D+03      0.168336D+02      0.187299D+02
   yx        -0.687528D-04     -0.101881D-04     -0.113358D-04
   yy         0.390128D+02      0.578111D+01      0.643235D+01
   zx         0.307914D-02      0.456282D-03      0.507682D-03
   zy         0.000000D+00      0.000000D+00      0.000000D+00
   zz         0.390127D+02      0.578108D+01      0.643232D+01

 ----------------------------------------------------------------------

 Dipole orientation:
     6         -0.00026784          0.00001246          0.26389649
    17          0.00038747         -0.00001393          4.11344243
     1         -1.99743253          0.00465690         -0.14859725
     1          1.00191551          1.72736592         -0.14958185
     1          0.99387216         -1.73197993         -0.14959705
     6         -0.00066267          0.00001866         -4.43797074
     7         -0.00005147          0.00000438         -6.66297780

 Electric dipole moment (dipole orientation):
 (Debye = 10**-18 statcoulomb cm , SI units = C m)
                  (au)            (Debye)         (10**-30 SI)
   Tot        0.271776D+01      0.690785D+01      0.230421D+02
   x          0.000000D+00      0.000000D+00      0.000000D+00
   y          0.000000D+00      0.000000D+00      0.000000D+00
   z          0.271776D+01      0.690785D+01      0.230421D+02

 Dipole polarizability, Alpha (dipole orientation).
 (esu units = cm**3 , SI units = C**2 m**2 J**-1)
 Alpha(0;0):
               (au)            (10**-24 esu)      (10**-40 SI)
   iso        0.638748D+02      0.946526D+01      0.105315D+02
   aniso      0.745860D+02      0.110525D+02      0.122976D+02
   xx         0.390127D+02      0.578108D+01      0.643232D+01
   yx         0.000000D+00      0.000000D+00      0.000000D+00
   yy         0.390128D+02      0.578111D+01      0.643235D+01
   zx         0.240467D-02      0.356336D-03      0.396477D-03
   zy        -0.149491D-03     -0.221523D-04     -0.246477D-04
   zz         0.113599D+03      0.168336D+02      0.187299D+02

 ----------------------------------------------------------------------
 1\1\GINC-NODO7\Freq\RB3LYP\6-31++G(d,p)\C2H3Cl1N1(1-)\ALANQF\13-Oct-20
 24\0\\#p b3lyp 6-31++g(d,p) scf=verytight NoSymm freq=noraman int=ultr
 afine\\RxCoord=1.09973 DE=52.51\\-1,1\C,-0.139648,0.000007,-0.000152\C
 l,-2.17674,-0.000001,0.000045\H,0.078712,0.002461,-1.05699\H,0.079119,
 0.914084,0.530194\H,0.079122,-0.916523,0.525943\C,2.348473,0.000003,-0
 .000178\N,3.525896,-0.000008,0.000232\\Version=ES64L-G16RevB.01\HF=-59
 2.9892225\RMSD=3.527e-09\RMSF=3.034e-03\ZeroPoint=0.0426192\Thermal=0.
 0470942\Dipole=-2.6612293,0.0000084,-0.0002213\DipoleDeriv=2.9285967,0
 .000004,-0.0001361,0.0000057,0.075258,0.0000003,-0.0002915,0.0000002,0
 .0753159,-1.9424722,-0.0000013,0.0000815,-0.0000055,-0.4265571,0.,0.00
 00744,0.,-0.4265481,-0.1113452,0.0000143,-0.0063957,0.0000631,0.071902
 9,0.0001071,-0.0273893,0.0001073,0.0256865,-0.1112959,0.0055437,0.0032
 208,0.0237723,0.0374013,-0.0200467,0.0138461,-0.0200191,0.0602904,-0.1
 11297,-0.00556,0.0031952,-0.0238369,0.0372158,0.0199393,0.0137354,0.01
 99116,0.060476,-0.5471778,-0.0000031,0.0001106,-0.000007,-0.3790459,0.
 ,0.0003524,0.,-0.3790507,-1.1050086,0.0000024,-0.0000763,0.0000082,-0.
 4161751,0.,-0.0003275,0.,-0.4161698\Polar=113.5987706,-0.0000688,39.01
 28479,0.0030791,-0.0000016,39.0126536\Quadrupole=-26.1009203,13.050878
 3,13.0500419,0.0000457,-0.0006975,0.0000022\PG=C01 [X(C2H3Cl1N1)]\NIma
 g=3\\0.04148129,-0.00000083,0.65393799,0.00010630,0.00000094,0.6538551
 8,0.01736123,0.00000012,-0.00000112,0.07239740,0.00000020,-0.02794330,
 0.,0.00000007,0.01564119,-0.00000171,-0.00000004,-0.02793886,-0.000011
 32,-0.00000007,0.01564326,-0.02819543,-0.00015050,0.06484569,-0.021801
 98,-0.00003166,0.01359002,0.05369736,-0.00014087,-0.05191712,0.0007143
 8,0.00001232,0.00035644,-0.00001282,0.00014552,0.04563862,0.06069398,0
 .00071436,-0.35969103,-0.00532703,-0.00001293,0.00592601,-0.06266691,-
 0.00074851,0.36809141,-0.02824437,-0.05618541,-0.03260537,-0.02179477,
 -0.01174753,-0.00681630,0.00239339,0.00466400,0.00344952,0.05375024,-0
 .05258870,-0.28210319,-0.13355954,0.00461125,0.00452465,0.00241841,-0.
 00062874,0.00356362,0.00343859,0.05429732,0.28678901,-0.03052218,-0.13
 355085,-0.12941525,0.00268012,0.00242050,0.00175924,-0.00577455,-0.023
 99636,-0.00842848,0.03150640,0.13993269,0.12683649,-0.02824427,0.05633
 659,-0.03234480,-0.02179508,0.01177898,-0.00676181,0.00239345,-0.00467
 997,0.00342788,0.00239255,-0.00532842,0.00231996,0.05375061,0.05273034
 ,-0.28333882,0.13284422,-0.00462378,0.00454708,-0.00240547,0.00065558,
 0.00346782,-0.00338326,0.00531767,-0.01431615,0.01365722,-0.05444347,0
 .28808373,-0.03027845,0.13283558,-0.12817788,0.00265876,-0.00240749,0.
 00173692,-0.00577169,0.02405154,-0.00833276,0.00234472,-0.01376764,0.0
 0946518,0.03125470,-0.13918341,0.12553988,0.00960441,-0.00000002,0.000
 00125,-0.01415269,-0.00000002,0.00000026,-0.00751408,0.00000035,-0.000
 16071,-0.00752338,0.00014143,0.00008269,-0.00752357,-0.00014184,0.0000
 8205,1.17523371,0.00000006,-0.01115330,0.00000002,-0.00000013,0.003463
 58,0.,0.00001120,-0.00147467,-0.00001094,0.00417872,0.00204634,0.00204
 126,-0.00418993,0.00206532,-0.00203037,-0.00001060,0.00507509,-0.00000
 565,0.,-0.01114951,0.00000611,0.,0.00346298,-0.00482843,-0.00001094,0.
 00323161,0.00242642,0.00204228,-0.00028946,0.00240702,-0.00203139,-0.0
 0030829,0.00039252,0.00000003,0.00507563,0.01623714,0.00000004,-0.0000
 0195,-0.01021412,-0.00000004,0.00000086,-0.00097271,-0.00000135,0.0005
 8327,-0.00097366,-0.00050414,-0.00029244,-0.00097369,0.00050549,-0.000
 29009,-1.14812440,0.00001070,-0.00039801,1.14502146,-0.00000019,0.0025
 1775,0.,0.00000014,-0.00058964,0.,-0.00000140,0.00036530,0.00000269,-0
 .00052476,-0.00050429,-0.00050447,0.00052621,-0.00050899,0.00050178,0.
 00001070,-0.00002236,0.,-0.00001070,-0.00125778,0.00000771,0.,0.002517
 35,-0.00000552,0.,-0.00058955,0.00060586,0.00000270,-0.00079677,-0.000
 30539,-0.00050479,0.00007227,-0.00030296,0.00050209,0.00007695,-0.0003
 9806,0.,-0.00002296,0.00039836,0.,-0.00125729\\0.01200790,0.00000058,0
 .00001124,-0.00343309,-0.00000016,-0.00000657,-0.00020123,0.00000232,-
 0.00100682,-0.00018182,0.00090559,0.00050120,-0.00018182,-0.00090825,0
 .00049710,-0.00301475,-0.00000013,0.00000562,-0.00499519,0.00000005,-0
 .00000178\\\@


 SLITHERY-DITHERY
 FRIEDRICH A. KEKULE
 DREAMT ON A BUS OF THINGS
 FREUD WOULD THINK KEEN.
 MOST OF THE TIME THEY WERE
 HERPETOLOGICAL
 BITING THEIR TAILS IN THE
 SHAPE OF BENZENE.
 Job cpu time:       0 days  0 hours  3 minutes 45.6 seconds.
 Elapsed time:       0 days  0 hours  0 minutes  9.6 seconds.
 File lengths (MBytes):  RWF=     88 Int=      0 D2E=      0 Chk=      2 Scr=      2
 Normal termination of Gaussian 16 at Sun Oct 13 09:51:14 2024.
