RxCoord=1.09973 DE=52.51                                                
Freq      RB3LYP                                                      6-31++G(d,p)        
Number of atoms                            I                7
Info1-9                                    I   N=           9
          16          16           0           0           0         100
           6          18        -502
Full Title                                 C   N=           2
RxCoord=1.09973 DE=52.51
Route                                      C   N=           6
#p b3lyp 6-31++g(d,p) scf=verytight NoSymm freq=noraman int=
ultrafine   
Charge                                     I               -1
Multiplicity                               I                1
Number of electrons                        I               40
Number of alpha electrons                  I               20
Number of beta electrons                   I               20
Number of basis functions                  I               98
Number of independent functions            I               98
Number of point charges in /Mol/           I                0
Number of translation vectors              I                0
Atomic numbers                             I   N=           7
           6          17           1           1           1           6
           7
Nuclear charges                            R   N=           7
  6.00000000E+00  1.70000000E+01  1.00000000E+00  1.00000000E+00  1.00000000E+00
  6.00000000E+00  7.00000000E+00
Current cartesian coordinates              R   N=          21
 -2.63896474E-01  1.32280829E-05 -2.87238371E-04 -4.11344244E+00 -1.88972612E-06
  8.50376756E-05  1.48744123E-01  4.65061599E-03 -1.99742162E+00  1.49513241E-01
  1.72736841E+00  1.00192145E+00  1.49518910E-01 -1.73197746E+00  9.93888227E-01
  4.43797078E+00  5.66917837E-06 -3.36371250E-04  6.66297778E+00 -1.51178090E-05
  4.38416461E-04
Number of symbols in /Mol/                 I                0
Force Field                                I                0
Atom Types                                 C   N=           7
                                                            
                        
Int Atom Types                             I   N=           7
           0           0           0           0           0           0
           0
MM charges                                 R   N=           7
  0.00000000E+00  0.00000000E+00  0.00000000E+00  0.00000000E+00  0.00000000E+00
  0.00000000E+00  0.00000000E+00
Integer atomic weights                     I   N=           7
          12          35           1           1           1          12
          14
Real atomic weights                        R   N=           7
  1.20000000E+01  3.49688527E+01  1.00782504E+00  1.00782504E+00  1.00782504E+00
  1.20000000E+01  1.40030740E+01
Atom fragment info                         I   N=           7
           0           0           0           0           0           0
           0
Atom residue num                           I   N=           7
           0           0           0           0           0           0
           0
Nuclear spins                              I   N=           7
           0           3           1           1           1           0
           2
Nuclear ZEff                               R   N=           7
 -3.60000000E+00 -1.42400000E+01 -1.00000000E+00 -1.00000000E+00 -1.00000000E+00
 -3.60000000E+00 -4.55000000E+00
Nuclear ZNuc                               R   N=           7
  6.00000000E+00  1.70000000E+01  1.00000000E+00  1.00000000E+00  1.00000000E+00
  6.00000000E+00  7.00000000E+00
Nuclear QMom                               R   N=           7
  0.00000000E+00 -8.16500000E+00  0.00000000E+00  0.00000000E+00  0.00000000E+00
  0.00000000E+00  2.04400000E+00
Nuclear GFac                               R   N=           7
  0.00000000E+00  8.21874000E-01  2.79284600E+00  2.79284600E+00  2.79284600E+00
  0.00000000E+00  4.03761000E-01
MicOpt                                     I   N=           7
          -1          -1          -1          -1          -1          -1
          -1
Number of residues                         I                0
Number of secondary structures             I                0
Number of contracted shells                I               33
Number of primitive shells                 I               72
Pure/Cartesian d shells                    I                1
Pure/Cartesian f shells                    I                0
Highest angular momentum                   I                2
Largest degree of contraction              I                6
Shell types                                I   N=          33
           0          -1          -1          -1           2           0
          -1          -1          -1          -1           2           0
           0           0           1           0           0           0
           1           0           0           0           1           0
          -1          -1          -1           2           0          -1
          -1          -1           2
Number of primitives per shell             I   N=          33
           6           3           1           1           1           6
           6           3           1           1           1           3
           1           1           1           3           1           1
           1           3           1           1           1           6
           3           1           1           1           6           3
           1           1           1
Shell to atom map                          I   N=          33
           1           1           1           1           1           2
           2           2           2           2           2           3
           3           3           3           4           4           4
           4           5           5           5           5           6
           6           6           6           6           7           7
           7           7           7
Primitive exponents                        R   N=          72
  3.04752488E+03  4.57369518E+02  1.03948685E+02  2.92101553E+01  9.28666296E+00
  3.16392696E+00  7.86827235E+00  1.88128854E+00  5.44249258E-01  1.68714478E-01
  4.38000000E-02  8.00000000E-01  2.51801000E+04  3.78035000E+03  8.60474000E+02
  2.42145000E+02  7.73349000E+01  2.62470000E+01  4.91765000E+02  1.16984000E+02
  3.74153000E+01  1.37834000E+01  5.45215000E+00  2.22588000E+00  3.18649000E+00
  1.14427000E+00  4.20377000E-01  1.42657000E-01  4.83000000E-02  7.50000000E-01
  1.87311370E+01  2.82539436E+00  6.40121692E-01  1.61277759E-01  3.60000000E-02
  1.10000000E+00  1.87311370E+01  2.82539436E+00  6.40121692E-01  1.61277759E-01
  3.60000000E-02  1.10000000E+00  1.87311370E+01  2.82539436E+00  6.40121692E-01
  1.61277759E-01  3.60000000E-02  1.10000000E+00  3.04752488E+03  4.57369518E+02
  1.03948685E+02  2.92101553E+01  9.28666296E+00  3.16392696E+00  7.86827235E+00
  1.88128854E+00  5.44249258E-01  1.68714478E-01  4.38000000E-02  8.00000000E-01
  4.17351146E+03  6.27457911E+02  1.42902093E+02  4.02343293E+01  1.28202129E+01
  4.39043701E+00  1.16263619E+01  2.71627981E+00  7.72218397E-01  2.12031498E-01
  6.39000000E-02  8.00000000E-01
Contraction coefficients                   R   N=          72
  1.83473713E-03  1.40373228E-02  6.88426223E-02  2.32184443E-01  4.67941348E-01
  3.62311985E-01 -1.19332420E-01 -1.60854152E-01  1.14345644E+00  1.00000000E+00
  1.00000000E+00  1.00000000E+00  1.83295985E-03  1.40341988E-02  6.90973943E-02
  2.37451980E-01  4.83033960E-01  3.39855972E-01 -2.29739142E-03 -3.07137189E-02
 -1.12528069E-01  4.50163278E-02  5.89353363E-01  4.65206287E-01 -2.51828028E-01
  6.15892514E-02  1.06018433E+00  1.00000000E+00  1.00000000E+00  1.00000000E+00
  3.34946043E-02  2.34726953E-01  8.13757326E-01  1.00000000E+00  1.00000000E+00
  1.00000000E+00  3.34946043E-02  2.34726953E-01  8.13757326E-01  1.00000000E+00
  1.00000000E+00  1.00000000E+00  3.34946043E-02  2.34726953E-01  8.13757326E-01
  1.00000000E+00  1.00000000E+00  1.00000000E+00  1.83473713E-03  1.40373228E-02
  6.88426223E-02  2.32184443E-01  4.67941348E-01  3.62311985E-01 -1.19332420E-01
 -1.60854152E-01  1.14345644E+00  1.00000000E+00  1.00000000E+00  1.00000000E+00
  1.83477216E-03  1.39946270E-02  6.85865518E-02  2.32240873E-01  4.69069948E-01
  3.60455199E-01 -1.14961182E-01 -1.69117479E-01  1.14585195E+00  1.00000000E+00
  1.00000000E+00  1.00000000E+00
P(S=P) Contraction coefficients            R   N=          72
  0.00000000E+00  0.00000000E+00  0.00000000E+00  0.00000000E+00  0.00000000E+00
  0.00000000E+00  6.89990666E-02  3.16423961E-01  7.44308291E-01  1.00000000E+00
  1.00000000E+00  0.00000000E+00  0.00000000E+00  0.00000000E+00  0.00000000E+00
  0.00000000E+00  0.00000000E+00  0.00000000E+00  3.98940088E-03  3.03177067E-02
  1.29880029E-01  3.27951072E-01  4.53527100E-01  2.52154056E-01 -1.42993147E-02
  3.23572333E-01  7.43507765E-01  1.00000000E+00  1.00000000E+00  0.00000000E+00
  0.00000000E+00  0.00000000E+00  0.00000000E+00  0.00000000E+00  0.00000000E+00
  0.00000000E+00  0.00000000E+00  0.00000000E+00  0.00000000E+00  0.00000000E+00
  0.00000000E+00  0.00000000E+00  0.00000000E+00  0.00000000E+00  0.00000000E+00
  0.00000000E+00  0.00000000E+00  0.00000000E+00  0.00000000E+00  0.00000000E+00
  0.00000000E+00  0.00000000E+00  0.00000000E+00  0.00000000E+00  6.89990666E-02
  3.16423961E-01  7.44308291E-01  1.00000000E+00  1.00000000E+00  0.00000000E+00
  0.00000000E+00  0.00000000E+00  0.00000000E+00  0.00000000E+00  0.00000000E+00
  0.00000000E+00  6.75797439E-02  3.23907296E-01  7.40895140E-01  1.00000000E+00
  1.00000000E+00  0.00000000E+00
Coordinates of each shell                  R   N=          99
 -2.63896474E-01  1.32280829E-05 -2.87238371E-04 -2.63896474E-01  1.32280829E-05
 -2.87238371E-04 -2.63896474E-01  1.32280829E-05 -2.87238371E-04 -2.63896474E-01
  1.32280829E-05 -2.87238371E-04 -2.63896474E-01  1.32280829E-05 -2.87238371E-04
 -4.11344244E+00 -1.88972612E-06  8.50376756E-05 -4.11344244E+00 -1.88972612E-06
  8.50376756E-05 -4.11344244E+00 -1.88972612E-06  8.50376756E-05 -4.11344244E+00
 -1.88972612E-06  8.50376756E-05 -4.11344244E+00 -1.88972612E-06  8.50376756E-05
 -4.11344244E+00 -1.88972612E-06  8.50376756E-05  1.48744123E-01  4.65061599E-03
 -1.99742162E+00  1.48744123E-01  4.65061599E-03 -1.99742162E+00  1.48744123E-01
  4.65061599E-03 -1.99742162E+00  1.48744123E-01  4.65061599E-03 -1.99742162E+00
  1.49513241E-01  1.72736841E+00  1.00192145E+00  1.49513241E-01  1.72736841E+00
  1.00192145E+00  1.49513241E-01  1.72736841E+00  1.00192145E+00  1.49513241E-01
  1.72736841E+00  1.00192145E+00  1.49518910E-01 -1.73197746E+00  9.93888227E-01
  1.49518910E-01 -1.73197746E+00  9.93888227E-01  1.49518910E-01 -1.73197746E+00
  9.93888227E-01  1.49518910E-01 -1.73197746E+00  9.93888227E-01  4.43797078E+00
  5.66917837E-06 -3.36371250E-04  4.43797078E+00  5.66917837E-06 -3.36371250E-04
  4.43797078E+00  5.66917837E-06 -3.36371250E-04  4.43797078E+00  5.66917837E-06
 -3.36371250E-04  4.43797078E+00  5.66917837E-06 -3.36371250E-04  6.66297778E+00
 -1.51178090E-05  4.38416461E-04  6.66297778E+00 -1.51178090E-05  4.38416461E-04
  6.66297778E+00 -1.51178090E-05  4.38416461E-04  6.66297778E+00 -1.51178090E-05
  4.38416461E-04  6.66297778E+00 -1.51178090E-05  4.38416461E-04
Num ILSW                                   I              100
ILSW                                       I   N=         100
           0           1           0           0           2           0
           0           0           0           0         402          -1
           5           0           0           0           2           0
           0           0           0           0           1           0
           1           1           0           0           0           0
           0           0      100000           0          -1           0
           0           0           0           0           0           0
           0           0           0           1           0           0
           0 -2000000000           1           0           0           0
           0           0           4          52           0           0
           0           0           5           0           0           0
           0           0           0           7           0           1
           0           0           0           0           0           0
           0           0           0           0           0           0
           0           0           0           0           0           0
           0           0           0           0           0           0
           0           0           0           0
Num RLSW                                   I               52
RLSW                                       R   N=          52
  8.00000000E-01  7.20000000E-01  1.00000000E+00  8.10000000E-01  2.00000000E-01
  0.00000000E+00  0.00000000E+00  1.00000000E+00  0.00000000E+00  0.00000000E+00
  0.00000000E+00  0.00000000E+00  1.00000000E+00  0.00000000E+00  0.00000000E+00
  0.00000000E+00  0.00000000E+00  1.00000000E+00  0.00000000E+00  0.00000000E+00
  0.00000000E+00  0.00000000E+00  1.00000000E+00  0.00000000E+00  0.00000000E+00
  0.00000000E+00  0.00000000E+00  1.00000000E+00  0.00000000E+00  0.00000000E+00
  0.00000000E+00  0.00000000E+00  1.00000000E+00  0.00000000E+00  0.00000000E+00
  0.00000000E+00  0.00000000E+00  0.00000000E+00  1.00000000E+00  1.00000000E+00
  0.00000000E+00  1.00000000E+00  0.00000000E+00  0.00000000E+00  0.00000000E+00
  0.00000000E+00  0.00000000E+00  0.00000000E+00  0.00000000E+00  0.00000000E+00
  0.00000000E+00  0.00000000E+00
MxBond                                     I                4
NBond                                      I   N=           7
           4           1           1           1           1           1
           1
IBond                                      I   N=          28
           2           3           4           5           1           0
           0           0           1           0           0           0
           1           0           0           0           1           0
           0           0           7           0           0           0
           6           0           0           0
RBond                                      R   N=          28
  1.00000000E+00  1.00000000E+00  1.00000000E+00  1.00000000E+00  1.00000000E+00
  0.00000000E+00  0.00000000E+00  0.00000000E+00  1.00000000E+00  0.00000000E+00
  0.00000000E+00  0.00000000E+00  1.00000000E+00  0.00000000E+00  0.00000000E+00
  0.00000000E+00  1.00000000E+00  0.00000000E+00  0.00000000E+00  0.00000000E+00
  3.00000000E+00  0.00000000E+00  0.00000000E+00  0.00000000E+00  3.00000000E+00
  0.00000000E+00  0.00000000E+00  0.00000000E+00
Virial Ratio                               R      2.004625467714833E+00
SCF Energy                                 R     -5.929892224650642E+02
Total Energy                               R     -5.929892224650642E+02
RMS Force                                  R      3.033780445091406E-03
RMS Density                                R      3.526510274599041E-09
NImag                                      I                3
Job Status                                 I                1
Nuclear derivative order                   I                2
External E-field                           R   N=          35
  0.00000000E+00  0.00000000E+00  0.00000000E+00  0.00000000E+00  0.00000000E+00
  0.00000000E+00  0.00000000E+00  0.00000000E+00  0.00000000E+00  0.00000000E+00
  0.00000000E+00  0.00000000E+00  0.00000000E+00  0.00000000E+00  0.00000000E+00
  0.00000000E+00  0.00000000E+00  0.00000000E+00  0.00000000E+00  0.00000000E+00
  0.00000000E+00  0.00000000E+00  0.00000000E+00  0.00000000E+00  0.00000000E+00
  0.00000000E+00  0.00000000E+00  0.00000000E+00  0.00000000E+00  0.00000000E+00
  0.00000000E+00  0.00000000E+00  0.00000000E+00  0.00000000E+00  0.00000000E+00
IOpCl                                      I                0
IROHF                                      I                0
Alpha Orbital Energies                     R   N=          98
 -1.01373583E+02 -1.41140465E+01 -1.01059752E+01 -9.98091005E+00 -9.28874724E+00
 -7.05073347E+00 -7.04407427E+00 -7.04407412E+00 -6.68686629E-01 -6.59040993E-01
 -5.40146682E-01 -3.02653575E-01 -3.02617994E-01 -2.36501674E-01 -1.92421334E-01
 -1.52129667E-01 -1.52125213E-01 -1.16326227E-01 -1.16325914E-01 -8.62306859E-02
  1.12590979E-01  1.26482510E-01  1.48527216E-01  1.48529613E-01  1.62529036E-01
  1.92486468E-01  2.05803431E-01  2.05804533E-01  2.21954387E-01  2.21971165E-01
  2.48789492E-01  2.49572677E-01  2.49575718E-01  2.63762834E-01  2.63763528E-01
  2.64029443E-01  3.11767612E-01  3.42559356E-01  3.42583171E-01  3.73916370E-01
  3.79200916E-01  3.79202357E-01  3.80461928E-01  4.62483352E-01  4.73900567E-01
  7.16757012E-01  7.59813707E-01  7.60505465E-01  7.60510720E-01  7.93624158E-01
  7.93644541E-01  8.81757516E-01  8.81767374E-01  8.84960906E-01  9.88871401E-01
  1.02080588E+00  1.02930078E+00  1.02932238E+00  1.07378971E+00  1.07381031E+00
  1.09582789E+00  1.09587547E+00  1.12517117E+00  1.17917644E+00  1.17917963E+00
  1.25017948E+00  1.33287142E+00  1.36458391E+00  1.50550378E+00  1.59886244E+00
  1.59892166E+00  1.76149217E+00  1.76149434E+00  1.78434643E+00  1.78434662E+00
  1.82730747E+00  2.13929670E+00  2.17357172E+00  2.17374469E+00  2.18413266E+00
  2.18413941E+00  2.18965614E+00  2.57440683E+00  2.57454873E+00  2.60194686E+00
  2.81638972E+00  2.81639646E+00  2.83433834E+00  2.94629071E+00  2.94651594E+00
  3.25739179E+00  3.43181330E+00  3.56790990E+00  3.56809814E+00  4.20558640E+00
  4.46048386E+00  4.47864964E+00  4.56274107E+00
Alpha MO coefficients                      R   N=        9604
 -2.59068667E-06 -5.75481813E-05 -2.94694861E-05 -9.34244659E-11  4.78571301E-09
  1.87126205E-05 -1.08876499E-04 -4.02355377E-10 -5.69626909E-09 -1.58834408E-04
 -3.19083210E-05  1.44064386E-10  2.29652367E-08  8.01024130E-05  1.82970408E-05
  1.82892026E-05  3.55110549E-10 -1.81732991E-09  4.83264870E-11  9.95997447E-01
  1.51505757E-02  2.74683624E-05  1.44361711E-10 -2.17162115E-09 -2.10564251E-02
 -1.24981375E-05 -3.60820833E-11  1.74892197E-09  1.85810185E-03 -6.39599711E-05
 -3.23207844E-10  6.55047891E-09 -3.07104752E-04  9.91859098E-06  9.64018340E-11
 -2.53837980E-09  7.49946555E-03  7.52750107E-03  7.52750111E-03 -1.30620791E-10
  4.02345480E-09  3.69354836E-13 -1.00951879E-05 -9.44927369E-06  4.73693779E-05
  2.21733457E-05  1.03375713E-08 -4.40778338E-06 -1.00826407E-05 -9.44818687E-06
  4.73378821E-05  2.21739011E-05  3.81361672E-06  2.21284821E-06 -1.00827935E-05
 -9.44836781E-06  4.73386548E-05  2.21738424E-05 -3.82363941E-06  2.19510902E-06
 -1.60437828E-06 -4.06622049E-06  2.60196451E-06  6.98476315E-11 -3.62626956E-09
 -1.44382330E-04 -1.62647605E-04  9.70537002E-10 -3.06241855E-08 -2.43430061E-05
 -8.85879821E-05  2.33751273E-10 -6.88847712E-11 -1.02799841E-05 -1.62925836E-06
 -1.62935216E-06  1.59069873E-10 -6.96979678E-09 -1.42366184E-13 -3.16559510E-06
 -1.34670721E-05 -6.58364717E-07 -2.99208017E-11  1.57303934E-09  1.87271097E-04
 -9.09880182E-05  1.03639503E-09 -4.04650901E-08  1.22688638E-04  7.73147646E-06
  3.58122245E-10 -1.90574986E-08  3.03198979E-06 -8.24885129E-06 -8.24882497E-06
 -1.58408921E-10  6.20855368E-09  4.40418069E-13 -1.71151864E-06  1.07045223E-05
 -2.18320452E-05  3.95682845E-11  1.87307753E-09  4.12115324E-05  3.36853629E-05
  1.12257662E-10 -3.98668755E-08  1.24277084E-03  4.60672457E-04  1.69143586E-09
 -1.51792919E-07 -2.27442191E-05 -1.64340180E-06 -1.64463817E-06 -4.67618207E-11
  3.65838332E-09  1.11971731E-12  1.36524249E-07  1.79245108E-06  8.71253285E-08
  9.03860399E-12 -3.45626800E-10  4.88807715E-06 -8.46511492E-07 -5.24038538E-11
  1.94852826E-09 -5.06890954E-05  6.61177178E-07  1.76032626E-10 -4.13457777E-09
  1.73828169E-04  1.25925778E-05 -8.96044357E-10  4.95611565E-08  6.10560942E-06
  2.18913442E-06  2.18952258E-06  2.22817384E-12  7.57936783E-10 -4.76582237E-12
  2.68915127E-06 -8.58091487E-05 -1.61576530E-04 -5.58761312E-06  1.37624944E-08
 -5.92551350E-06  2.67443426E-06 -8.57159008E-05 -1.61726573E-04 -5.58637622E-06
  5.12218422E-06  2.97434735E-06  2.67413021E-06 -8.57148517E-05 -1.61731455E-04
 -5.58633321E-06 -5.13589845E-06  2.95050526E-06  8.41212335E-05  2.04896348E-04
 -3.13741500E-04  2.83747410E-09 -1.05439338E-07 -2.12571266E-04 -3.74085756E-04
  4.03151025E-09 -1.51775160E-07  9.62961825E-04  1.30556772E-03 -1.06671158E-08
  3.71812534E-07 -7.89446226E-04 -1.00390608E-05 -1.00400124E-05  8.41139465E-09
 -3.13405832E-07 -6.98768403E-13  9.92700687E-01  3.44611092E-02 -1.46276417E-03
  1.35472001E-08 -5.03806269E-07  5.15980871E-03  1.51514443E-04 -1.43542003E-09
  5.14177824E-08 -3.03350227E-03 -1.77475386E-05 -4.02566409E-10  2.72481630E-08
 -7.68228240E-03 -8.42289326E-03 -8.42289337E-03 -7.95325259E-09  2.96261567E-07
 -5.96600028E-12  9.93064186E-01  4.93112229E-02 -3.16157229E-04  2.21705756E-09
 -2.21191527E-07 -1.62104480E-02 -9.22840259E-05  2.05477940E-09  1.26067867E-06
  5.23645590E-03 -3.23734629E-03 -1.09898239E-08  1.05984407E-06 -9.27974088E-03
 -8.61215168E-03 -8.61235442E-03 -1.17847813E-09  1.50863243E-07  2.02215435E-09
 -7.50321807E-06 -5.85589635E-05 -3.09141644E-05 -9.15638227E-11  7.53163653E-09
 -2.70066117E-04  2.17927327E-04  6.58200366E-10 -4.61748520E-08  2.14296887E-03
  1.25801107E-03  5.68911267E-09 -1.20406941E-07 -4.56702611E-03 -1.68844365E-03
 -7.93456925E-09  4.00823121E-09  1.55019150E-04 -1.23999777E-04 -1.24015033E-04
  1.35618567E-09 -4.37680825E-08  1.35425532E-10 -1.75295451E-04  3.04329895E-03
 -9.31116105E-04  5.99569655E-05  3.73158251E-07 -1.60752368E-04 -1.75407307E-04
  3.04195187E-03 -9.32024396E-04  6.00035134E-05  1.39086236E-04  8.06711421E-05
 -1.75404014E-04  3.04195246E-03 -9.32023839E-04  6.00031182E-05 -1.39458171E-04
  8.00234901E-05 -9.83844620E-06 -1.66557019E-04  4.82670584E-05 -3.20765115E-10
  2.28791775E-08 -1.45730206E-03 -2.38365109E-03  1.70609081E-08 -6.59925159E-07
  1.91920152E-03  2.51451537E-04  8.70563502E-09 -4.07991070E-07  4.05253975E-05
 -4.04148844E-05 -4.03924135E-05  1.01172307E-09 -4.78940259E-08  1.08752878E-10
 -6.22320511E-05 -2.60886824E-04  2.46177013E-05 -1.16928158E-09  4.69170530E-08
  2.88566101E-03 -1.06260153E-03  1.37366587E-08 -5.16904532E-07 -4.08352561E-04
 -2.00017304E-04 -7.80369755E-09  3.78612945E-07 -6.23167311E-05 -1.37345546E-04
 -1.37347972E-04 -6.31357136E-10  1.84764814E-08 -8.68254834E-13 -4.26734612E-05
 -1.82068530E-04 -7.58766837E-05 -3.58537142E-11  1.58287461E-08  5.44550208E-04
  7.68027792E-04  2.98361744E-09 -2.98444812E-07 -3.27790790E-04  9.90170949E-03
  1.31965613E-08 -5.82203045E-07  8.27601263E-05 -3.88522840E-05 -3.88552192E-05
 -2.79859506E-10 -1.97902173E-08  1.51830205E-10  2.56434807E-07  9.52726630E-06
  9.37601686E-06  1.27966808E-10 -3.78679078E-09  1.99396408E-05 -6.21889672E-05
 -7.62099447E-10  2.22357320E-08 -3.22409485E-04  4.92649792E-04  3.21075001E-09
 -8.06451340E-08  9.49153714E-03  2.47505997E-03  1.75369452E-08 -3.32301451E-07
  6.52206177E-05  1.46038177E-08  1.89819632E-08  6.28918471E-10 -1.02693910E-08
  9.94057684E-12 -3.38649662E-05 -4.56389651E-04  2.41161186E-04 -2.24415851E-05
 -1.30761363E-08  5.49807282E-06 -3.38780533E-05 -4.55992991E-04  2.41297428E-04
 -2.23438732E-05 -4.79405877E-06 -2.76032571E-06 -3.38786193E-05 -4.55985615E-04
  2.41297834E-04 -2.23419904E-05  4.80722766E-06 -2.73861869E-06  9.92834254E-01
  4.94395633E-02  1.74426348E-03 -1.82013610E-08  7.04117744E-07 -1.05346281E-02
 -6.93677377E-05  7.98634409E-09 -3.77165593E-07 -1.36864752E-02  2.57927117E-03
 -3.12150085E-09 -6.50070140E-07 -8.46637500E-03 -9.72813893E-03 -9.72814351E-03
 -1.34780493E-08  5.04499965E-07  3.87662219E-12 -4.80713188E-04  1.20427006E-04
  4.01083478E-04 -3.33532458E-09  1.30518080E-07 -1.94744296E-03  8.91996809E-04
 -1.13735689E-08  4.00723833E-07  9.25286385E-03 -4.04104910E-03  3.60211650E-08
 -9.87254045E-07 -2.23451868E-04  2.07251849E-04  2.07252391E-04  5.03983888E-09
 -1.93697923E-07  5.03668006E-13 -5.61727378E-05  8.22370296E-05  1.86530704E-04
  6.89275652E-10  5.54744049E-09  1.97647857E-03 -1.73711003E-03 -5.28090218E-10
  7.68653807E-08 -1.41115832E-02  3.33006803E-02  6.51326642E-08 -2.60365387E-06
 -3.91517570E-04 -5.18847516E-05 -5.19664519E-05 -1.72057488E-09  2.07253969E-08
  1.09693935E-09 -2.84616861E-01  1.02275658E+00  3.22112645E-03  1.80800125E-08
 -2.53053734E-07  7.58308372E-02  4.86058685E-04  1.54720846E-09 -5.24039446E-08
 -2.51581830E-02 -1.65432796E-03 -5.22285672E-09  1.55917870E-07  4.76124553E-02
  1.41974865E-02  7.26361666E-08 -1.69618113E-06 -1.53926952E-02 -1.55473442E-02
 -1.55473497E-02  1.27067677E-09 -1.94626769E-08  5.01091717E-11 -5.14320374E-05
 -6.38499968E-04  2.09185902E-05 -4.96469227E-05 -2.13287525E-09  6.87402417E-07
 -5.14712144E-05 -6.38418536E-04  2.21730709E-05 -4.94807693E-05 -5.76449591E-07
 -3.16109560E-07 -5.14713946E-05 -6.38404487E-04  2.21463091E-05 -4.94824302E-05
  5.78477507E-07 -3.14371999E-07  1.68600959E-05  7.16358634E-05  3.55570472E-05
 -1.32021777E-09  6.48041543E-08 -5.48299061E-04 -8.70595751E-05  4.66126359E-09
 -1.93383968E-07 -2.45319094E-02  1.17297878E-02 -6.58303364E-08 -4.79724854E-08
  8.95705675E-05  1.78905710E-05  1.78859707E-05  5.78930425E-11  2.57051958E-10
  8.20526542E-12 -1.82672610E-05 -5.11064757E-05 -1.33250642E-05 -1.85420919E-10
  4.41679379E-08  3.73380542E-04  1.80828713E-04 -1.74450602E-09 -1.15480651E-07
  4.08412518E-04 -2.59025116E-03  2.25888343E-08  2.82633874E-07 -8.30046079E-05
 -3.81862543E-05 -3.81850833E-05  5.44925118E-10 -2.23171895E-08 -1.50055438E-11
  9.63510498E-05  1.00186889E-03 -3.29873515E-04 -1.38362377E-10  1.06995376E-08
 -4.30920750E-04  9.93559368E-04 -5.14463828E-10  8.38817295E-07  1.46581691E-02
 -6.22113315E-02 -9.13350384E-08  2.50996587E-06 -8.45004452E-04  3.06379048E-04
  3.06172339E-04 -5.16836630E-09  6.04714314E-08  1.62876803E-09  9.54596175E-04
 -3.60182637E-03  9.90470759E-01  4.68060846E-06 -5.87690769E-05 -4.06190498E-05
  3.10634102E-02  1.46629886E-07 -1.95033014E-06  3.07058114E-03 -1.35854006E-02
 -6.33846565E-08  9.87615904E-07 -6.04446474E-02 -1.21580244E-02 -9.78831203E-08
  2.18220044E-06  2.66290327E-04 -2.36923647E-04 -2.36934900E-04  1.43194113E-09
 -5.03928183E-08 -3.25119669E-11 -2.27426223E-04  1.50563493E-03 -5.39483783E-03
 -2.93403548E-04  6.60732061E-08 -2.87614443E-05 -2.27847611E-04  1.50502001E-03
 -5.39528767E-03 -2.93154027E-04  2.50100490E-05  1.45049898E-05 -2.27841050E-04
  1.50500903E-03 -5.39531807E-03 -2.93158933E-04 -2.50786199E-05  1.43887105E-05
 -4.57100776E-05 -2.14715412E-04 -9.00934247E-05  1.63703692E-09 -1.23234743E-07
  3.04148976E-03  1.51113813E-03 -2.03933027E-08  9.50548702E-07  6.31074800E-02
 -2.45361580E-02  1.01970875E-07  1.13033372E-06  2.11205655E-05 -7.72112142E-05
 -7.72075878E-05 -2.98359941E-09  1.09698127E-07 -1.57317604E-11 -1.26805191E-05
 -2.85587556E-05  3.28377931E-05 -5.11833090E-11 -6.00072385E-08 -7.21698537E-04
  6.69230361E-04 -4.16830054E-09  4.38499925E-07 -9.78387176E-03  7.19049925E-03
 -6.36000860E-08  1.51532004E-07 -9.18466507E-05 -1.27453119E-05 -1.27498918E-05
  9.30783025E-10 -1.87888311E-08 -1.25999856E-11 -3.58790014E-10 -2.37828086E-09
  2.05417902E-09 -5.85876822E-05 -3.31751076E-07  9.61848298E-09 -1.21038238E-08
  2.92148083E-04  1.65526805E-06 -3.07622125E-08 -1.00652507E-07  2.78560395E-04
  1.56876751E-06  3.86343256E-10  9.30073568E-08 -9.37784084E-08 -6.78621747E-05
 -3.83739211E-07 -8.25438136E-05  6.23203357E-10 -2.38001558E-09 -4.34928437E-06
  9.90832666E-01  5.60749589E-03  5.71562185E-11 -1.30275524E-07  2.95812088E-02
  1.67410830E-04  1.12354428E-09  4.43884978E-08 -1.15862258E-02 -6.55696209E-05
 -8.93462266E-08 -4.23586975E-08  5.15079375E-03  2.91477729E-05 -3.27281133E-09
 -3.92520000E-09  5.51503191E-09  2.08847659E-04  1.18184506E-06  5.10762199E-06
  2.83606890E-07 -1.90942500E-06  1.44426504E-05  6.72225014E-07 -2.72856022E-05
 -3.82126908E-07 -7.36792594E-05  4.96091734E-04 -3.76013134E-03 -1.74473478E-04
 -7.84824534E-05 -2.98114279E-05  7.33951259E-05 -4.94188697E-04  3.74568913E-03
  1.73806041E-04 -7.84214783E-05  2.91514857E-05 -3.17059618E-10 -1.09799030E-09
  5.02054681E-10  5.66802606E-05  3.20511340E-07 -9.27654996E-09 -1.63452685E-08
 -2.34095748E-04 -1.32366622E-06  1.07044837E-07 -6.97765621E-08  1.02697894E-03
  5.80778132E-06 -1.21257607E-09 -3.68997741E-09  2.80090281E-09 -1.14476946E-07
 -6.56042731E-10  3.00928759E-06 -3.15134102E-10 -1.42740789E-09 -1.64393909E-10
 -2.30226398E-05 -1.30377747E-07  1.82438078E-08 -8.02433690E-09  1.39126078E-04
  7.87513544E-07  6.04918186E-09  1.98095256E-08 -3.69770065E-04 -2.09308355E-06
  8.31935278E-12 -3.41862494E-09  2.25455827E-09 -1.66596512E-05 -9.41844487E-08
  2.56144750E-06 -2.64995477E-08 -1.42874564E-07  1.68071727E-08  3.31561281E-07
 -5.86181831E-05  7.37012949E-07 -1.40944001E-07 -1.65017708E-06  2.91917191E-04
 -1.24928076E-06  1.12310027E-05 -1.57691923E-06  2.77276910E-04 -5.03532005E-08
 -7.16047872E-05  7.15948983E-05  3.84213587E-07 -6.78334009E-05 -1.08091581E-07
 -2.11591350E-08  9.92477839E-08  5.88641744E-05 -5.60749551E-03  9.90832673E-01
  3.10889276E-08  1.63902581E-06 -1.67411402E-04  2.95811738E-02 -6.16756231E-07
 -5.19494475E-07  6.55714735E-05 -1.15861292E-02  1.01740261E-05  3.15529464E-06
 -2.91531762E-05  5.15086403E-03  2.05042470E-08  4.47812072E-06 -4.44807413E-06
 -1.18210213E-06  2.08856786E-04  7.91822869E-09  8.48006518E-05 -5.72701357E-04
  4.33277188E-03  2.01176630E-04  3.13589620E-07 -9.55957428E-05 -4.21987378E-05
  2.84028402E-04 -2.15259573E-03 -9.99147185E-05 -2.91695765E-05 -4.43119330E-05
 -4.26883735E-05  2.87337480E-04 -2.17766911E-03 -1.01077951E-04  2.98992221E-05
 -4.43714504E-05  1.68917088E-08  7.48787576E-08 -8.99451748E-09 -3.20904507E-07