 Entering Gaussian System, Link 0=g16
 Initial command:
 /usr/local/g16_AVX//g16/l1.exe "/scratch/alanqf/0113-54555.ixchel.mda.cinvestav.mx/Gau-36327.inp" -scrdir="/scratch/alanqf/0113-54555.ixchel.mda.cinvestav.mx/"
 Entering Link 1 = /usr/local/g16_AVX//g16/l1.exe PID=     36332.
  
 Copyright (c) 1988-2017, Gaussian, Inc.  All Rights Reserved.
  
 This is part of the Gaussian(R) 16 program.  It is based on
 the Gaussian(R) 09 system (copyright 2009, Gaussian, Inc.),
 the Gaussian(R) 03 system (copyright 2003, Gaussian, Inc.),
 the Gaussian(R) 98 system (copyright 1998, Gaussian, Inc.),
 the Gaussian(R) 94 system (copyright 1995, Gaussian, Inc.),
 the Gaussian 92(TM) system (copyright 1992, Gaussian, Inc.),
 the Gaussian 90(TM) system (copyright 1990, Gaussian, Inc.),
 the Gaussian 88(TM) system (copyright 1988, Gaussian, Inc.),
 the Gaussian 86(TM) system (copyright 1986, Carnegie Mellon
 University), and the Gaussian 82(TM) system (copyright 1983,
 Carnegie Mellon University). Gaussian is a federally registered
 trademark of Gaussian, Inc.
  
 This software contains proprietary and confidential information,
 including trade secrets, belonging to Gaussian, Inc.
  
 This software is provided under written license and may be
 used, copied, transmitted, or stored only in accord with that
 written license.
  
 The following legend is applicable only to US Government
 contracts under FAR:
  
                    RESTRICTED RIGHTS LEGEND
  
 Use, reproduction and disclosure by the US Government is
 subject to restrictions as set forth in subparagraphs (a)
 and (c) of the Commercial Computer Software - Restricted
 Rights clause in FAR 52.227-19.
  
 Gaussian, Inc.
 340 Quinnipiac St., Bldg. 40, Wallingford CT 06492
  
  
 ---------------------------------------------------------------
 Warning -- This program may not be used in any manner that
 competes with the business of Gaussian, Inc. or will provide
 assistance to any competitor of Gaussian, Inc.  The licensee
 of this program is prohibited from giving any competitor of
 Gaussian, Inc. access to this program.  By using this program,
 the user acknowledges that Gaussian, Inc. is engaged in the
 business of creating and licensing software in the field of
 computational chemistry and represents and warrants to the
 licensee that it is not a competitor of Gaussian, Inc. and that
 it will not use this program in any manner prohibited above.
 ---------------------------------------------------------------
  

 Cite this work as:
 Gaussian 16, Revision B.01,
 M. J. Frisch, G. W. Trucks, H. B. Schlegel, G. E. Scuseria, 
 M. A. Robb, J. R. Cheeseman, G. Scalmani, V. Barone, 
 G. A. Petersson, H. Nakatsuji, X. Li, M. Caricato, A. V. Marenich, 
 J. Bloino, B. G. Janesko, R. Gomperts, B. Mennucci, H. P. Hratchian, 
 J. V. Ortiz, A. F. Izmaylov, J. L. Sonnenberg, D. Williams-Young, 
 F. Ding, F. Lipparini, F. Egidi, J. Goings, B. Peng, A. Petrone, 
 T. Henderson, D. Ranasinghe, V. G. Zakrzewski, J. Gao, N. Rega, 
 G. Zheng, W. Liang, M. Hada, M. Ehara, K. Toyota, R. Fukuda, 
 J. Hasegawa, M. Ishida, T. Nakajima, Y. Honda, O. Kitao, H. Nakai, 
 T. Vreven, K. Throssell, J. A. Montgomery, Jr., J. E. Peralta, 
 F. Ogliaro, M. J. Bearpark, J. J. Heyd, E. N. Brothers, K. N. Kudin, 
 V. N. Staroverov, T. A. Keith, R. Kobayashi, J. Normand, 
 K. Raghavachari, A. P. Rendell, J. C. Burant, S. S. Iyengar, 
 J. Tomasi, M. Cossi, J. M. Millam, M. Klene, C. Adamo, R. Cammi, 
 J. W. Ochterski, R. L. Martin, K. Morokuma, O. Farkas, 
 J. B. Foresman, and D. J. Fox, Gaussian, Inc., Wallingford CT, 2016.
 
 ******************************************
 Gaussian 16:  ES64L-G16RevB.01 20-Dec-2017
                13-Oct-2024 
 ******************************************
 %NProcShared=26
 Will use up to   26 processors via shared memory.
 %MEM=20GB
 %chk=CHKfiles/0113.chk
 ---------------------------------------------------------------------
 #p b3lyp 6-31++g(d,p) scf=verytight NoSymm freq=noraman int=ultrafine
 ---------------------------------------------------------------------
 1/10=4,30=1,38=1/1,3;
 2/12=2,15=1,17=6,18=5,40=1/2;
 3/5=1,6=6,7=1111,11=2,25=1,30=1,71=2,74=-5,75=-5,140=1/1,2,3;
 4//1;
 5/5=2,17=3,38=5,98=1/2;
 8/6=4,10=90,11=11/1;
 11/6=1,8=1,9=11,15=111,16=1,31=1/1,2,10;
 10/6=1,31=1/2;
 6/7=2,8=2,9=2,10=2,28=1/1;
 7/8=1,10=1,25=1,30=1/1,2,3,16;
 1/10=4,30=1/3;
 99//99;
 Leave Link    1 at Sun Oct 13 09:51:04 2024, MaxMem=  2684354560 cpu:               1.2 elap:               0.1
 (Enter /usr/local/g16_AVX//g16/l101.exe)
 ------------------------
 RxCoord=1.19971 DE=52.08
 ------------------------
 Symbolic Z-matrix:
 Charge = -1 Multiplicity = 1
 C                    -0.15328   0.00001  -0.00016 
 Cl                   -2.1744   0.         0.00004 
 H                     0.07511   0.00246  -1.05523 
 H                     0.07553   0.91256   0.52929 
 H                     0.07554  -0.91499   0.52505 
 C                     2.35198   0.       -0.00017 
 N                     3.5295   -0.00001   0.00023 
 
 ITRead=  0  0  0  0  0  0  0
 MicOpt= -1 -1 -1 -1 -1 -1 -1
 NAtoms=      7 NQM=        7 NQMF=       0 NMMI=      0 NMMIF=      0
                NMic=       0 NMicF=      0.
                    Isotopes and Nuclear Properties:
 (Nuclear quadrupole moments (NQMom) in fm**2, nuclear magnetic moments (NMagM)
  in nuclear magnetons)

  Atom         1           2           3           4           5           6           7
 IAtWgt=          12          35           1           1           1          12          14
 AtmWgt=  12.0000000  34.9688527   1.0078250   1.0078250   1.0078250  12.0000000  14.0030740
 NucSpn=           0           3           1           1           1           0           2
 AtZEff=  -0.0000000  -0.0000000  -0.0000000  -0.0000000  -0.0000000  -0.0000000  -0.0000000
 NQMom=    0.0000000  -8.1650000   0.0000000   0.0000000   0.0000000   0.0000000   2.0440000
 NMagM=    0.0000000   0.8218740   2.7928460   2.7928460   2.7928460   0.0000000   0.4037610
 AtZNuc=   6.0000000  17.0000000   1.0000000   1.0000000   1.0000000   6.0000000   7.0000000
 Leave Link  101 at Sun Oct 13 09:51:05 2024, MaxMem=  2684354560 cpu:               2.8 elap:               0.1
 (Enter /usr/local/g16_AVX//g16/l103.exe)

 GradGradGradGradGradGradGradGradGradGradGradGradGradGradGradGradGradGrad
 Berny optimization.
 Initialization pass.
 Trust Radius=3.00D-01 FncErr=1.00D-07 GrdErr=1.00D-07 EigMax=2.50D+02 EigMin=1.00D-04
 Number of steps in this run=      2 maximum allowed number of steps=      2.
 GradGradGradGradGradGradGradGradGradGradGradGradGradGradGradGradGradGrad

 Leave Link  103 at Sun Oct 13 09:51:05 2024, MaxMem=  2684354560 cpu:               0.5 elap:               0.1
 (Enter /usr/local/g16_AVX//g16/l202.exe)
                          Input orientation:                          
 ---------------------------------------------------------------------
 Center     Atomic      Atomic             Coordinates (Angstroms)
 Number     Number       Type             X           Y           Z
 ---------------------------------------------------------------------
      1          6           0       -0.153278    0.000007   -0.000157
      2         17           0       -2.174396   -0.000001    0.000044
      3          1           0        0.075107    0.002455   -1.055231
      4          1           0        0.075531    0.912559    0.529287
      5          1           0        0.075537   -0.914991    0.525046
      6          6           0        2.351978    0.000003   -0.000169
      7          7           0        3.529497   -0.000007    0.000234
 ---------------------------------------------------------------------
                    Distance matrix (angstroms):
                    1          2          3          4          5
     1  C    0.000000
     2  Cl   2.021118   0.000000
     3  H    1.079512   2.484728   0.000000
     4  H    1.079544   2.484962   1.827289   0.000000
     5  H    1.079544   2.484961   1.827288   1.827555   0.000000
     6  C    2.505256   4.526374   2.509443   2.509042   2.509033
     7  N    3.682775   5.703893   3.612039   3.611448   3.611435
                    6          7
     6  C    0.000000
     7  N    1.177519   0.000000
 Symmetry turned off by external request.
 Stoichiometry    C2H3ClN(1-)
 Framework group  C1[X(C2H3ClN)]
 Deg. of freedom    15
 Full point group                 C1      NOp   1
 Rotational constants (GHZ):         150.1672634           1.2382584           1.2382564
 Leave Link  202 at Sun Oct 13 09:51:05 2024, MaxMem=  2684354560 cpu:               0.2 elap:               0.0
 (Enter /usr/local/g16_AVX//g16/l301.exe)
 Standard basis: 6-31++G(d,p) (6D, 7F)
 Ernie: Thresh=  0.10000D-02 Tol=  0.10000D-05 Strict=F.
    98 basis functions,   176 primitive gaussians,    98 cartesian basis functions
    20 alpha electrons       20 beta electrons
       nuclear repulsion energy       109.6111077731 Hartrees.
 IExCor=  402 DFT=T Ex+Corr=B3LYP ExCW=0 ScaHFX=  0.200000
 ScaDFX=  0.800000  0.720000  1.000000  0.810000 ScalE2=  1.000000  1.000000
 IRadAn=      5 IRanWt=     -1 IRanGd=            0 ICorTp=0 IEmpDi=  4
 NAtoms=    7 NActive=    7 NUniq=    7 SFac= 1.00D+00 NAtFMM=   60 NAOKFM=F Big=F
 Integral buffers will be    131072 words long.
 Raffenetti 2 integral format.
 Two-electron integral symmetry is turned off.
 Leave Link  301 at Sun Oct 13 09:51:05 2024, MaxMem=  2684354560 cpu:               1.3 elap:               0.1
 (Enter /usr/local/g16_AVX//g16/l302.exe)
 NPDir=0 NMtPBC=     1 NCelOv=     1 NCel=       1 NClECP=     1 NCelD=      1
         NCelK=      1 NCelE2=     1 NClLst=     1 CellRange=     0.0.
 One-electron integrals computed using PRISM.
 NBasis=    98 RedAO= T EigKep=  1.28D-04  NBF=    98
 NBsUse=    98 1.00D-06 EigRej= -1.00D+00 NBFU=    98
 Precomputing XC quadrature grid using
 IXCGrd= 4 IRadAn=           5 IRanWt=          -1 IRanGd=           0 AccXCQ= 0.00D+00.
 Generated NRdTot=       0 NPtTot=           0 NUsed=           0 NTot=          32
 NSgBfM=    98    98    98    98    98 MxSgAt=     7 MxSgA2=     7.
 Leave Link  302 at Sun Oct 13 09:51:05 2024, MaxMem=  2684354560 cpu:               3.9 elap:               0.2
 (Enter /usr/local/g16_AVX//g16/l303.exe)
 DipDrv:  MaxL=1.
 Leave Link  303 at Sun Oct 13 09:51:05 2024, MaxMem=  2684354560 cpu:               0.7 elap:               0.1
 (Enter /usr/local/g16_AVX//g16/l401.exe)
 ExpMin= 3.60D-02 ExpMax= 2.52D+04 ExpMxC= 3.78D+03 IAcc=3 IRadAn=         5 AccDes= 0.00D+00
 Harris functional with IExCor=  402 and IRadAn=       5 diagonalized for initial guess.
 HarFok:  IExCor=  402 AccDes= 0.00D+00 IRadAn=         5 IDoV= 1 UseB2=F ITyADJ=14
 ICtDFT=  3500011 ScaDFX=  1.000000  1.000000  1.000000  1.000000
 FoFCou: FMM=F IPFlag=           0 FMFlag=      100000 FMFlg1=           0
         NFxFlg=           0 DoJE=T BraDBF=F KetDBF=T FulRan=T
         wScrn=  0.000000 ICntrl=       500 IOpCl=  0 I1Cent=   200000004 NGrid=           0
         NMat0=    1 NMatS0=      1 NMatT0=    0 NMatD0=    1 NMtDS0=    0 NMtDT0=    0
 Symmetry not used in FoFCou.
 Harris En= -593.060725126833    
 JPrj=0 DoOrth=F DoCkMO=F.
 Leave Link  401 at Sun Oct 13 09:51:05 2024, MaxMem=  2684354560 cpu:               5.7 elap:               0.3
 (Enter /usr/local/g16_AVX//g16/l502.exe)
 Keep R1 ints in memory in canonical form, NReq=35752935.
 FoFCou: FMM=F IPFlag=           0 FMFlag=           0 FMFlg1=           0
         NFxFlg=           0 DoJE=F BraDBF=F KetDBF=F FulRan=T
         wScrn=  0.000000 ICntrl=       600 IOpCl=  0 I1Cent=           0 NGrid=           0
         NMat0=    1 NMatS0=   4851 NMatT0=    0 NMatD0=    1 NMtDS0=    0 NMtDT0=    0
 Symmetry not used in FoFCou.
 Two-electron integral symmetry not used.
 Closed shell SCF:
 Using DIIS extrapolation, IDIIS=  1040.
 NGot=  2684354560 LenX=  2672563405 LenY=  2672553360
 Requested convergence on RMS density matrix=1.00D-08 within 128 cycles.
 Requested convergence on MAX density matrix=1.00D-06.
 Requested convergence on             energy=1.00D-06.
 No special actions if energy rises.

 Cycle   1  Pass 1  IDiag  1:
 E= -592.837573475520    
 DIIS: error= 3.42D-02 at cycle   1 NSaved=   1.
 NSaved= 1 IEnMin= 1 EnMin= -592.837573475520     IErMin= 1 ErrMin= 3.42D-02
 ErrMax= 3.42D-02  0.00D+00 EMaxC= 1.00D-01 BMatC= 1.28D-01 BMatP= 1.28D-01
 IDIUse=3 WtCom= 6.58D-01 WtEn= 3.42D-01
 Coeff-Com:  0.100D+01
 Coeff-En:   0.100D+01
 Coeff:      0.100D+01
 Gap=     0.384 Goal=   None    Shift=    0.000
 GapD=    0.384 DampG=1.000 DampE=0.500 DampFc=0.5000 IDamp=-1.
 Damping current iteration by 5.00D-01
 RMSDP=6.10D-02 MaxDP=2.00D+00              OVMax= 3.74D-01

 Cycle   2  Pass 1  IDiag  1:
 E= -592.874019545785     Delta-E=       -0.036446070266 Rises=F Damp=T
 DIIS: error= 1.11D-02 at cycle   2 NSaved=   2.
 NSaved= 2 IEnMin= 2 EnMin= -592.874019545785     IErMin= 2 ErrMin= 1.11D-02
 ErrMax= 1.11D-02  0.00D+00 EMaxC= 1.00D-01 BMatC= 1.67D-02 BMatP= 1.28D-01
 IDIUse=3 WtCom= 8.89D-01 WtEn= 1.11D-01
 Coeff-Com:  0.200D+00 0.800D+00
 Coeff-En:   0.369D+00 0.631D+00
 Coeff:      0.218D+00 0.782D+00
 Gap=     0.209 Goal=   None    Shift=    0.000
 RMSDP=2.92D-02 MaxDP=9.99D-01 DE=-3.64D-02 OVMax= 2.77D-01

 Cycle   3  Pass 1  IDiag  1:
 E= -592.977602782351     Delta-E=       -0.103583236566 Rises=F Damp=F
 DIIS: error= 1.54D-02 at cycle   3 NSaved=   3.
 NSaved= 3 IEnMin= 3 EnMin= -592.977602782351     IErMin= 2 ErrMin= 1.11D-02
 ErrMax= 1.54D-02  0.00D+00 EMaxC= 1.00D-01 BMatC= 1.25D-02 BMatP= 1.67D-02
 IDIUse=3 WtCom= 8.46D-01 WtEn= 1.54D-01
 Coeff-Com:  0.645D-01 0.464D+00 0.471D+00
 Coeff-En:   0.000D+00 0.000D+00 0.100D+01
 Coeff:      0.546D-01 0.393D+00 0.553D+00
 Gap=     0.206 Goal=   None    Shift=    0.000
 RMSDP=1.91D-03 MaxDP=3.57D-02 DE=-1.04D-01 OVMax= 6.31D-02

 Cycle   4  Pass 1  IDiag  1:
 E= -592.982151405170     Delta-E=       -0.004548622818 Rises=F Damp=F
 DIIS: error= 1.33D-02 at cycle   4 NSaved=   4.
 NSaved= 4 IEnMin= 4 EnMin= -592.982151405170     IErMin= 2 ErrMin= 1.11D-02
 ErrMax= 1.33D-02  0.00D+00 EMaxC= 1.00D-01 BMatC= 8.00D-03 BMatP= 1.25D-02
 IDIUse=3 WtCom= 8.67D-01 WtEn= 1.33D-01
 Coeff-Com: -0.919D-02 0.973D-01 0.435D+00 0.477D+00
 Coeff-En:   0.000D+00 0.000D+00 0.409D+00 0.591D+00
 Coeff:     -0.797D-02 0.844D-01 0.432D+00 0.492D+00
 Gap=     0.194 Goal=   None    Shift=    0.000
 RMSDP=1.16D-03 MaxDP=1.78D-02 DE=-4.55D-03 OVMax= 3.25D-02

 Cycle   5  Pass 1  IDiag  1:
 E= -592.989073729238     Delta-E=       -0.006922324068 Rises=F Damp=F
 DIIS: error= 2.64D-03 at cycle   5 NSaved=   5.
 NSaved= 5 IEnMin= 5 EnMin= -592.989073729238     IErMin= 5 ErrMin= 2.64D-03
 ErrMax= 2.64D-03  0.00D+00 EMaxC= 1.00D-01 BMatC= 4.73D-04 BMatP= 8.00D-03
 IDIUse=3 WtCom= 9.74D-01 WtEn= 2.64D-02
 Coeff-Com: -0.920D-02 0.246D-01 0.209D+00 0.294D+00 0.481D+00
 Coeff-En:   0.000D+00 0.000D+00 0.000D+00 0.249D-01 0.975D+00
 Coeff:     -0.896D-02 0.239D-01 0.203D+00 0.287D+00 0.494D+00
 Gap=     0.198 Goal=   None    Shift=    0.000
 RMSDP=4.74D-04 MaxDP=6.61D-03 DE=-6.92D-03 OVMax= 1.17D-02

 Cycle   6  Pass 1  IDiag  1:
 E= -592.989596372424     Delta-E=       -0.000522643186 Rises=F Damp=F
 DIIS: error= 3.78D-04 at cycle   6 NSaved=   6.
 NSaved= 6 IEnMin= 6 EnMin= -592.989596372424     IErMin= 6 ErrMin= 3.78D-04
 ErrMax= 3.78D-04  0.00D+00 EMaxC= 1.00D-01 BMatC= 1.47D-05 BMatP= 4.73D-04
 IDIUse=3 WtCom= 9.96D-01 WtEn= 3.78D-03
 Coeff-Com: -0.300D-02 0.607D-03 0.592D-01 0.908D-01 0.226D+00 0.626D+00
 Coeff-En:   0.000D+00 0.000D+00 0.000D+00 0.000D+00 0.000D+00 0.100D+01
 Coeff:     -0.299D-02 0.604D-03 0.590D-01 0.905D-01 0.225D+00 0.628D+00
 Gap=     0.197 Goal=   None    Shift=    0.000
 RMSDP=7.53D-05 MaxDP=1.61D-03 DE=-5.23D-04 OVMax= 1.42D-03

 Cycle   7  Pass 1  IDiag  1:
 E= -592.989611255509     Delta-E=       -0.000014883085 Rises=F Damp=F
 DIIS: error= 6.16D-05 at cycle   7 NSaved=   7.
 NSaved= 7 IEnMin= 7 EnMin= -592.989611255509     IErMin= 7 ErrMin= 6.16D-05
 ErrMax= 6.16D-05  0.00D+00 EMaxC= 1.00D-01 BMatC= 5.86D-07 BMatP= 1.47D-05
 IDIUse=1 WtCom= 1.00D+00 WtEn= 0.00D+00
 Coeff-Com: -0.197D-03-0.985D-03 0.576D-02 0.920D-02 0.424D-01 0.231D+00
 Coeff-Com:  0.713D+00
 Coeff:     -0.197D-03-0.985D-03 0.576D-02 0.920D-02 0.424D-01 0.231D+00
 Coeff:      0.713D+00
 Gap=     0.197 Goal=   None    Shift=    0.000
 RMSDP=2.33D-05 MaxDP=4.45D-04 DE=-1.49D-05 OVMax= 4.82D-04

 Cycle   8  Pass 1  IDiag  1:
 E= -592.989611923263     Delta-E=       -0.000000667754 Rises=F Damp=F
 DIIS: error= 2.32D-05 at cycle   8 NSaved=   8.
 NSaved= 8 IEnMin= 8 EnMin= -592.989611923263     IErMin= 8 ErrMin= 2.32D-05
 ErrMax= 2.32D-05  0.00D+00 EMaxC= 1.00D-01 BMatC= 7.10D-08 BMatP= 5.86D-07
 IDIUse=1 WtCom= 1.00D+00 WtEn= 0.00D+00
 Coeff-Com:  0.232D-03-0.778D-03-0.217D-02-0.282D-02 0.251D-02 0.548D-01
 Coeff-Com:  0.317D+00 0.631D+00
 Coeff:      0.232D-03-0.778D-03-0.217D-02-0.282D-02 0.251D-02 0.548D-01
 Coeff:      0.317D+00 0.631D+00
 Gap=     0.197 Goal=   None    Shift=    0.000
 RMSDP=4.21D-06 MaxDP=1.14D-04 DE=-6.68D-07 OVMax= 9.09D-05

 Cycle   9  Pass 1  IDiag  1:
 E= -592.989612003591     Delta-E=       -0.000000080329 Rises=F Damp=F
 DIIS: error= 3.51D-06 at cycle   9 NSaved=   9.
 NSaved= 9 IEnMin= 9 EnMin= -592.989612003591     IErMin= 9 ErrMin= 3.51D-06
 ErrMax= 3.51D-06  0.00D+00 EMaxC= 1.00D-01 BMatC= 1.08D-09 BMatP= 7.10D-08
 IDIUse=1 WtCom= 1.00D+00 WtEn= 0.00D+00
 Coeff-Com:  0.748D-04-0.137D-03-0.690D-03-0.864D-03-0.105D-02 0.130D-02
 Coeff-Com:  0.373D-01 0.156D+00 0.808D+00
 Coeff:      0.748D-04-0.137D-03-0.690D-03-0.864D-03-0.105D-02 0.130D-02
 Coeff:      0.373D-01 0.156D+00 0.808D+00
 Gap=     0.197 Goal=   None    Shift=    0.000
 RMSDP=1.37D-06 MaxDP=3.16D-05 DE=-8.03D-08 OVMax= 9.52D-06

 Cycle  10  Pass 1  IDiag  1:
 E= -592.989612004839     Delta-E=       -0.000000001247 Rises=F Damp=F
 DIIS: error= 4.22D-07 at cycle  10 NSaved=  10.
 NSaved=10 IEnMin=10 EnMin= -592.989612004839     IErMin=10 ErrMin= 4.22D-07
 ErrMax= 4.22D-07  0.00D+00 EMaxC= 1.00D-01 BMatC= 1.39D-11 BMatP= 1.08D-09
 IDIUse=1 WtCom= 1.00D+00 WtEn= 0.00D+00
 Coeff-Com:  0.469D-05 0.428D-06-0.421D-04-0.511D-04-0.160D-03-0.844D-03
 Coeff-Com: -0.377D-02 0.940D-02 0.101D+00 0.895D+00
 Coeff:      0.469D-05 0.428D-06-0.421D-04-0.511D-04-0.160D-03-0.844D-03
 Coeff:     -0.377D-02 0.940D-02 0.101D+00 0.895D+00
 Gap=     0.197 Goal=   None    Shift=    0.000
 RMSDP=1.23D-07 MaxDP=2.95D-06 DE=-1.25D-09 OVMax= 2.16D-06

 Cycle  11  Pass 1  IDiag  1:
 E= -592.989612004856     Delta-E=       -0.000000000017 Rises=F Damp=F
 DIIS: error= 7.15D-08 at cycle  11 NSaved=  11.
 NSaved=11 IEnMin=11 EnMin= -592.989612004856     IErMin=11 ErrMin= 7.15D-08
 ErrMax= 7.15D-08  0.00D+00 EMaxC= 1.00D-01 BMatC= 3.52D-13 BMatP= 1.39D-11
 IDIUse=1 WtCom= 1.00D+00 WtEn= 0.00D+00
 Coeff-Com: -0.789D-06 0.194D-05 0.119D-06 0.966D-06-0.175D-04-0.743D-04
 Coeff-Com: -0.747D-03-0.539D-03 0.289D-02 0.114D+00 0.884D+00
 Coeff:     -0.789D-06 0.194D-05 0.119D-06 0.966D-06-0.175D-04-0.743D-04
 Coeff:     -0.747D-03-0.539D-03 0.289D-02 0.114D+00 0.884D+00
 Gap=     0.197 Goal=   None    Shift=    0.000
 RMSDP=1.02D-08 MaxDP=1.47D-07 DE=-1.68D-11 OVMax= 1.76D-07

 Cycle  12  Pass 1  IDiag  1:
 E= -592.989612004857     Delta-E=       -0.000000000001 Rises=F Damp=F
 DIIS: error= 8.40D-09 at cycle  12 NSaved=  12.
 NSaved=12 IEnMin=12 EnMin= -592.989612004857     IErMin=12 ErrMin= 8.40D-09
 ErrMax= 8.40D-09  0.00D+00 EMaxC= 1.00D-01 BMatC= 7.61D-15 BMatP= 3.52D-13
 IDIUse=1 WtCom= 1.00D+00 WtEn= 0.00D+00
 Coeff-Com: -0.278D-06 0.377D-06 0.147D-06 0.239D-06-0.132D-05 0.930D-06
 Coeff-Com: -0.203D-04-0.310D-03-0.142D-02 0.243D-02 0.158D+00 0.842D+00
 Coeff:     -0.278D-06 0.377D-06 0.147D-06 0.239D-06-0.132D-05 0.930D-06
 Coeff:     -0.203D-04-0.310D-03-0.142D-02 0.243D-02 0.158D+00 0.842D+00
 Gap=     0.197 Goal=   None    Shift=    0.000
 RMSDP=3.70D-09 MaxDP=6.40D-08 DE=-1.14D-12 OVMax= 5.06D-08

 SCF Done:  E(RB3LYP) =  -592.989612005     A.U. after   12 cycles
            NFock= 12  Conv=0.37D-08     -V/T= 2.0046
 KE= 5.902642636606D+02 PE=-1.629212827001D+03 EE= 3.363478435620D+02
 Leave Link  502 at Sun Oct 13 09:51:07 2024, MaxMem=  2684354560 cpu:              35.5 elap:               1.6
 (Enter /usr/local/g16_AVX//g16/l801.exe)
 DoSCS=F DFT=T ScalE2(SS,OS)=  1.000000  1.000000
 Range of M.O.s used for correlation:     1    98
 NBasis=    98 NAE=    20 NBE=    20 NFC=     0 NFV=     0
 NROrb=     98 NOA=    20 NOB=    20 NVA=    78 NVB=    78

 **** Warning!!: The largest alpha MO coefficient is  0.27681786D+02

 Leave Link  801 at Sun Oct 13 09:51:07 2024, MaxMem=  2684354560 cpu:               0.6 elap:               0.1
 (Enter /usr/local/g16_AVX//g16/l1101.exe)
 Using compressed storage, NAtomX=     7.
 Will process      8 centers per pass.
 Leave Link 1101 at Sun Oct 13 09:51:07 2024, MaxMem=  2684354560 cpu:               3.5 elap:               0.2
 (Enter /usr/local/g16_AVX//g16/l1102.exe)
 Symmetrizing basis deriv contribution to polar:
 IMax=3 JMax=2 DiffMx= 0.00D+00
 Leave Link 1102 at Sun Oct 13 09:51:07 2024, MaxMem=  2684354560 cpu:               0.7 elap:               0.1
 (Enter /usr/local/g16_AVX//g16/l1110.exe)
 Forming Gx(P) for the SCF density, NAtomX=     7.
 Integral derivatives from FoFJK, PRISM(SPDF).
 Do as many integral derivatives as possible in FoFJK.
 G2DrvN: MDV=    2684353864.
 G2DrvN: will do     8 centers at a time, making    1 passes.
 Calling FoFCou, ICntrl=  3107 FMM=F I1Cent=   0 AccDes= 0.00D+00.
 FoFJK:  IHMeth= 1 ICntrl=    3107 DoSepK=F KAlg= 0 I1Cent=           0 FoldK=F
 IRaf=         0 NMat=       1 IRICut=       1 DoRegI=T DoRafI=F ISym2E= 0 IDoP0=0 IntGTp=1.
 FoFCou: FMM=F IPFlag=           0 FMFlag=      100000 FMFlg1=           0
         NFxFlg=           0 DoJE=F BraDBF=F KetDBF=F FulRan=T
         wScrn=  0.000000 ICntrl=      3107 IOpCl=  0 I1Cent=           0 NGrid=           0
         NMat0=    1 NMatS0=      1 NMatT0=    0 NMatD0=    1 NMtDS0=    0 NMtDT0=    0
 Symmetry not used in FoFCou.
 End of G2Drv F.D. properties file   721 does not exist.
 End of G2Drv F.D. properties file   722 does not exist.
 End of G2Drv F.D. properties file   788 does not exist.
 Leave Link 1110 at Sun Oct 13 09:51:09 2024, MaxMem=  2684354560 cpu:              38.4 elap:               1.5
 (Enter /usr/local/g16_AVX//g16/l1002.exe)
 Minotr:  Closed shell wavefunction.
          IDoAtm=1111111
          Direct CPHF calculation.
          Differentiating once with respect to electric field.
                with respect to dipole field.
          Differentiating once with respect to nuclear coordinates.
          Requested convergence is 1.0D-08 RMS, and 1.0D-07 maximum.
          Secondary convergence is 1.0D-12 RMS, and 1.0D-12 maximum.
          NewPWx=T KeepS1=F KeepF1=F KeepIn=T MapXYZ=F SortEE=F KeepMc=T.
         2136 words used for storage of precomputed grid.
 Keep R1 ints in memory in canonical form, NReq=35668397.
 FoFCou: FMM=F IPFlag=           0 FMFlag=           0 FMFlg1=           0
         NFxFlg=           0 DoJE=F BraDBF=F KetDBF=F FulRan=T
         wScrn=  0.000000 ICntrl=       600 IOpCl=  0 I1Cent=           0 NGrid=           0
         NMat0=    1 NMatS0=   4851 NMatT0=    0 NMatD0=    1 NMtDS0=    0 NMtDT0=    0
 Symmetry not used in FoFCou.
 Two-electron integral symmetry not used.
          MDV=    2684354560 using IRadAn=       1.
          Solving linear equations simultaneously, MaxMat=       0.
          There are    24 degrees of freedom in the 1st order CPHF.  IDoFFX=6 NUNeed=     3.
     21 vectors produced by pass  0 Test12= 6.50D-15 4.17D-09 XBig12= 1.24D+02 6.97D+00.
 AX will form    21 AO Fock derivatives at one time.
     21 vectors produced by pass  1 Test12= 6.50D-15 4.17D-09 XBig12= 4.28D+01 1.70D+00.
     21 vectors produced by pass  2 Test12= 6.50D-15 4.17D-09 XBig12= 6.68D-01 2.27D-01.
     21 vectors produced by pass  3 Test12= 6.50D-15 4.17D-09 XBig12= 6.16D-03 1.67D-02.
     21 vectors produced by pass  4 Test12= 6.50D-15 4.17D-09 XBig12= 2.47D-05 1.20D-03.
     17 vectors produced by pass  5 Test12= 6.50D-15 4.17D-09 XBig12= 4.92D-08 5.30D-05.
      6 vectors produced by pass  6 Test12= 6.50D-15 4.17D-09 XBig12= 4.43D-11 1.76D-06.
      1 vectors produced by pass  7 Test12= 6.50D-15 4.17D-09 XBig12= 3.60D-14 4.17D-08.
 InvSVY:  IOpt=1 It=  1 EMax= 4.44D-15
 Solved reduced A of dimension   129 with    24 vectors.
 FullF1:  Do perturbations      1 to       3.
 Isotropic polarizability for W=    0.000000       63.38 Bohr**3.
 End of Minotr F.D. properties file   721 does not exist.
 End of Minotr F.D. properties file   722 does not exist.
 End of Minotr F.D. properties file   788 does not exist.
 Leave Link 1002 at Sun Oct 13 09:51:11 2024, MaxMem=  2684354560 cpu:              52.9 elap:               2.1
 (Enter /usr/local/g16_AVX//g16/l601.exe)
 Copying SCF densities to generalized density rwf, IOpCl= 0 IROHF=0.

 **********************************************************************

            Population analysis using the SCF Density.

 **********************************************************************

 Alpha  occ. eigenvalues -- -101.37632 -14.11228 -10.10516  -9.97880  -9.29154
 Alpha  occ. eigenvalues --   -7.05361  -7.04681  -7.04681  -0.66706  -0.66257
 Alpha  occ. eigenvalues --   -0.53974  -0.30225  -0.30221  -0.23850  -0.19214
 Alpha  occ. eigenvalues --   -0.15404  -0.15404  -0.11465  -0.11465  -0.08472
 Alpha virt. eigenvalues --    0.11261   0.12688   0.14846   0.14846   0.16310
 Alpha virt. eigenvalues --    0.19299   0.20597   0.20597   0.22186   0.22188
 Alpha virt. eigenvalues --    0.24845   0.24979   0.24979   0.26469   0.26469
 Alpha virt. eigenvalues --    0.26479   0.31211   0.34252   0.34255   0.37331
 Alpha virt. eigenvalues --    0.37997   0.37997   0.38080   0.46322   0.47461
 Alpha virt. eigenvalues --    0.71339   0.75808   0.75940   0.75940   0.79226
 Alpha virt. eigenvalues --    0.79228   0.88324   0.88325   0.88471   0.98929
 Alpha virt. eigenvalues --    1.02598   1.02703   1.02705   1.07231   1.07234
 Alpha virt. eigenvalues --    1.09575   1.09580   1.12460   1.18037   1.18037
 Alpha virt. eigenvalues --    1.25142   1.33286   1.36107   1.50406   1.59883
 Alpha virt. eigenvalues --    1.59890   1.76329   1.76329   1.78630   1.78630
 Alpha virt. eigenvalues --    1.82596   2.14100   2.17789   2.17807   2.18597
 Alpha virt. eigenvalues --    2.18598   2.19436   2.56692   2.56707   2.60781
 Alpha virt. eigenvalues --    2.81819   2.81820   2.83545   2.94966   2.94989
 Alpha virt. eigenvalues --    3.25841   3.42836   3.56677   3.56696   4.20687
 Alpha virt. eigenvalues --    4.46009   4.47614   4.56092
          Condensed to atoms (all electrons):
               1          2          3          4          5          6
     1  C    5.463895  -0.175485   0.428496   0.428514   0.428515  -0.194718
     2  Cl  -0.175485  17.594366  -0.050165  -0.050137  -0.050137   0.108502
     3  H    0.428496  -0.050165   0.500089  -0.021592  -0.021592  -0.044812
     4  H    0.428514  -0.050137  -0.021592   0.500035  -0.021553  -0.044855
     5  H    0.428515  -0.050137  -0.021592  -0.021553   0.500035  -0.044857
     6  C   -0.194718   0.108502  -0.044812  -0.044855  -0.044857   5.867239
     7  N   -0.015318  -0.003477  -0.001206  -0.001206  -0.001206   0.701398
               7
     1  C   -0.015318
     2  Cl  -0.003477
     3  H   -0.001206
     4  H   -0.001206
     5  H   -0.001206
     6  C    0.701398
     7  N    6.868121
 Mulliken charges:
               1
     1  C   -0.363900
     2  Cl  -0.373468
     3  H    0.210781
     4  H    0.210794
     5  H    0.210795
     6  C   -0.347897
     7  N   -0.547105
 Sum of Mulliken charges =  -1.00000
 Mulliken charges with hydrogens summed into heavy atoms:
               1
     1  C    0.268470
     2  Cl  -0.373468
     6  C   -0.347897
     7  N   -0.547105
 APT charges:
               1
     1  C    1.002652
     2  Cl  -0.917162
     3  H   -0.002948
     4  H   -0.002892
     5  H   -0.002892
     6  C   -0.431591
     7  N   -0.645168
 Sum of APT charges =  -1.00000
 APT charges with hydrogens summed into heavy atoms:
               1
     1  C    0.993920
     2  Cl  -0.917162
     6  C   -0.431591
     7  N   -0.645168
 Electronic spatial extent (au):  <R**2>=            847.4210
 Charge=             -1.0000 electrons
 Dipole moment (field-independent basis, Debye):
    X=             -7.1423    Y=              0.0000    Z=             -0.0005  Tot=              7.1423
 Quadrupole moment (field-independent basis, Debye-Ang):
   XX=            -88.0064   YY=            -35.3367   ZZ=            -35.3379
   XY=              0.0000   XZ=             -0.0010   YZ=              0.0000
 Traceless Quadrupole moment (field-independent basis, Debye-Ang):
   XX=            -35.1127   YY=             17.5570   ZZ=             17.5558
   XY=              0.0000   XZ=             -0.0010   YZ=              0.0000
 Octapole moment (field-independent basis, Debye-Ang**2):
  XXX=           -150.5974  YYY=             -0.0069  ZZZ=             -0.9833  XYY=             -9.0281
  XXY=              0.0002  XXZ=             -0.0082  XZZ=             -9.0289  YZZ=              0.0068
  YYZ=              0.9848  XYZ=             -0.0000
 Hexadecapole moment (field-independent basis, Debye-Ang**3):
 XXXX=          -1780.5103 YYYY=            -55.6190 ZZZZ=            -55.6182 XXXY=              0.0015
 XXXZ=             -0.0435 YYYX=             -0.0007 YYYZ=              0.0000 ZZZX=             -0.1498
 ZZZY=             -0.0000 XXYY=           -217.4330 XXZZ=           -217.4331 YYZZ=            -18.5404
 XXYZ=             -0.0000 YYXZ=              0.1438 ZZXY=              0.0011
 N-N= 1.096111077731D+02 E-N=-1.629212825993D+03  KE= 5.902642636606D+02
  Exact polarizability: 112.032  -0.000  39.052   0.003   0.000  39.052
 Approx polarizability: 141.337  -0.000  49.015   0.006   0.000  49.013
 No NMR shielding tensors so no spin-rotation constants.
 Leave Link  601 at Sun Oct 13 09:51:11 2024, MaxMem=  2684354560 cpu:               2.6 elap:               0.1
 (Enter /usr/local/g16_AVX//g16/l701.exe)
 ... and contract with generalized density number  0.
 Compute integral second derivatives.
 Leave Link  701 at Sun Oct 13 09:51:12 2024, MaxMem=  2684354560 cpu:               4.6 elap:               0.2
 (Enter /usr/local/g16_AVX//g16/l702.exe)
 L702 exits ... SP integral derivatives will be done elsewhere.
 Leave Link  702 at Sun Oct 13 09:51:12 2024, MaxMem=  2684354560 cpu:               0.6 elap:               0.1
 (Enter /usr/local/g16_AVX//g16/l703.exe)
 Integral derivatives from FoFJK, PRISM(SPDF).
 Compute integral second derivatives, UseDBF=F ICtDFT=           0.
 Calling FoFJK, ICntrl=    100127 FMM=F ISym2X=0 I1Cent= 0 IOpClX= 0 NMat=1 NMatS=1 NMatT=0.
 FoFJK:  IHMeth= 1 ICntrl=  100127 DoSepK=F KAlg= 0 I1Cent=           0 FoldK=F
 IRaf=         0 NMat=       1 IRICut=       1 DoRegI=T DoRafI=F ISym2E= 0 IDoP0=0 IntGTp=1.
 FoFCou: FMM=F IPFlag=           0 FMFlag=      100000 FMFlg1=         800
         NFxFlg=           0 DoJE=F BraDBF=F KetDBF=F FulRan=T
         wScrn=  0.000000 ICntrl=    100127 IOpCl=  0 I1Cent=           0 NGrid=           0
         NMat0=    1 NMatS0=      1 NMatT0=    0 NMatD0=    1 NMtDS0=    0 NMtDT0=    0
 Symmetry not used in FoFCou.
 Leave Link  703 at Sun Oct 13 09:51:14 2024, MaxMem=  2684354560 cpu:              66.8 elap:               2.6
 (Enter /usr/local/g16_AVX//g16/l716.exe)
 Dipole        =-2.80998416D+00 7.08702819D-06-2.08344253D-04
 Polarizability= 1.12032155D+02-6.24321277D-05 3.90521334D+01
                 3.17671094D-03 1.68679133D-06 3.90519086D+01
 Full mass-weighted force constant matrix:
 Low frequencies --- -136.2535  -70.1367  -70.1307  -22.9567  -22.9476    0.0043
 Low frequencies ---    0.0055    0.0056  116.1577
 ******    3 imaginary frequencies (negative Signs) ****** 
 Diagonal vibrational polarizability:
     1090.5839692      11.8988117      11.9004954
 Harmonic frequencies (cm**-1), IR intensities (KM/Mole), Raman scattering
 activities (A**4/AMU), depolarization ratios for plane and unpolarized
 incident light, reduced masses (AMU), force constants (mDyne/A),
 and normal coordinates:
                      1                      2                      3
                      A                      A                      A
 Frequencies --   -136.2535               -68.5158               -68.5110
 Red. masses --     10.1775                 9.4362                 9.4355
 Frc consts  --      0.1113                 0.0261                 0.0261
 IR Inten    --    727.2569                 0.7705                 0.7707
  Atom  AN      X      Y      Z        X      Y      Z        X      Y      Z
     1   6     0.77  -0.00   0.00     0.00   0.25  -0.02    -0.00   0.02   0.25
     2  17    -0.04   0.00  -0.00     0.00  -0.11   0.01    -0.00  -0.01  -0.11
     3   1     0.23   0.00  -0.10    -0.01   0.29  -0.02     0.19   0.02   0.29
     4   1     0.23   0.08   0.05    -0.16   0.29  -0.02    -0.11   0.01   0.29
     5   1     0.23  -0.08   0.05     0.17   0.29  -0.01    -0.08   0.02   0.29
     6   6    -0.32   0.00   0.00    -0.00   0.60  -0.04     0.00   0.04   0.60
     7   7    -0.33   0.00  -0.00    -0.00  -0.51   0.03     0.00  -0.03  -0.51
                      4                      5                      6
                      A                      A                      A
 Frequencies --    219.8213               219.8301               258.3641
 Red. masses --      4.3194                 4.3193                18.7176
 Frc consts  --      0.1230                 0.1230                 0.7361
 IR Inten    --     13.3048                13.3056                86.7280
  Atom  AN      X      Y      Z        X      Y      Z        X      Y      Z
     1   6    -0.00  -0.02   0.44    -0.00   0.44   0.02    -0.39  -0.00  -0.00
     2  17     0.00   0.00  -0.10     0.00  -0.10  -0.00     0.53   0.00  -0.00
     3   1     0.16  -0.02   0.48     0.01   0.47   0.02    -0.00  -0.00   0.08
     4   1    -0.07  -0.01   0.47    -0.14   0.48   0.03    -0.00  -0.07  -0.04
     5   1    -0.09  -0.03   0.47     0.13   0.48   0.01    -0.00   0.07  -0.04
     6   6     0.00   0.01  -0.28    -0.00  -0.28  -0.01    -0.52  -0.00   0.00
     7   7    -0.00  -0.00   0.02    -0.00   0.02   0.00    -0.53   0.00  -0.00
                      7                      8                      9
                      A                      A                      A
 Frequencies --    985.2912               985.3654              1171.3033
 Red. masses --      1.0674                 1.0674                 1.0591
 Frc consts  --      0.6105                 0.6106                 0.8561
 IR Inten    --      0.0207                 0.0206                69.2316
  Atom  AN      X      Y      Z        X      Y      Z        X      Y      Z
     1   6    -0.00   0.00  -0.07    -0.00   0.07   0.00    -0.05   0.00   0.00
     2  17    -0.00  -0.00   0.02     0.00  -0.02  -0.00    -0.02  -0.00   0.00
     3   1     0.79  -0.00   0.10    -0.02  -0.15  -0.00     0.56  -0.00   0.11
     4   1    -0.38  -0.03   0.14     0.70  -0.11   0.02     0.56  -0.10  -0.06
     5   1    -0.42   0.02   0.14    -0.68  -0.11  -0.03     0.56   0.10  -0.06
     6   6     0.00   0.00  -0.01    -0.00   0.01   0.00    -0.01  -0.00   0.00
     7   7     0.00  -0.00   0.00     0.00  -0.00  -0.00    -0.01   0.00  -0.00
                     10                     11                     12
                      A                      A                      A
 Frequencies --   1429.5237              1429.6601              2173.2319
 Red. masses --      1.0834                 1.0834                12.7838
 Frc consts  --      1.3044                 1.3046                35.5730
 IR Inten    --      5.3796                 5.3735                 7.8508
  Atom  AN      X      Y      Z        X      Y      Z        X      Y      Z
     1   6    -0.00  -0.00  -0.08    -0.00  -0.08   0.00    -0.00   0.00   0.00
     2  17     0.00  -0.00  -0.00    -0.00  -0.00   0.00    -0.00  -0.00   0.00
     3   1    -0.19   0.01  -0.11     0.00   0.78   0.00    -0.04   0.00  -0.01
     4   1     0.10  -0.39   0.56     0.17   0.12  -0.39    -0.04   0.01   0.00
     5   1     0.10   0.39   0.57    -0.17   0.11   0.38    -0.04  -0.01   0.00
     6   6    -0.00  -0.00  -0.00    -0.00  -0.00   0.00     0.76  -0.00   0.00
     7   7    -0.00   0.00   0.00     0.00   0.00  -0.00    -0.64   0.00  -0.00
                     13                     14                     15
                      A                      A                      A
 Frequencies --   3166.3977              3335.2850              3335.3800
 Red. masses --      1.0153                 1.1185                 1.1185
 Frc consts  --      5.9974                 7.3311                 7.3313
 IR Inten    --      3.7512                 0.3410                 0.3370
  Atom  AN      X      Y      Z        X      Y      Z        X      Y      Z
     1   6     0.03  -0.00   0.00     0.00  -0.10   0.00    -0.00  -0.00  -0.10
     2  17    -0.00   0.00  -0.00    -0.00   0.00  -0.00    -0.00   0.00   0.00
     3   1    -0.10  -0.00   0.57     0.00  -0.02  -0.01    -0.16  -0.00   0.80
     4   1    -0.11  -0.49  -0.29     0.14   0.59   0.35     0.08   0.36   0.19
     5   1    -0.11   0.49  -0.28    -0.14   0.60  -0.35     0.08  -0.35   0.18
     6   6     0.00   0.00  -0.00     0.00   0.00  -0.00     0.00   0.00   0.00
     7   7     0.00  -0.00   0.00    -0.00  -0.00   0.00     0.00  -0.00  -0.00

 -------------------
 - Thermochemistry -
 -------------------
 Temperature   298.150 Kelvin.  Pressure   1.00000 Atm.
 Atom     1 has atomic number  6 and mass  12.00000
 Atom     2 has atomic number 17 and mass  34.96885
 Atom     3 has atomic number  1 and mass   1.00783
 Atom     4 has atomic number  1 and mass   1.00783
 Atom     5 has atomic number  1 and mass   1.00783
 Atom     6 has atomic number  6 and mass  12.00000
 Atom     7 has atomic number  7 and mass  14.00307
 Molecular mass:    75.99540 amu.
 Principal axes and moments of inertia in atomic units:
                           1         2         3
     Eigenvalues --    12.018211457.483551457.48587
           X            1.00000   0.00000  -0.00001
           Y           -0.00000   0.99999  -0.00405
           Z            0.00001   0.00405   0.99999
 This molecule is an asymmetric top.
 Rotational symmetry number  1.
 Rotational temperatures (Kelvin)      7.20689     0.05943     0.05943
 Rotational constants (GHZ):         150.16726     1.23826     1.23826
    3 imaginary frequencies ignored.
 Zero-point vibrational energy     111907.4 (Joules/Mol)
                                   26.74651 (Kcal/Mol)
 Warning -- explicit consideration of   3 degrees of freedom as
           vibrations may cause significant error
 Vibrational temperatures:    316.27   316.29   371.73  1417.61  1417.72
          (Kelvin)           1685.24  2056.77  2056.96  3126.80  4555.74
                             4798.73  4798.87
 
 Zero-point correction=                           0.042623 (Hartree/Particle)
 Thermal correction to Energy=                    0.047101
 Thermal correction to Enthalpy=                  0.048046
 Thermal correction to Gibbs Free Energy=         0.015014
 Sum of electronic and zero-point Energies=           -592.946989
 Sum of electronic and thermal Energies=              -592.942511
 Sum of electronic and thermal Enthalpies=            -592.941566
 Sum of electronic and thermal Free Energies=         -592.974598
 
                     E (Thermal)             CV                S
                      KCal/Mol        Cal/Mol-Kelvin    Cal/Mol-Kelvin
 Total                   29.557             12.541             69.520
 Electronic               0.000              0.000              0.000
 Translational            0.889              2.981             38.900
 Rotational               0.889              2.981             24.749
 Vibrational             27.779              6.579              5.871
 Vibration     1          0.647              1.811              1.961
 Vibration     2          0.647              1.811              1.960
 Vibration     3          0.667              1.749              1.673
                       Q            Log10(Q)             Ln(Q)
 Total Bot       0.124123D-06         -6.906147        -15.901991
 Total V=0       0.500242D+13         12.699180         29.240942
 Vib (Bot)       0.833391D-19        -19.079151        -43.931369
 Vib (Bot)    1  0.899905D+00         -0.045803         -0.105466
 Vib (Bot)    2  0.899866D+00         -0.045822         -0.105510
 Vib (Bot)    3  0.752377D+00         -0.123564         -0.284517
 Vib (V=0)       0.335873D+01          0.526176          1.211564
 Vib (V=0)    1  0.152948D+01          0.184544          0.424928
 Vib (V=0)    2  0.152945D+01          0.184534          0.424905
 Vib (V=0)    3  0.140337D+01          0.147171          0.338874
 Electronic      0.100000D+01          0.000000          0.000000
 Translational   0.260396D+08          7.415635         17.075130
 Rotational      0.571965D+05          4.757369         10.954248
 
                                                       RxCoord=1.19971 DE=52.08
                                                             IR Spectrum
 
      3     3                                     2                           1         1                                            
      3     1                                     1                           4         1      9                           22        
      3     6                                     7                           3         7      8                           52        
      5     6                                     3                           0         1      5                           80        
 
      X     X                                     X                           X         X                                  XX        
                                                  X                           X         X                                  XX        
                                                                                        X                                  XX        
                                                                                        X                                  XX        
                                                                                        X                                  XX        
                                                                                        X                                  XX        
                                                                                        X                                  X         
                                                                                        X                                  X         
                                                                                        X                                  X         
                                                                                        X                                  X         
                                                                                        X                                  X         
                                                                                        X                                  X         
                                                                                        X                                  X         
                                                                                        X                                  X         
                                                                                        X                                  X         
                                                                                        X                                  X         
                                                                                                                           X         
                                                                                                                           X         
                                                                                                                           X         
                                                                                                                           X         
 
 -------------------------------------------------------------------
 Center     Atomic                   Forces (Hartrees/Bohr)
 Number     Number              X              Y              Z
 -------------------------------------------------------------------
      1        6          -0.012242309   -0.000000328   -0.000013491
      2       17           0.003268611    0.000000085    0.000007043
      3        1           0.000196184   -0.000002261    0.001000983
      4        1           0.000175899   -0.000901409   -0.000497377
      5        1           0.000175746    0.000903820   -0.000493133
      6        6           0.003188872    0.000000144   -0.000005958
      7        7           0.005236997   -0.000000050    0.000001933
 -------------------------------------------------------------------
 Cartesian Forces:  Max     0.012242309 RMS     0.003096661
 Z-matrix is all fixed cartesians, so copy forces.
 Force constants in Cartesian coordinates: 
                1             2             3             4             5 
      1  0.531621D-01
      2 -0.165345D-05  0.650452D+00
      3  0.107622D-03  0.000000D+00  0.650362D+00
      4  0.132847D-01  0.000000D+00  0.000000D+00  0.766618D-01
      5  0.000000D+00 -0.286919D-01  0.000000D+00  0.000000D+00  0.160939D-01
      6  0.000000D+00  0.000000D+00 -0.286870D-01 -0.130016D-04  0.000000D+00
      7 -0.301069D-01 -0.155761D-03  0.671532D-01 -0.220190D-01 -0.325316D-04
      8 -0.146303D-03 -0.516902D-01  0.709176D-03  0.126486D-04  0.364936D-03
      9  0.630990D-01  0.709168D-03 -0.357420D+00 -0.548044D-02 -0.133674D-04
     10 -0.301580D-01 -0.581841D-01 -0.337647D-01 -0.220112D-01 -0.120831D-01
     11 -0.546717D-01 -0.280346D+00 -0.132668D+00  0.474448D-02  0.467846D-02
     12 -0.317306D-01 -0.132659D+00 -0.128668D+00  0.275775D-02  0.250502D-02
     13 -0.301581D-01  0.583414D-01 -0.334956D-01 -0.220114D-01  0.121153D-01
     14  0.548197D-01 -0.281572D+00  0.131958D+00 -0.475743D-02  0.470169D-02
     15 -0.314779D-01  0.131949D+00 -0.127439D+00  0.273580D-02 -0.249159D-02
     16  0.840383D-02  0.000000D+00  0.165947D-05 -0.137756D-01  0.000000D+00
     17  0.000000D+00 -0.105466D-01  0.000000D+00  0.000000D+00  0.343926D-02
     18 -0.423974D-05  0.000000D+00 -0.105426D-01  0.570773D-05  0.000000D+00
     19  0.155724D-01  0.000000D+00 -0.174047D-05 -0.101292D-01  0.000000D+00
     20  0.000000D+00  0.239484D-02  0.000000D+00  0.000000D+00 -0.586385D-03
     21  0.707181D-05  0.000000D+00  0.239433D-02 -0.534361D-05  0.000000D+00
                6             7             8             9            10 
      6  0.160955D-01
      7  0.139789D-01  0.552091D-01
      8 -0.132443D-04  0.151223D-03  0.456609D-01
      9  0.612870D-02 -0.651738D-01 -0.743241D-03  0.366039D+00
     10 -0.701095D-02  0.250130D-02  0.488113D-02  0.355631D-02  0.552642D-01
     11  0.250272D-02 -0.611684D-03  0.344908D-02  0.337296D-02  0.564685D-01
     12  0.181679D-02 -0.601665D-02 -0.240766D-01 -0.862779D-02  0.327659D-01
     13 -0.695491D-02  0.250139D-02 -0.489758D-02  0.353372D-02  0.250063D-02
     14 -0.248938D-02  0.639644D-03  0.335266D-02 -0.331727D-02  0.551850D-02
     15  0.179370D-02 -0.601392D-02  0.241322D-01 -0.853151D-02  0.248042D-02
     16  0.000000D+00 -0.720498D-02  0.000000D+00 -0.123842D-03 -0.721511D-02
     17  0.000000D+00  0.103810D-04 -0.150763D-02 -0.109268D-04  0.387619D-02
     18  0.343859D-02 -0.447863D-02 -0.109295D-04  0.319473D-02  0.225061D-02
     19  0.000000D+00 -0.880854D-03 -0.136883D-05  0.589011D-03 -0.881864D-03
     20  0.000000D+00 -0.127130D-05  0.370287D-03  0.267074D-05 -0.477132D-03
     21 -0.586293D-03  0.550886D-03  0.268047D-05 -0.784075D-03 -0.277681D-03
               11            12            13            14            15 
     11  0.285258D+00
     12  0.139028D+00  0.126330D+00
     13 -0.552983D-02  0.245472D-02  0.552647D-01
     14 -0.145565D-01  0.136640D-01 -0.566212D-01  0.286543D+00
     15 -0.137751D-01  0.939248D-02  0.325049D-01 -0.138284D+00  0.125043D+00
     16  0.109413D-03  0.641405D-04 -0.721536D-02 -0.109756D-03  0.636457D-04
     17  0.201044D-02  0.203963D-02 -0.388658D-02  0.202937D-02 -0.202877D-02
     18  0.204060D-02 -0.323528D-03  0.223263D-02 -0.202972D-02 -0.342325D-03
     19 -0.509161D-03 -0.295330D-03 -0.881892D-03  0.510524D-03 -0.292958D-03
     20 -0.493563D-03 -0.501131D-03  0.478445D-03 -0.498223D-03  0.498462D-03
     21 -0.501459D-03  0.792478D-04 -0.275468D-03  0.498778D-03  0.838876D-04
               16            17            18            19            20 
     16  0.117444D+01
     17 -0.958927D-05  0.430554D-02
     18  0.385325D-03  0.000000D+00  0.430613D-02
     19 -0.114743D+01  0.973346D-05 -0.391408D-03  0.114463D+01
     20  0.971573D-05  0.269665D-03  0.000000D+00 -0.972793D-05 -0.145662D-02
     21 -0.391065D-03  0.000000D+00  0.269023D-03  0.391599D-03  0.000000D+00
               21 
     21 -0.145612D-02
 Leave Link  716 at Sun Oct 13 09:51:14 2024, MaxMem=  2684354560 cpu:               0.9 elap:               0.1
 (Enter /usr/local/g16_AVX//g16/l103.exe)

 GradGradGradGradGradGradGradGradGradGradGradGradGradGradGradGradGradGrad
 Berny optimization.
 Search for a local minimum.
 Step number   1 out of a maximum of    2
 All quantities printed in internal units (Hartrees-Bohrs-Radians)
 Second derivative matrix not updated -- analytic derivatives used.
 ITU=  0
     Eigenvalues ---   -0.00767  -0.00193  -0.00193   0.01078   0.01078
     Eigenvalues ---    0.04801   0.04875   0.04875   0.09222   0.10778
     Eigenvalues ---    0.10779   0.41478   0.95425   0.95431   2.30610
 Eigenvalue     1 is  -7.67D-03 should be greater than     0.000000 Eigenvector:
                          X1        X7        X6        X3        X4
   1                    0.75649  -0.38880  -0.38035   0.17439   0.17422
                          X5        X2        Z3        Y5        Y4
   1                    0.17421  -0.10077  -0.10073  -0.08765   0.08740
 Eigenvalue     2 is  -1.93D-03 should be greater than     0.000000 Eigenvector:
                          Y7        Y6        Y2        Y3        Y4
   1                    0.61115  -0.60542   0.21436  -0.20802  -0.20448
                          Y5        X5        X4        Y1        Z7
   1                   -0.20424  -0.17551   0.16618  -0.16374  -0.02743
 Eigenvalue     3 is  -1.93D-03 should be greater than     0.000000 Eigenvector:
                          Z7        Z6        Z2        Z5        Z4
   1                    0.61113  -0.60537   0.21437  -0.20712  -0.20685
                          Z3        X3        Z1        X4        X5
   1                   -0.20282  -0.19723  -0.16376   0.10683   0.09070
 Quadratic step=1.704D+00 exceeds max=3.000D-01 adjusted using Lamda=-3.659D-02.
 Angle between NR and scaled steps=   7.38 degrees.
 Angle between quadratic step and forces=  14.30 degrees.
 Linear search not attempted -- first point.
 B after Tr=     0.013553    0.000000   -0.000003
         Rot=    1.000000    0.000000   -0.000002    0.000000 Ang=  -0.00 deg.
 Variable       Old X    -DE/DX   Delta X   Delta X   Delta X     New X
                                 (Linear)    (Quad)   (Total)
    X1       -0.28965  -0.01224   0.00000  -0.24877  -0.23521  -0.52487
    Y1        0.00001  -0.00000   0.00000  -0.00000  -0.00000   0.00001
    Z1       -0.00030  -0.00001   0.00000  -0.00007  -0.00007  -0.00037
    X2       -4.10901   0.00327   0.00000   0.04909   0.06264  -4.04637
    Y2       -0.00000   0.00000   0.00000   0.00000   0.00000  -0.00000
    Z2        0.00008   0.00001   0.00000   0.00003   0.00004   0.00012
    X3        0.14193   0.00020   0.00000  -0.02990  -0.01636   0.12557
    Y3        0.00464  -0.00000   0.00000  -0.00008  -0.00008   0.00455
    Z3       -1.99410   0.00100   0.00000   0.03627   0.03627  -1.95783
    X4        0.14273   0.00018   0.00000  -0.03017  -0.01661   0.12612
    Y4        1.72449  -0.00090   0.00000  -0.03162  -0.03162   1.69287
    Z4        1.00021  -0.00050   0.00000  -0.01815  -0.01815   0.98205
    X5        0.14274   0.00018   0.00000  -0.03017  -0.01661   0.12613
    Y5       -1.72908   0.00090   0.00000   0.03170   0.03170  -1.69738
    Z5        0.99219  -0.00049   0.00000  -0.01800  -0.01801   0.97419
    X6        4.44459   0.00319   0.00000   0.09604   0.10960   4.55419
    Y6        0.00001   0.00000   0.00000   0.00000   0.00000   0.00001
    Z6       -0.00032  -0.00001   0.00000  -0.00010  -0.00011  -0.00043
    X7        6.66978   0.00524   0.00000   0.09900   0.11256   6.78234
    Y7       -0.00001  -0.00000   0.00000  -0.00000  -0.00000  -0.00001
    Z7        0.00044   0.00000   0.00000   0.00007   0.00004   0.00048
         Item               Value     Threshold  Converged?
 Maximum Force            0.012242     0.000450     NO 
 RMS     Force            0.003097     0.000300     NO 
 Maximum Displacement     0.235214     0.001800     NO 
 RMS     Displacement     0.065000     0.001200     NO 
 Predicted change in Energy=-4.376707D-03
 GradGradGradGradGradGradGradGradGradGradGradGradGradGradGradGradGradGrad

 Leave Link  103 at Sun Oct 13 09:51:14 2024, MaxMem=  2684354560 cpu:               0.6 elap:               0.1
 (Enter /usr/local/g16_AVX//g16/l9999.exe)

 ----------------------------------------------------------------------

 Electric dipole moment (input orientation):
 (Debye = 10**-18 statcoulomb cm , SI units = C m)
                  (au)            (Debye)         (10**-30 SI)
   Tot        0.280998D+01      0.714227D+01      0.238240D+02
   x         -0.280998D+01     -0.714227D+01     -0.238240D+02
   y          0.000000D+00      0.000000D+00      0.000000D+00
   z         -0.208344D-03     -0.529558D-03     -0.176642D-02

 Dipole polarizability, Alpha (input orientation).
 (esu units = cm**3 , SI units = C**2 m**2 J**-1)
 Alpha(0;0):
               (au)            (10**-24 esu)      (10**-40 SI)
   iso        0.633787D+02      0.939176D+01      0.104497D+02
   aniso      0.729801D+02      0.108145D+02      0.120328D+02
   xx         0.112032D+03      0.166015D+02      0.184716D+02
   yx        -0.624321D-04     -0.925149D-05     -0.102937D-04
   yy         0.390521D+02      0.578693D+01      0.643883D+01
   zx         0.317671D-02      0.470740D-03      0.523769D-03
   zy         0.000000D+00      0.000000D+00      0.000000D+00
   zz         0.390519D+02      0.578690D+01      0.643879D+01

 ----------------------------------------------------------------------

 Dipole orientation:
     6         -0.00027521          0.00001250          0.28965346
    17          0.00038781         -0.00001225          4.10901291
     1         -1.99410809          0.00464466         -0.14178380
     1          1.00020124          1.72448442         -0.14280271
     1          0.99217820         -1.72908454         -0.14282217
     6         -0.00064890          0.00001688         -4.44459424
     7         -0.00005233          0.00000359         -6.66978270

 Electric dipole moment (dipole orientation):
 (Debye = 10**-18 statcoulomb cm , SI units = C m)
                  (au)            (Debye)         (10**-30 SI)
   Tot        0.280998D+01      0.714227D+01      0.238240D+02
   x          0.000000D+00      0.000000D+00      0.000000D+00
   y          0.000000D+00      0.000000D+00      0.000000D+00
   z          0.280998D+01      0.714227D+01      0.238240D+02

 Dipole polarizability, Alpha (dipole orientation).
 (esu units = cm**3 , SI units = C**2 m**2 J**-1)
 Alpha(0;0):
               (au)            (10**-24 esu)      (10**-40 SI)
   iso        0.633787D+02      0.939176D+01      0.104497D+02
   aniso      0.729801D+02      0.108145D+02      0.120328D+02
   xx         0.390519D+02      0.578690D+01      0.643879D+01
   yx         0.000000D+00      0.000000D+00      0.000000D+00
   yy         0.390521D+02      0.578693D+01      0.643883D+01
   zx         0.223436D-02      0.331097D-03      0.368396D-03
   zy        -0.121636D-03     -0.180246D-04     -0.200550D-04
   zz         0.112032D+03      0.166015D+02      0.184716D+02

 ----------------------------------------------------------------------
 1\1\GINC-NODO6\Freq\RB3LYP\6-31++G(d,p)\C2H3Cl1N1(1-)\ALANQF\13-Oct-20
 24\0\\#p b3lyp 6-31++g(d,p) scf=verytight NoSymm freq=noraman int=ultr
 afine\\RxCoord=1.19971 DE=52.08\\-1,1\C,-0.153278,0.000007,-0.000157\C
 l,-2.174396,-0.000001,0.000044\H,0.075107,0.002455,-1.055231\H,0.07553
 1,0.912559,0.529287\H,0.075537,-0.914991,0.525046\C,2.351978,0.000003,
 -0.000169\N,3.529497,-0.000007,0.000234\\Version=ES64L-G16RevB.01\HF=-
 592.989612\RMSD=3.698e-09\RMSF=3.097e-03\ZeroPoint=0.0426233\Thermal=0
 .0471015\Dipole=-2.753771,0.0000079,-0.000231\DipoleDeriv=2.8595504,0.
 0000042,-0.0001305,0.0000069,0.0741714,0.0000004,-0.0002941,0.0000003,
 0.0742338,-1.9211102,-0.0000016,0.0000813,-0.0000051,-0.4151929,0.,0.0
 000738,0.,-0.415183,-0.1046472,0.0000142,-0.00636,0.0000596,0.0724178,
 0.0001135,-0.0260634,0.0001138,0.0233847,-0.104589,0.0055136,0.0032025
 ,0.0226337,0.0358151,-0.0212666,0.013186,-0.0212379,0.0600989,-0.10458
 89,-0.0055297,0.003177,-0.0226965,0.0356186,0.0211527,0.0130811,0.0211
 238,0.0602957,-0.5229086,-0.000003,0.0001114,-0.000006,-0.3859286,0.,0
 .0003323,0.,-0.3859343,-1.1017065,0.0000024,-0.0000816,0.0000074,-0.41
 69015,0.,-0.0003157,0.,-0.4168958\Polar=112.0321551,-0.0000624,39.0521
 334,0.0031767,0.0000017,39.0519086\Quadrupole=-26.1054606,13.0531698,1
 3.0522908,0.0000361,-0.0007283,0.000003\PG=C01 [X(C2H3Cl1N1)]\NImag=3\
 \0.05316211,-0.00000165,0.65045167,0.00010762,0.00000065,0.65036174,0.
 01328468,0.00000010,-0.00000048,0.07666175,0.00000014,-0.02869189,0.,0
 .00000018,0.01609392,-0.00000096,-0.00000003,-0.02868701,-0.00001300,-
 0.00000006,0.01609553,-0.03010691,-0.00015576,0.06715323,-0.02201904,-
 0.00003253,0.01397885,0.05520909,-0.00014630,-0.05169024,0.00070918,0.
 00001265,0.00036494,-0.00001324,0.00015122,0.04566090,0.06309902,0.000
 70917,-0.35741954,-0.00548044,-0.00001337,0.00612870,-0.06517378,-0.00
 074324,0.36603949,-0.03015796,-0.05818407,-0.03376466,-0.02201120,-0.0
 1208308,-0.00701095,0.00250130,0.00488113,0.00355631,0.05526421,-0.054
 67169,-0.28034562,-0.13266792,0.00474448,0.00467846,0.00250272,-0.0006
 1168,0.00344908,0.00337296,0.05646847,0.28525769,-0.03173058,-0.132659
 03,-0.12866751,0.00275775,0.00250502,0.00181679,-0.00601665,-0.0240766
 1,-0.00862779,0.03276594,0.13902816,0.12633031,-0.03015815,0.05834137,
 -0.03349564,-0.02201137,0.01211534,-0.00695491,0.00250139,-0.00489758,
 0.00353372,0.00250063,-0.00552983,0.00245472,0.05526474,0.05481969,-0.
 28157212,0.13195808,-0.00475743,0.00470169,-0.00248938,0.00063964,0.00
 335266,-0.00331727,0.00551850,-0.01455649,0.01366396,-0.05662117,0.286
 54310,-0.03147793,0.13194923,-0.12743938,0.00273580,-0.00249159,0.0017
 9370,-0.00601392,0.02413217,-0.00853151,0.00248042,-0.01377506,0.00939
 248,0.03250494,-0.13828445,0.12504315,0.00840383,-0.00000003,0.0000016
 6,-0.01377563,-0.00000001,0.00000014,-0.00720498,0.00000026,-0.0001238
 4,-0.00721511,0.00010941,0.00006414,-0.00721536,-0.00010976,0.00006365
 ,1.17443801,-0.00000003,-0.01054665,0.00000002,-0.00000011,0.00343926,
 0.,0.00001038,-0.00150763,-0.00001093,0.00387619,0.00201044,0.00203963
 ,-0.00388658,0.00202937,-0.00202877,-0.00000959,0.00430554,-0.00000424
 ,0.00000001,-0.01054262,0.00000571,0.,0.00343859,-0.00447863,-0.000010
 93,0.00319473,0.00225061,0.00204060,-0.00032353,0.00223263,-0.00202972
 ,-0.00034233,0.00038532,0.00000004,0.00430613,0.01557240,0.00000004,-0
 .00000174,-0.01012920,-0.00000004,0.00000083,-0.00088085,-0.00000137,0
 .00058901,-0.00088186,-0.00050916,-0.00029533,-0.00088189,0.00051052,-
 0.00029296,-1.14743076,0.00000973,-0.00039141,1.14463217,-0.00000016,0
 .00239484,0.,0.00000013,-0.00058639,0.,-0.00000127,0.00037029,0.000002
 67,-0.00047713,-0.00049356,-0.00050113,0.00047845,-0.00049822,0.000498
 46,0.00000972,0.00026967,0.,-0.00000973,-0.00145662,0.00000707,0.,0.00
 239433,-0.00000534,0.,-0.00058629,0.00055089,0.00000268,-0.00078408,-0
 .00027768,-0.00050146,0.00007925,-0.00027547,0.00049878,0.00008389,-0.
 00039106,0.,0.00026902,0.00039160,0.,-0.00145612\\0.01224231,0.0000003
 3,0.00001349,-0.00326861,-0.00000008,-0.00000704,-0.00019618,0.0000022
 6,-0.00100098,-0.00017590,0.00090141,0.00049738,-0.00017575,-0.0009038
 2,0.00049313,-0.00318887,-0.00000014,0.00000596,-0.00523700,0.00000005
 ,-0.00000193\\\@


 AN AIRPLANE IS A COLLECTION OF SPARE PARTS
 FLYING IN CLOSE FORMATION.
 Job cpu time:       0 days  0 hours  3 minutes 45.3 seconds.
 Elapsed time:       0 days  0 hours  0 minutes  9.7 seconds.
 File lengths (MBytes):  RWF=     88 Int=      0 D2E=      0 Chk=      2 Scr=      2
 Normal termination of Gaussian 16 at Sun Oct 13 09:51:15 2024.
