RxCoord=1.19971 DE=52.08                                                
Freq      RB3LYP                                                      6-31++G(d,p)        
Number of atoms                            I                7
Info1-9                                    I   N=           9
          16          16           0           0           0         100
           6          18        -502
Full Title                                 C   N=           2
RxCoord=1.19971 DE=52.08
Route                                      C   N=           6
#p b3lyp 6-31++g(d,p) scf=verytight NoSymm freq=noraman int=
ultrafine   
Charge                                     I               -1
Multiplicity                               I                1
Number of electrons                        I               40
Number of alpha electrons                  I               20
Number of beta electrons                   I               20
Number of basis functions                  I               98
Number of independent functions            I               98
Number of point charges in /Mol/           I                0
Number of translation vectors              I                0
Atomic numbers                             I   N=           7
           6          17           1           1           1           6
           7
Nuclear charges                            R   N=           7
  6.00000000E+00  1.70000000E+01  1.00000000E+00  1.00000000E+00  1.00000000E+00
  6.00000000E+00  7.00000000E+00
Current cartesian coordinates              R   N=          21
 -2.89653441E-01  1.32280829E-05 -2.96687002E-04 -4.10901293E+00 -1.88972612E-06
  8.31479495E-05  1.41931660E-01  4.63927764E-03 -1.99409759E+00  1.42732904E-01
  1.72448658E+00  1.00020747E+00  1.42744242E-01 -1.72908240E+00  9.92193143E-01
  4.44459427E+00  5.66917837E-06 -3.19363715E-04  6.66978269E+00 -1.32280829E-05
  4.42195913E-04
Number of symbols in /Mol/                 I                0
Force Field                                I                0
Atom Types                                 C   N=           7
                                                            
                        
Int Atom Types                             I   N=           7
           0           0           0           0           0           0
           0
MM charges                                 R   N=           7
  0.00000000E+00  0.00000000E+00  0.00000000E+00  0.00000000E+00  0.00000000E+00
  0.00000000E+00  0.00000000E+00
Integer atomic weights                     I   N=           7
          12          35           1           1           1          12
          14
Real atomic weights                        R   N=           7
  1.20000000E+01  3.49688527E+01  1.00782504E+00  1.00782504E+00  1.00782504E+00
  1.20000000E+01  1.40030740E+01
Atom fragment info                         I   N=           7
           0           0           0           0           0           0
           0
Atom residue num                           I   N=           7
           0           0           0           0           0           0
           0
Nuclear spins                              I   N=           7
           0           3           1           1           1           0
           2
Nuclear ZEff                               R   N=           7
 -3.60000000E+00 -1.42400000E+01 -1.00000000E+00 -1.00000000E+00 -1.00000000E+00
 -3.60000000E+00 -4.55000000E+00
Nuclear ZNuc                               R   N=           7
  6.00000000E+00  1.70000000E+01  1.00000000E+00  1.00000000E+00  1.00000000E+00
  6.00000000E+00  7.00000000E+00
Nuclear QMom                               R   N=           7
  0.00000000E+00 -8.16500000E+00  0.00000000E+00  0.00000000E+00  0.00000000E+00
  0.00000000E+00  2.04400000E+00
Nuclear GFac                               R   N=           7
  0.00000000E+00  8.21874000E-01  2.79284600E+00  2.79284600E+00  2.79284600E+00
  0.00000000E+00  4.03761000E-01
MicOpt                                     I   N=           7
          -1          -1          -1          -1          -1          -1
          -1
Number of residues                         I                0
Number of secondary structures             I                0
Number of contracted shells                I               33
Number of primitive shells                 I               72
Pure/Cartesian d shells                    I                1
Pure/Cartesian f shells                    I                0
Highest angular momentum                   I                2
Largest degree of contraction              I                6
Shell types                                I   N=          33
           0          -1          -1          -1           2           0
          -1          -1          -1          -1           2           0
           0           0           1           0           0           0
           1           0           0           0           1           0
          -1          -1          -1           2           0          -1
          -1          -1           2
Number of primitives per shell             I   N=          33
           6           3           1           1           1           6
           6           3           1           1           1           3
           1           1           1           3           1           1
           1           3           1           1           1           6
           3           1           1           1           6           3
           1           1           1
Shell to atom map                          I   N=          33
           1           1           1           1           1           2
           2           2           2           2           2           3
           3           3           3           4           4           4
           4           5           5           5           5           6
           6           6           6           6           7           7
           7           7           7
Primitive exponents                        R   N=          72
  3.04752488E+03  4.57369518E+02  1.03948685E+02  2.92101553E+01  9.28666296E+00
  3.16392696E+00  7.86827235E+00  1.88128854E+00  5.44249258E-01  1.68714478E-01
  4.38000000E-02  8.00000000E-01  2.51801000E+04  3.78035000E+03  8.60474000E+02
  2.42145000E+02  7.73349000E+01  2.62470000E+01  4.91765000E+02  1.16984000E+02
  3.74153000E+01  1.37834000E+01  5.45215000E+00  2.22588000E+00  3.18649000E+00
  1.14427000E+00  4.20377000E-01  1.42657000E-01  4.83000000E-02  7.50000000E-01
  1.87311370E+01  2.82539436E+00  6.40121692E-01  1.61277759E-01  3.60000000E-02
  1.10000000E+00  1.87311370E+01  2.82539436E+00  6.40121692E-01  1.61277759E-01
  3.60000000E-02  1.10000000E+00  1.87311370E+01  2.82539436E+00  6.40121692E-01
  1.61277759E-01  3.60000000E-02  1.10000000E+00  3.04752488E+03  4.57369518E+02
  1.03948685E+02  2.92101553E+01  9.28666296E+00  3.16392696E+00  7.86827235E+00
  1.88128854E+00  5.44249258E-01  1.68714478E-01  4.38000000E-02  8.00000000E-01
  4.17351146E+03  6.27457911E+02  1.42902093E+02  4.02343293E+01  1.28202129E+01
  4.39043701E+00  1.16263619E+01  2.71627981E+00  7.72218397E-01  2.12031498E-01
  6.39000000E-02  8.00000000E-01
Contraction coefficients                   R   N=          72
  1.83473713E-03  1.40373228E-02  6.88426223E-02  2.32184443E-01  4.67941348E-01
  3.62311985E-01 -1.19332420E-01 -1.60854152E-01  1.14345644E+00  1.00000000E+00
  1.00000000E+00  1.00000000E+00  1.83295985E-03  1.40341988E-02  6.90973943E-02
  2.37451980E-01  4.83033960E-01  3.39855972E-01 -2.29739142E-03 -3.07137189E-02
 -1.12528069E-01  4.50163278E-02  5.89353363E-01  4.65206287E-01 -2.51828028E-01
  6.15892514E-02  1.06018433E+00  1.00000000E+00  1.00000000E+00  1.00000000E+00
  3.34946043E-02  2.34726953E-01  8.13757326E-01  1.00000000E+00  1.00000000E+00
  1.00000000E+00  3.34946043E-02  2.34726953E-01  8.13757326E-01  1.00000000E+00
  1.00000000E+00  1.00000000E+00  3.34946043E-02  2.34726953E-01  8.13757326E-01
  1.00000000E+00  1.00000000E+00  1.00000000E+00  1.83473713E-03  1.40373228E-02
  6.88426223E-02  2.32184443E-01  4.67941348E-01  3.62311985E-01 -1.19332420E-01
 -1.60854152E-01  1.14345644E+00  1.00000000E+00  1.00000000E+00  1.00000000E+00
  1.83477216E-03  1.39946270E-02  6.85865518E-02  2.32240873E-01  4.69069948E-01
  3.60455199E-01 -1.14961182E-01 -1.69117479E-01  1.14585195E+00  1.00000000E+00
  1.00000000E+00  1.00000000E+00
P(S=P) Contraction coefficients            R   N=          72
  0.00000000E+00  0.00000000E+00  0.00000000E+00  0.00000000E+00  0.00000000E+00
  0.00000000E+00  6.89990666E-02  3.16423961E-01  7.44308291E-01  1.00000000E+00
  1.00000000E+00  0.00000000E+00  0.00000000E+00  0.00000000E+00  0.00000000E+00
  0.00000000E+00  0.00000000E+00  0.00000000E+00  3.98940088E-03  3.03177067E-02
  1.29880029E-01  3.27951072E-01  4.53527100E-01  2.52154056E-01 -1.42993147E-02
  3.23572333E-01  7.43507765E-01  1.00000000E+00  1.00000000E+00  0.00000000E+00
  0.00000000E+00  0.00000000E+00  0.00000000E+00  0.00000000E+00  0.00000000E+00
  0.00000000E+00  0.00000000E+00  0.00000000E+00  0.00000000E+00  0.00000000E+00
  0.00000000E+00  0.00000000E+00  0.00000000E+00  0.00000000E+00  0.00000000E+00
  0.00000000E+00  0.00000000E+00  0.00000000E+00  0.00000000E+00  0.00000000E+00
  0.00000000E+00  0.00000000E+00  0.00000000E+00  0.00000000E+00  6.89990666E-02
  3.16423961E-01  7.44308291E-01  1.00000000E+00  1.00000000E+00  0.00000000E+00
  0.00000000E+00  0.00000000E+00  0.00000000E+00  0.00000000E+00  0.00000000E+00
  0.00000000E+00  6.75797439E-02  3.23907296E-01  7.40895140E-01  1.00000000E+00
  1.00000000E+00  0.00000000E+00
Coordinates of each shell                  R   N=          99
 -2.89653441E-01  1.32280829E-05 -2.96687002E-04 -2.89653441E-01  1.32280829E-05
 -2.96687002E-04 -2.89653441E-01  1.32280829E-05 -2.96687002E-04 -2.89653441E-01
  1.32280829E-05 -2.96687002E-04 -2.89653441E-01  1.32280829E-05 -2.96687002E-04
 -4.10901293E+00 -1.88972612E-06  8.31479495E-05 -4.10901293E+00 -1.88972612E-06
  8.31479495E-05 -4.10901293E+00 -1.88972612E-06  8.31479495E-05 -4.10901293E+00
 -1.88972612E-06  8.31479495E-05 -4.10901293E+00 -1.88972612E-06  8.31479495E-05
 -4.10901293E+00 -1.88972612E-06  8.31479495E-05  1.41931660E-01  4.63927764E-03
 -1.99409759E+00  1.41931660E-01  4.63927764E-03 -1.99409759E+00  1.41931660E-01
  4.63927764E-03 -1.99409759E+00  1.41931660E-01  4.63927764E-03 -1.99409759E+00
  1.42732904E-01  1.72448658E+00  1.00020747E+00  1.42732904E-01  1.72448658E+00
  1.00020747E+00  1.42732904E-01  1.72448658E+00  1.00020747E+00  1.42732904E-01
  1.72448658E+00  1.00020747E+00  1.42744242E-01 -1.72908240E+00  9.92193143E-01
  1.42744242E-01 -1.72908240E+00  9.92193143E-01  1.42744242E-01 -1.72908240E+00
  9.92193143E-01  1.42744242E-01 -1.72908240E+00  9.92193143E-01  4.44459427E+00
  5.66917837E-06 -3.19363715E-04  4.44459427E+00  5.66917837E-06 -3.19363715E-04
  4.44459427E+00  5.66917837E-06 -3.19363715E-04  4.44459427E+00  5.66917837E-06
 -3.19363715E-04  4.44459427E+00  5.66917837E-06 -3.19363715E-04  6.66978269E+00
 -1.32280829E-05  4.42195913E-04  6.66978269E+00 -1.32280829E-05  4.42195913E-04
  6.66978269E+00 -1.32280829E-05  4.42195913E-04  6.66978269E+00 -1.32280829E-05
  4.42195913E-04  6.66978269E+00 -1.32280829E-05  4.42195913E-04
Num ILSW                                   I              100
ILSW                                       I   N=         100
           0           1           0           0           2           0
           0           0           0           0         402          -1
           5           0           0           0           2           0
           0           0           0           0           1           0
           1           1           0           0           0           0
           0           0      100000           0          -1           0
           0           0           0           0           0           0
           0           0           0           1           0           0
           0 -2000000000           1           0           0           0
           0           0           4          52           0           0
           0           0           5           0           0           0
           0           0           0           7           0           1
           0           0           0           0           0           0
           0           0           0           0           0           0
           0           0           0           0           0           0
           0           0           0           0           0           0
           0           0           0           0
Num RLSW                                   I               52
RLSW                                       R   N=          52
  8.00000000E-01  7.20000000E-01  1.00000000E+00  8.10000000E-01  2.00000000E-01
  0.00000000E+00  0.00000000E+00  1.00000000E+00  0.00000000E+00  0.00000000E+00
  0.00000000E+00  0.00000000E+00  1.00000000E+00  0.00000000E+00  0.00000000E+00
  0.00000000E+00  0.00000000E+00  1.00000000E+00  0.00000000E+00  0.00000000E+00
  0.00000000E+00  0.00000000E+00  1.00000000E+00  0.00000000E+00  0.00000000E+00
  0.00000000E+00  0.00000000E+00  1.00000000E+00  0.00000000E+00  0.00000000E+00
  0.00000000E+00  0.00000000E+00  1.00000000E+00  0.00000000E+00  0.00000000E+00
  0.00000000E+00  0.00000000E+00  0.00000000E+00  1.00000000E+00  1.00000000E+00
  0.00000000E+00  1.00000000E+00  0.00000000E+00  0.00000000E+00  0.00000000E+00
  0.00000000E+00  0.00000000E+00  0.00000000E+00  0.00000000E+00  0.00000000E+00
  0.00000000E+00  0.00000000E+00
MxBond                                     I                4
NBond                                      I   N=           7
           4           1           1           1           1           1
           1
IBond                                      I   N=          28
           2           3           4           5           1           0
           0           0           1           0           0           0
           1           0           0           0           1           0
           0           0           7           0           0           0
           6           0           0           0
RBond                                      R   N=          28
  1.00000000E+00  1.00000000E+00  1.00000000E+00  1.00000000E+00  1.00000000E+00
  0.00000000E+00  0.00000000E+00  0.00000000E+00  1.00000000E+00  0.00000000E+00
  0.00000000E+00  0.00000000E+00  1.00000000E+00  0.00000000E+00  0.00000000E+00
  0.00000000E+00  1.00000000E+00  0.00000000E+00  0.00000000E+00  0.00000000E+00
  3.00000000E+00  0.00000000E+00  0.00000000E+00  0.00000000E+00  3.00000000E+00
  0.00000000E+00  0.00000000E+00  0.00000000E+00
Virial Ratio                               R      2.004617166432060E+00
SCF Energy                                 R     -5.929896120048568E+02
Total Energy                               R     -5.929896120048568E+02
RMS Force                                  R      3.096661414834567E-03
RMS Density                                R      3.698062829525993E-09
NImag                                      I                3
Job Status                                 I                1
Nuclear derivative order                   I                2
External E-field                           R   N=          35
  0.00000000E+00  0.00000000E+00  0.00000000E+00  0.00000000E+00  0.00000000E+00
  0.00000000E+00  0.00000000E+00  0.00000000E+00  0.00000000E+00  0.00000000E+00
  0.00000000E+00  0.00000000E+00  0.00000000E+00  0.00000000E+00  0.00000000E+00
  0.00000000E+00  0.00000000E+00  0.00000000E+00  0.00000000E+00  0.00000000E+00
  0.00000000E+00  0.00000000E+00  0.00000000E+00  0.00000000E+00  0.00000000E+00
  0.00000000E+00  0.00000000E+00  0.00000000E+00  0.00000000E+00  0.00000000E+00
  0.00000000E+00  0.00000000E+00  0.00000000E+00  0.00000000E+00  0.00000000E+00
IOpCl                                      I                0
IROHF                                      I                0
Alpha Orbital Energies                     R   N=          98
 -1.01376316E+02 -1.41122818E+01 -1.01051564E+01 -9.97879693E+00 -9.29154038E+00
 -7.05361450E+00 -7.04681332E+00 -7.04681316E+00 -6.67059053E-01 -6.62574173E-01
 -5.39744727E-01 -3.02245865E-01 -3.02208549E-01 -2.38496538E-01 -1.92143320E-01
 -1.54041582E-01 -1.54036587E-01 -1.14649825E-01 -1.14649488E-01 -8.47174918E-02
  1.12613180E-01  1.26881134E-01  1.48455984E-01  1.48458578E-01  1.63096605E-01
  1.92987165E-01  2.05970940E-01  2.05972146E-01  2.21856794E-01  2.21875882E-01
  2.48448369E-01  2.49786088E-01  2.49789732E-01  2.64686343E-01  2.64687912E-01
  2.64792261E-01  3.12111896E-01  3.42518696E-01  3.42545002E-01  3.73307327E-01
  3.79973118E-01  3.79973917E-01  3.80801884E-01  4.63216156E-01  4.74613942E-01
  7.13392241E-01  7.58084406E-01  7.59399336E-01  7.59404711E-01  7.92259625E-01
  7.92279501E-01  8.83243032E-01  8.83254611E-01  8.84705630E-01  9.89291605E-01
  1.02598213E+00  1.02703168E+00  1.02705360E+00  1.07231398E+00  1.07233681E+00
  1.09575147E+00  1.09580420E+00  1.12459751E+00  1.18037054E+00  1.18037416E+00
  1.25142291E+00  1.33286397E+00  1.36106828E+00  1.50405688E+00  1.59883171E+00
  1.59889542E+00  1.76328902E+00  1.76329119E+00  1.78629779E+00  1.78629844E+00
  1.82596476E+00  2.14100181E+00  2.17789210E+00  2.17806918E+00  2.18597115E+00
  2.18597564E+00  2.19435897E+00  2.56691990E+00  2.56707051E+00  2.60780629E+00
  2.81818811E+00  2.81819505E+00  2.83544808E+00  2.94966102E+00  2.94989463E+00
  3.25841123E+00  3.42836058E+00  3.56676977E+00  3.56696122E+00  4.20686821E+00
  4.46008825E+00  4.47613911E+00  4.56092482E+00
Alpha MO coefficients                      R   N=        9604
 -2.87727097E-06 -5.30401920E-05 -3.18889057E-05 -1.37716441E-10  5.25225982E-09
  2.18648430E-05 -1.05741947E-04 -3.22401689E-10 -6.84646898E-09 -1.52926974E-04
 -4.56826719E-05  2.70179320E-11  2.38679957E-08  7.62560360E-05  1.85619969E-05
  1.85528987E-05  3.01495396E-10 -1.41993568E-09  5.70031720E-11  9.95997426E-01
  1.51505831E-02  2.84633125E-05  1.34748222E-10 -2.28405280E-09 -2.10562240E-02
 -1.32121780E-05 -3.79415050E-11  1.78114183E-09  1.85865106E-03 -6.40250159E-05
 -3.29013476E-10  7.08701545E-09 -3.21097990E-04  6.14306165E-06  6.91877662E-11
 -2.09342291E-09  7.49885784E-03  7.52730440E-03  7.52730444E-03 -1.40339652E-10
  4.29218746E-09 -1.07722687E-13 -1.10378109E-05 -9.75448858E-06  4.63508457E-05
  2.21233598E-05  1.17828791E-08 -5.03658612E-06 -1.10246830E-05 -9.75413667E-06
  4.63198493E-05  2.21248788E-05  4.35773825E-06  2.52869098E-06 -1.10246671E-05
 -9.75441676E-06  4.63204564E-05  2.21248202E-05 -4.36924568E-06  2.50845009E-06
 -1.59668815E-06 -3.74172276E-06  2.53762542E-06  6.25788617E-11 -3.55022760E-09
 -1.44320858E-04 -1.60480627E-04  8.76954603E-10 -3.01588352E-08 -1.22374623E-05
 -9.28535933E-05  2.59571168E-10 -3.89411769E-10 -1.06987785E-05 -1.62479453E-06
 -1.62490503E-06  1.47422415E-10 -6.82956215E-09 -9.73777546E-13 -3.16593267E-06
 -1.33848973E-05 -7.39953095E-07 -2.61479618E-11  1.44270970E-09  1.86221913E-04
 -9.06917779E-05  9.36478578E-10 -3.93113658E-08  1.20096592E-04  9.21592865E-06
  2.99568152E-10 -1.82720201E-08  3.12536114E-06 -8.30938570E-06 -8.30935652E-06
 -1.44490253E-10  6.12743651E-09  4.45857341E-13 -1.25429408E-06  1.16866354E-05
 -2.05113868E-05  2.28291605E-11  1.64170985E-09  3.41334131E-05  2.98379174E-05
  1.42601791E-10 -4.08375252E-08  1.22520044E-03  4.26683649E-04  1.32612791E-09
 -1.46336399E-07 -2.15206178E-05 -6.52790670E-07 -6.53829727E-07 -7.34606526E-11
  3.41741626E-09 -4.23417258E-12  1.33506016E-07  1.81896722E-06  2.51603454E-08
  1.05714259E-11 -3.35463164E-10  4.75713225E-06 -4.98022262E-07 -6.15615534E-11
  1.88630276E-09 -5.03219480E-05 -8.97576938E-07  2.03052832E-10 -3.64769367E-09
  1.46297099E-04  4.73349240E-06 -8.36058592E-10  4.89535755E-08  6.12348459E-06
  2.32626990E-06  2.32667059E-06  1.03119895E-11  7.80643868E-10 -1.74274498E-12
  2.99360294E-06 -8.34574982E-05 -1.63959321E-04 -5.27802449E-06  1.35495417E-08
 -5.83807860E-06  2.97834888E-06 -8.33624598E-05 -1.64110236E-04 -5.27761329E-06
  5.04646123E-06  2.93023151E-06  2.97796186E-06 -8.33614280E-05 -1.64115687E-04
 -5.27761037E-06 -5.05997969E-06  2.90677210E-06  8.41616968E-05  2.04828040E-04
 -3.11179152E-04  2.57450884E-09 -1.03145503E-07 -2.17292679E-04 -3.79936012E-04
  3.63569436E-09 -1.48997038E-07  1.01293555E-03  1.28019778E-03 -9.94030983E-09
  3.68540186E-07 -7.86742120E-04 -1.02601925E-05 -1.02611788E-05  7.62791838E-09
 -3.07101383E-07 -3.54889638E-12  9.92700166E-01  3.44604680E-02 -1.45694759E-03
  1.22339829E-08 -4.92630984E-07  5.16774086E-03  1.46621713E-04 -1.23985321E-09
  4.83428200E-08 -3.03369566E-03 -1.09344237E-05 -2.35246931E-10  2.50618290E-08
 -7.68477425E-03 -8.42352641E-03 -8.42352651E-03 -7.21682129E-09  2.90579270E-07
 -5.78091204E-12  9.93059464E-01  4.93286938E-02 -3.46020896E-04  2.26406222E-09
 -2.36639793E-07 -1.62114644E-02 -1.85183260E-05  1.55387814E-09  1.32323582E-06
  5.41285144E-03 -3.26339395E-03 -1.18048406E-08  1.10380583E-06 -9.28039934E-03
 -8.62971745E-03 -8.62992579E-03 -1.91343995E-09  1.51928653E-07  2.17637598E-09
 -7.49127456E-06 -5.90119553E-05 -2.97716127E-05 -1.54849065E-10  7.78016989E-09
 -2.56818889E-04  2.20666414E-04  1.09988830E-09 -4.85205587E-08  2.21586300E-03
  1.29730234E-03  4.41695878E-09 -1.31902372E-07 -4.69271959E-03 -1.71763640E-03
 -7.20582276E-09  3.94484066E-09  1.39770643E-04 -1.27532403E-04 -1.27548505E-04
  1.04527637E-09 -4.50396178E-08  4.01507463E-11 -1.73419565E-04  3.04247274E-03
 -9.35721898E-04  5.85130482E-05  3.60499343E-07 -1.55318701E-04 -1.73533312E-04
  3.04105553E-03 -9.36676300E-04  5.85602440E-05  1.34384652E-04  7.79394075E-05
 -1.73530129E-04  3.04105672E-03 -9.36671232E-04  5.85594280E-05 -1.34742886E-04
  7.73139503E-05 -1.04991386E-05 -1.59337065E-04  4.78315290E-05 -7.90763715E-10
  2.72851925E-08 -1.37461931E-03 -2.25089476E-03  1.71659585E-08 -6.48496864E-07
  1.91244575E-03  2.97692269E-04  1.12488997E-08 -4.24086595E-07  3.79557425E-05
 -4.01469665E-05 -4.01231788E-05  6.89031027E-10 -4.15086618E-08  1.81194369E-10
 -6.00562116E-05 -2.50555420E-04  2.33461889E-05 -8.74773196E-10  4.23810135E-08
  2.74944169E-03 -1.00444220E-03  1.10151578E-08 -4.70485633E-07 -4.74549117E-04
 -2.02306676E-04 -9.46066014E-09  3.93288835E-07 -6.10920670E-05 -1.33026403E-04
 -1.33029027E-04 -3.48638143E-10  1.45119818E-08 -4.58776750E-12 -4.06545927E-05
 -1.76792818E-04 -7.90805281E-05 -1.19304992E-10  1.80120253E-08  5.31616556E-04
  7.60878021E-04  3.87677550E-09 -3.24372709E-07 -6.61608844E-04  9.54927272E-03
  1.26107815E-08 -5.55601519E-07  7.66658643E-05 -3.82093677E-05 -3.82122127E-05
 -1.71835842E-10 -2.05496481E-08  1.90988196E-10  2.58850314E-07  9.43305439E-06
  9.05533582E-06  1.37058236E-10 -3.90359468E-09  2.01958416E-05 -5.98830167E-05
 -8.14436337E-10  2.27899512E-08 -3.11790113E-04  4.86293772E-04  3.36907086E-09
 -8.05872794E-08  9.34958310E-03  2.41978448E-03  1.68866340E-08 -3.38354940E-07
  6.42430840E-05 -6.22219589E-09 -1.58910086E-09  6.30224715E-10 -9.89835945E-09
  2.46449709E-11 -3.46147139E-05 -4.56911871E-04  2.27334555E-04 -2.28926773E-05
 -1.00964070E-08  4.19078422E-06 -3.46280801E-05 -4.56480222E-04  2.27420242E-04
 -2.27893871E-05 -3.66716197E-06 -2.10442076E-06 -3.46287335E-05 -4.56471779E-04
  2.27415949E-04 -2.27867900E-05  3.67748305E-06 -2.08815248E-06  9.92834241E-01
  4.94354257E-02  1.76019828E-03 -1.65913949E-08  6.92824543E-07 -1.05599950E-02
 -1.24067548E-04  7.10917977E-09 -3.68235953E-07 -1.31659713E-02  2.35183056E-03
 -5.46511404E-09 -5.59646736E-07 -8.46473966E-03 -9.72821818E-03 -9.72822309E-03
 -1.21926403E-08  4.95334505E-07 -1.05353417E-11 -4.81799178E-04  1.15090075E-04
  4.05129058E-04 -3.05038066E-09  1.29070386E-07 -1.88813527E-03  8.69095679E-04
 -1.01787059E-08  3.86361597E-07  9.23391601E-03 -3.99083803E-03  3.43190774E-08
 -1.01210705E-06 -2.29122787E-04  2.04983382E-04  2.04983913E-04  4.57347961E-09
 -1.90437625E-07 -2.24209644E-13 -5.93173815E-05  9.13573381E-05  1.95705197E-04
  6.05805838E-10  7.05546505E-09  2.06719226E-03 -1.71490614E-03 -2.60897767E-09
  5.53474621E-08 -1.56421139E-02  3.39182788E-02  7.00862456E-08 -2.65386039E-06
 -4.26331340E-04 -5.69686886E-05 -5.70533956E-05 -1.84793912E-09  2.36824807E-08
  6.54133361E-10 -2.84616034E-01  1.02275665E+00  3.33528551E-03  1.68268202E-08
 -2.67889158E-07  7.58495272E-02  4.87683138E-04  1.53146677E-09 -5.27643999E-08
 -2.52686025E-02 -1.64960114E-03 -5.01003312E-09  1.57492414E-07  4.90085015E-02
  1.45239728E-02  7.51093514E-08 -1.79745998E-06 -1.53825038E-02 -1.55495328E-02
 -1.55495384E-02  1.33771706E-09 -2.14243522E-08  5.54891448E-11 -5.21584647E-05
 -6.57415719E-04  1.17379838E-04 -5.05028587E-05  2.07625572E-10 -3.02805119E-07
 -5.21960517E-05 -6.57314287E-04  1.18642544E-04 -5.03268057E-05  2.77096336E-07
  1.81216542E-07 -5.21967745E-05 -6.57304064E-04  1.18624511E-04 -5.03265832E-05
 -2.77776794E-07  1.79268233E-07  1.72679894E-05  7.42732092E-05  3.65411545E-05
 -9.95482296E-10  6.23242113E-08 -4.99622739E-04 -3.10881466E-05  3.05719935E-09
 -1.71854789E-07 -2.46559113E-02  1.18246256E-02 -6.79142022E-08  1.29264258E-07
  8.93120918E-05  1.79854980E-05  1.79805633E-05  7.71956634E-11  7.81310067E-10
 -1.47125681E-11 -1.58730421E-05 -4.18803571E-05 -1.40660946E-05 -7.49441288E-11
  4.02461730E-08  2.79186897E-04  2.13175732E-04 -2.22607700E-09 -8.85381597E-08
  4.87971577E-04 -2.65386021E-03  2.49340942E-08  1.89827821E-07 -8.01507932E-05
 -3.28059496E-05 -3.28046608E-05  4.55478688E-10 -2.28246928E-08 -9.63865503E-12
  9.51362072E-05  1.05501023E-03 -2.92904444E-04 -4.20022457E-10  6.06134743E-10
 -4.07036149E-04  1.06404819E-03 -4.95871651E-09  9.04605093E-07  1.72882202E-02
 -6.21389309E-02 -9.40083474E-08  2.43095477E-06 -9.37313907E-04  3.03056158E-04
  3.02835851E-04 -5.46643109E-09  7.59173192E-08  3.52607300E-10  9.87270266E-04
 -3.73145873E-03  9.90462680E-01  4.25180158E-06 -6.02724894E-05 -6.31302223E-05
  3.10863758E-02  1.34031524E-07 -2.00457506E-06  3.24885141E-03 -1.35418703E-02
 -5.85905373E-08  1.00749224E-06 -6.18093252E-02 -1.24471157E-02 -1.00331744E-07
  2.30887662E-06  2.83199108E-04 -2.57945833E-04 -2.57957648E-04  1.65480806E-09
 -5.81342739E-08 -6.39324654E-11 -2.31376845E-04  1.49314170E-03 -5.45640153E-03
 -2.94726800E-04  7.76299585E-08 -3.36635990E-05 -2.31823007E-04  1.49248451E-03
 -5.45676549E-03 -2.94458532E-04  2.92528203E-05  1.69639012E-05 -2.31821097E-04
  1.49247061E-03 -5.45679680E-03 -2.94460363E-04 -2.93338676E-05  1.68289391E-05
 -4.37781073E-05 -2.08389953E-04 -9.18158993E-05  1.01178802E-09 -1.12316235E-07
  3.07941708E-03  1.59041569E-03 -1.72189824E-08  9.26566165E-07  6.19365815E-02
 -2.40955683E-02  1.06275737E-07  6.87641860E-07  2.89500120E-05 -7.43988128E-05
 -7.43950579E-05 -2.93865714E-09  1.12713321E-07  2.70567898E-12 -1.15316106E-05
 -2.28865538E-05  3.29456276E-05 -1.79383928E-10 -5.36715702E-08 -8.03146366E-04
  7.15622125E-04 -3.60723871E-09  4.22491469E-07 -9.79460746E-03  7.12874027E-03
 -6.58848324E-08  3.59421578E-07 -9.51843330E-05 -9.70469622E-06 -9.70944471E-06
  1.04166736E-09 -2.28390663E-08 -1.48635106E-11  9.19434845E-11  1.08325959E-10
  1.99501540E-09 -5.95162169E-05 -2.07326596E-07 -3.22712585E-09 -1.21753920E-08
  2.97614489E-04  1.03665730E-06 -3.88451535E-08 -1.75608135E-07  2.85483525E-04
  9.90010684E-07  7.76072395E-10  2.53820714E-07 -2.53948234E-07 -5.70977495E-05
 -1.98452603E-07 -8.43402009E-05  5.97289632E-10 -2.44950112E-09 -4.04354747E-06
  9.90842709E-01  3.45078792E-03 -1.93570276E-10 -1.20163018E-07  2.95812580E-02
  1.03021807E-04  5.91316732E-09  4.03222254E-08 -1.15902215E-02 -4.03641116E-05
 -1.54289164E-07 -5.85157444E-08  5.15419902E-03  1.79482651E-05 -2.99561565E-09
 -1.40613402E-08  1.51599443E-08  2.15334939E-04  7.49895165E-07  5.16398008E-06
  9.57581875E-08 -6.54863332E-07  5.04779314E-06  2.39885647E-07 -2.74620939E-05
 -1.72750182E-07 -7.12847520E-05  4.92438944E-04 -3.77571133E-03 -1.78174078E-04
 -7.73412079E-05 -2.89839570E-05  7.11892402E-05 -4.91766506E-04  3.77066033E-03
  1.77937168E-04 -7.74060693E-05  2.85221958E-05 -4.39937294E-10 -1.64098462E-09
  4.32069457E-10  5.64331278E-05  1.96334380E-07 -8.73381053E-09 -1.92909326E-08
 -2.32306355E-04 -8.08044221E-07  1.74492417E-07 -1.03478974E-07  1.02794938E-03
  3.57509415E-06 -1.43041152E-09 -9.78103154E-09  8.56428404E-09 -3.60111575E-07
 -1.26719223E-09  3.08655333E-06 -3.87489695E-10 -1.75510492E-09 -9.34355818E-11
 -2.29201994E-05 -7.98499828E-08  2.18321277E-08 -9.88865901E-09  1.38553200E-04
  4.82448574E-07  1.73828405E-09  2.88428876E-08 -3.71389481E-04 -1.29288234E-06
  5.60111050E-11 -8.36501112E-09  6.87161579E-09 -1.65552537E-05 -5.75781359E-08
  2.54587033E-06 -2.88917664E-08 -1.59198948E-07  1.16930616E-08  2.07345235E-07
 -5.95505436E-05  7.98913801E-07 -1.14088002E-07 -1.03548247E-06  2.97368947E-04
 -1.75867119E-06  1.20566034E-05 -9.93668039E-07  2.84100989E-04 -4.80543838E-08
 -7.31687657E-05  7.31575498E-05  1.99154180E-07 -5.70690725E-05 -2.94013344E-07
 -2.20673377E-08  1.04138401E-07  6.03604783E-05 -3.45078761E-03  9.90842717E-01
  3.33826929E-08  1.67547354E-06 -1.03022150E-04  2.95812192E-02 -6.63373897E-07
 -5.15013109E-07  4.03655624E-05 -1.15901114E-02  1.11531586E-05  3.40804791E-06
 -1.79527760E-05  5.15425910E-03  2.34734929E-08  4.52969045E-06 -4.49731494E-06
 -7.50024421E-07  2.15344773E-04  1.91764909E-08  8.21323824E-05 -5.69256965E-04
  4.35603648E-03  2.05704698E-04  2.50942914E-07 -9.41076217E-05 -4.10343993E-05
  2.83344980E-04 -2.17226776E-03 -1.02547725E-04 -2.86177758E-05 -4.41345477E-05
 -4.11997306E-05  2.84489815E-04 -2.18106349E-03 -1.02961932E-04  2.90018266E-05
 -4.40676862E-05  1.77038476E-08  7.82247894E-08 -6.79484203E-09 -1.96655300E-07