RxCoord=1.29969 DE=51.64                                                
Freq      RB3LYP                                                      6-31++G(d,p)        
Number of atoms                            I                7
Info1-9                                    I   N=           9
          16          16           0           0           0         100
           6          18        -502
Full Title                                 C   N=           2
RxCoord=1.29969 DE=51.64
Route                                      C   N=           6
#p b3lyp 6-31++g(d,p) scf=verytight NoSymm freq=noraman int=
ultrafine   
Charge                                     I               -1
Multiplicity                               I                1
Number of electrons                        I               40
Number of alpha electrons                  I               20
Number of beta electrons                   I               20
Number of basis functions                  I               98
Number of independent functions            I               98
Number of point charges in /Mol/           I                0
Number of translation vectors              I                0
Atomic numbers                             I   N=           7
           6          17           1           1           1           6
           7
Nuclear charges                            R   N=           7
  6.00000000E+00  1.70000000E+01  1.00000000E+00  1.00000000E+00  1.00000000E+00
  6.00000000E+00  7.00000000E+00
Current cartesian coordinates              R   N=          21
 -3.15342378E-01  1.32280829E-05 -3.06135632E-04 -4.10465144E+00 -1.88972612E-06
  8.31479495E-05  1.34608971E-01  4.62793928E-03 -1.99072821E+00  1.35429112E-01
  1.72155940E+00  9.98476482E-01  1.35448010E-01 -1.72614198E+00  9.90484830E-01
  4.45132737E+00  5.66917837E-06 -3.08025358E-04  6.67671042E+00 -1.32280829E-05
  4.44085639E-04
Number of symbols in /Mol/                 I                0
Force Field                                I                0
Atom Types                                 C   N=           7
                                                            
                        
Int Atom Types                             I   N=           7
           0           0           0           0           0           0
           0
MM charges                                 R   N=           7
  0.00000000E+00  0.00000000E+00  0.00000000E+00  0.00000000E+00  0.00000000E+00
  0.00000000E+00  0.00000000E+00
Integer atomic weights                     I   N=           7
          12          35           1           1           1          12
          14
Real atomic weights                        R   N=           7
  1.20000000E+01  3.49688527E+01  1.00782504E+00  1.00782504E+00  1.00782504E+00
  1.20000000E+01  1.40030740E+01
Atom fragment info                         I   N=           7
           0           0           0           0           0           0
           0
Atom residue num                           I   N=           7
           0           0           0           0           0           0
           0
Nuclear spins                              I   N=           7
           0           3           1           1           1           0
           2
Nuclear ZEff                               R   N=           7
 -3.60000000E+00 -1.42400000E+01 -1.00000000E+00 -1.00000000E+00 -1.00000000E+00
 -3.60000000E+00 -4.55000000E+00
Nuclear ZNuc                               R   N=           7
  6.00000000E+00  1.70000000E+01  1.00000000E+00  1.00000000E+00  1.00000000E+00
  6.00000000E+00  7.00000000E+00
Nuclear QMom                               R   N=           7
  0.00000000E+00 -8.16500000E+00  0.00000000E+00  0.00000000E+00  0.00000000E+00
  0.00000000E+00  2.04400000E+00
Nuclear GFac                               R   N=           7
  0.00000000E+00  8.21874000E-01  2.79284600E+00  2.79284600E+00  2.79284600E+00
  0.00000000E+00  4.03761000E-01
MicOpt                                     I   N=           7
          -1          -1          -1          -1          -1          -1
          -1
Number of residues                         I                0
Number of secondary structures             I                0
Number of contracted shells                I               33
Number of primitive shells                 I               72
Pure/Cartesian d shells                    I                1
Pure/Cartesian f shells                    I                0
Highest angular momentum                   I                2
Largest degree of contraction              I                6
Shell types                                I   N=          33
           0          -1          -1          -1           2           0
          -1          -1          -1          -1           2           0
           0           0           1           0           0           0
           1           0           0           0           1           0
          -1          -1          -1           2           0          -1
          -1          -1           2
Number of primitives per shell             I   N=          33
           6           3           1           1           1           6
           6           3           1           1           1           3
           1           1           1           3           1           1
           1           3           1           1           1           6
           3           1           1           1           6           3
           1           1           1
Shell to atom map                          I   N=          33
           1           1           1           1           1           2
           2           2           2           2           2           3
           3           3           3           4           4           4
           4           5           5           5           5           6
           6           6           6           6           7           7
           7           7           7
Primitive exponents                        R   N=          72
  3.04752488E+03  4.57369518E+02  1.03948685E+02  2.92101553E+01  9.28666296E+00
  3.16392696E+00  7.86827235E+00  1.88128854E+00  5.44249258E-01  1.68714478E-01
  4.38000000E-02  8.00000000E-01  2.51801000E+04  3.78035000E+03  8.60474000E+02
  2.42145000E+02  7.73349000E+01  2.62470000E+01  4.91765000E+02  1.16984000E+02
  3.74153000E+01  1.37834000E+01  5.45215000E+00  2.22588000E+00  3.18649000E+00
  1.14427000E+00  4.20377000E-01  1.42657000E-01  4.83000000E-02  7.50000000E-01
  1.87311370E+01  2.82539436E+00  6.40121692E-01  1.61277759E-01  3.60000000E-02
  1.10000000E+00  1.87311370E+01  2.82539436E+00  6.40121692E-01  1.61277759E-01
  3.60000000E-02  1.10000000E+00  1.87311370E+01  2.82539436E+00  6.40121692E-01
  1.61277759E-01  3.60000000E-02  1.10000000E+00  3.04752488E+03  4.57369518E+02
  1.03948685E+02  2.92101553E+01  9.28666296E+00  3.16392696E+00  7.86827235E+00
  1.88128854E+00  5.44249258E-01  1.68714478E-01  4.38000000E-02  8.00000000E-01
  4.17351146E+03  6.27457911E+02  1.42902093E+02  4.02343293E+01  1.28202129E+01
  4.39043701E+00  1.16263619E+01  2.71627981E+00  7.72218397E-01  2.12031498E-01
  6.39000000E-02  8.00000000E-01
Contraction coefficients                   R   N=          72
  1.83473713E-03  1.40373228E-02  6.88426223E-02  2.32184443E-01  4.67941348E-01
  3.62311985E-01 -1.19332420E-01 -1.60854152E-01  1.14345644E+00  1.00000000E+00
  1.00000000E+00  1.00000000E+00  1.83295985E-03  1.40341988E-02  6.90973943E-02
  2.37451980E-01  4.83033960E-01  3.39855972E-01 -2.29739142E-03 -3.07137189E-02
 -1.12528069E-01  4.50163278E-02  5.89353363E-01  4.65206287E-01 -2.51828028E-01
  6.15892514E-02  1.06018433E+00  1.00000000E+00  1.00000000E+00  1.00000000E+00
  3.34946043E-02  2.34726953E-01  8.13757326E-01  1.00000000E+00  1.00000000E+00
  1.00000000E+00  3.34946043E-02  2.34726953E-01  8.13757326E-01  1.00000000E+00
  1.00000000E+00  1.00000000E+00  3.34946043E-02  2.34726953E-01  8.13757326E-01
  1.00000000E+00  1.00000000E+00  1.00000000E+00  1.83473713E-03  1.40373228E-02
  6.88426223E-02  2.32184443E-01  4.67941348E-01  3.62311985E-01 -1.19332420E-01
 -1.60854152E-01  1.14345644E+00  1.00000000E+00  1.00000000E+00  1.00000000E+00
  1.83477216E-03  1.39946270E-02  6.85865518E-02  2.32240873E-01  4.69069948E-01
  3.60455199E-01 -1.14961182E-01 -1.69117479E-01  1.14585195E+00  1.00000000E+00
  1.00000000E+00  1.00000000E+00
P(S=P) Contraction coefficients            R   N=          72
  0.00000000E+00  0.00000000E+00  0.00000000E+00  0.00000000E+00  0.00000000E+00
  0.00000000E+00  6.89990666E-02  3.16423961E-01  7.44308291E-01  1.00000000E+00
  1.00000000E+00  0.00000000E+00  0.00000000E+00  0.00000000E+00  0.00000000E+00
  0.00000000E+00  0.00000000E+00  0.00000000E+00  3.98940088E-03  3.03177067E-02
  1.29880029E-01  3.27951072E-01  4.53527100E-01  2.52154056E-01 -1.42993147E-02
  3.23572333E-01  7.43507765E-01  1.00000000E+00  1.00000000E+00  0.00000000E+00
  0.00000000E+00  0.00000000E+00  0.00000000E+00  0.00000000E+00  0.00000000E+00
  0.00000000E+00  0.00000000E+00  0.00000000E+00  0.00000000E+00  0.00000000E+00
  0.00000000E+00  0.00000000E+00  0.00000000E+00  0.00000000E+00  0.00000000E+00
  0.00000000E+00  0.00000000E+00  0.00000000E+00  0.00000000E+00  0.00000000E+00
  0.00000000E+00  0.00000000E+00  0.00000000E+00  0.00000000E+00  6.89990666E-02
  3.16423961E-01  7.44308291E-01  1.00000000E+00  1.00000000E+00  0.00000000E+00
  0.00000000E+00  0.00000000E+00  0.00000000E+00  0.00000000E+00  0.00000000E+00
  0.00000000E+00  6.75797439E-02  3.23907296E-01  7.40895140E-01  1.00000000E+00
  1.00000000E+00  0.00000000E+00
Coordinates of each shell                  R   N=          99
 -3.15342378E-01  1.32280829E-05 -3.06135632E-04 -3.15342378E-01  1.32280829E-05
 -3.06135632E-04 -3.15342378E-01  1.32280829E-05 -3.06135632E-04 -3.15342378E-01
  1.32280829E-05 -3.06135632E-04 -3.15342378E-01  1.32280829E-05 -3.06135632E-04
 -4.10465144E+00 -1.88972612E-06  8.31479495E-05 -4.10465144E+00 -1.88972612E-06
  8.31479495E-05 -4.10465144E+00 -1.88972612E-06  8.31479495E-05 -4.10465144E+00
 -1.88972612E-06  8.31479495E-05 -4.10465144E+00 -1.88972612E-06  8.31479495E-05
 -4.10465144E+00 -1.88972612E-06  8.31479495E-05  1.34608971E-01  4.62793928E-03
 -1.99072821E+00  1.34608971E-01  4.62793928E-03 -1.99072821E+00  1.34608971E-01
  4.62793928E-03 -1.99072821E+00  1.34608971E-01  4.62793928E-03 -1.99072821E+00
  1.35429112E-01  1.72155940E+00  9.98476482E-01  1.35429112E-01  1.72155940E+00
  9.98476482E-01  1.35429112E-01  1.72155940E+00  9.98476482E-01  1.35429112E-01
  1.72155940E+00  9.98476482E-01  1.35448010E-01 -1.72614198E+00  9.90484830E-01
  1.35448010E-01 -1.72614198E+00  9.90484830E-01  1.35448010E-01 -1.72614198E+00
  9.90484830E-01  1.35448010E-01 -1.72614198E+00  9.90484830E-01  4.45132737E+00
  5.66917837E-06 -3.08025358E-04  4.45132737E+00  5.66917837E-06 -3.08025358E-04
  4.45132737E+00  5.66917837E-06 -3.08025358E-04  4.45132737E+00  5.66917837E-06
 -3.08025358E-04  4.45132737E+00  5.66917837E-06 -3.08025358E-04  6.67671042E+00
 -1.32280829E-05  4.44085639E-04  6.67671042E+00 -1.32280829E-05  4.44085639E-04
  6.67671042E+00 -1.32280829E-05  4.44085639E-04  6.67671042E+00 -1.32280829E-05
  4.44085639E-04  6.67671042E+00 -1.32280829E-05  4.44085639E-04
Num ILSW                                   I              100
ILSW                                       I   N=         100
           0           1           0           0           2           0
           0           0           0           0         402          -1
           5           0           0           0           2           0
           0           0           0           0           1           0
           1           1           0           0           0           0
           0           0      100000           0          -1           0
           0           0           0           0           0           0
           0           0           0           1           0           0
           0 -2000000000           1           0           0           0
           0           0           4          52           0           0
           0           0           5           0           0           0
           0           0           0           7           0           1
           0           0           0           0           0           0
           0           0           0           0           0           0
           0           0           0           0           0           0
           0           0           0           0           0           0
           0           0           0           0
Num RLSW                                   I               52
RLSW                                       R   N=          52
  8.00000000E-01  7.20000000E-01  1.00000000E+00  8.10000000E-01  2.00000000E-01
  0.00000000E+00  0.00000000E+00  1.00000000E+00  0.00000000E+00  0.00000000E+00
  0.00000000E+00  0.00000000E+00  1.00000000E+00  0.00000000E+00  0.00000000E+00
  0.00000000E+00  0.00000000E+00  1.00000000E+00  0.00000000E+00  0.00000000E+00
  0.00000000E+00  0.00000000E+00  1.00000000E+00  0.00000000E+00  0.00000000E+00
  0.00000000E+00  0.00000000E+00  1.00000000E+00  0.00000000E+00  0.00000000E+00
  0.00000000E+00  0.00000000E+00  1.00000000E+00  0.00000000E+00  0.00000000E+00
  0.00000000E+00  0.00000000E+00  0.00000000E+00  1.00000000E+00  1.00000000E+00
  0.00000000E+00  1.00000000E+00  0.00000000E+00  0.00000000E+00  0.00000000E+00
  0.00000000E+00  0.00000000E+00  0.00000000E+00  0.00000000E+00  0.00000000E+00
  0.00000000E+00  0.00000000E+00
MxBond                                     I                4
NBond                                      I   N=           7
           4           1           1           1           1           1
           1
IBond                                      I   N=          28
           2           3           4           5           1           0
           0           0           1           0           0           0
           1           0           0           0           1           0
           0           0           7           0           0           0
           6           0           0           0
RBond                                      R   N=          28
  1.00000000E+00  1.00000000E+00  1.00000000E+00  1.00000000E+00  1.00000000E+00
  0.00000000E+00  0.00000000E+00  0.00000000E+00  1.00000000E+00  0.00000000E+00
  0.00000000E+00  0.00000000E+00  1.00000000E+00  0.00000000E+00  0.00000000E+00
  0.00000000E+00  1.00000000E+00  0.00000000E+00  0.00000000E+00  0.00000000E+00
  3.00000000E+00  0.00000000E+00  0.00000000E+00  0.00000000E+00  3.00000000E+00
  0.00000000E+00  0.00000000E+00  0.00000000E+00
Virial Ratio                               R      2.004608530110735E+00
SCF Energy                                 R     -5.929900062150306E+02
Total Energy                               R     -5.929900062150306E+02
RMS Force                                  R      3.109249206378127E-03
RMS Density                                R      3.867833368835376E-09
NImag                                      I                3
Job Status                                 I                1
Nuclear derivative order                   I                2
External E-field                           R   N=          35
  0.00000000E+00  0.00000000E+00  0.00000000E+00  0.00000000E+00  0.00000000E+00
  0.00000000E+00  0.00000000E+00  0.00000000E+00  0.00000000E+00  0.00000000E+00
  0.00000000E+00  0.00000000E+00  0.00000000E+00  0.00000000E+00  0.00000000E+00
  0.00000000E+00  0.00000000E+00  0.00000000E+00  0.00000000E+00  0.00000000E+00
  0.00000000E+00  0.00000000E+00  0.00000000E+00  0.00000000E+00  0.00000000E+00
  0.00000000E+00  0.00000000E+00  0.00000000E+00  0.00000000E+00  0.00000000E+00
  0.00000000E+00  0.00000000E+00  0.00000000E+00  0.00000000E+00  0.00000000E+00
IOpCl                                      I                0
IROHF                                      I                0
Alpha Orbital Energies                     R   N=          98
 -1.01378980E+02 -1.41105844E+01 -1.01043238E+01 -9.97677490E+00 -9.29426981E+00
 -7.05642816E+00 -7.04949002E+00 -7.04948985E+00 -6.67189953E-01 -6.64436769E-01
 -5.39331490E-01 -3.01882816E-01 -3.01844689E-01 -2.40740578E-01 -1.91698444E-01
 -1.55873751E-01 -1.55868296E-01 -1.13029036E-01 -1.13028686E-01 -8.32343010E-02
  1.12610856E-01  1.27308122E-01  1.48373900E-01  1.48376489E-01  1.63721961E-01
  1.93572252E-01  2.06092109E-01  2.06093505E-01  2.21786754E-01  2.21807583E-01
  2.48102649E-01  2.49976263E-01  2.49980428E-01  2.65539833E-01  2.65604135E-01
  2.65606377E-01  3.12455195E-01  3.42452784E-01  3.42481091E-01  3.72612112E-01
  3.80716481E-01  3.80716808E-01  3.81198219E-01  4.63896027E-01  4.75347897E-01
  7.09913485E-01  7.56389561E-01  7.58347596E-01  7.58352934E-01  7.90888898E-01
  7.90907658E-01  8.84560231E-01  8.84693673E-01  8.84704491E-01  9.89564093E-01
  1.02474960E+00  1.02477145E+00  1.03133521E+00  1.07078652E+00  1.07081115E+00
  1.09576617E+00  1.09582265E+00  1.12404506E+00  1.18152795E+00  1.18153189E+00
  1.25270839E+00  1.33178178E+00  1.35842668E+00  1.50258191E+00  1.59894160E+00
  1.59900822E+00  1.76502203E+00  1.76502419E+00  1.78816513E+00  1.78816622E+00
  1.82438671E+00  2.14272778E+00  2.18206604E+00  2.18223600E+00  2.18786261E+00
  2.18786570E+00  2.19968642E+00  2.55967778E+00  2.55983347E+00  2.61352088E+00
  2.81990317E+00  2.81991006E+00  2.83666524E+00  2.95263916E+00  2.95287360E+00
  3.25937415E+00  3.42494763E+00  3.56579495E+00  3.56598247E+00  4.20810302E+00
  4.45939797E+00  4.47362864E+00  4.55962146E+00
Alpha MO coefficients                      R   N=        9604
 -3.18768688E-06 -4.81195804E-05 -3.42153864E-05 -1.62415285E-10  5.67971279E-09
  2.57670219E-05 -1.02425459E-04 -2.10205857E-10 -7.66958580E-09 -1.46085087E-04
 -5.85785126E-05 -1.61663792E-10  2.42550942E-08  7.17254465E-05  1.86864552E-05
  1.86762525E-05  2.17970237E-10 -1.12382143E-09  6.29817696E-11  9.95997402E-01
  1.51505853E-02  2.94541182E-05  1.24664654E-10 -2.42970066E-09 -2.10560690E-02
 -1.39267536E-05 -4.21794551E-11  1.82151878E-09  1.85936889E-03 -6.39834630E-05
 -3.32495203E-10  7.63412068E-09 -3.35005309E-04  2.39434564E-06  4.76124782E-11
 -1.62587520E-09  7.49827912E-03  7.52707890E-03  7.52707895E-03 -1.52135061E-10
  4.54904059E-09 -5.40232147E-13 -1.20447029E-05 -1.02948829E-05  4.54187647E-05
  2.21139587E-05  1.32547694E-08 -5.67943988E-06 -1.20314488E-05 -1.02949987E-05
  4.53892090E-05  2.21165701E-05  4.91382153E-06  2.85141971E-06 -1.20311977E-05
 -1.02953719E-05  4.53894700E-05  2.21165426E-05 -4.92685434E-06  2.82863758E-06
 -1.58299443E-06 -3.39605496E-06  2.46522799E-06  6.38315829E-11 -3.50310759E-09
 -1.44119162E-04 -1.58117592E-04  8.58707584E-10 -2.97045572E-08 -1.50763043E-06
 -9.66197304E-05  2.85007315E-10 -7.72939332E-10 -1.11107661E-05 -1.60558347E-06
 -1.60570921E-06  1.52498279E-10 -6.72236500E-09 -2.02479228E-12 -3.15848082E-06
 -1.32712117E-05 -8.24222311E-07 -2.60264520E-11  1.32611519E-09  1.84868013E-04
 -9.02766170E-05  9.33529736E-10 -3.83647776E-08  1.17671987E-04  1.05642482E-05
  2.86243882E-10 -1.75796618E-08  3.22351927E-06 -8.35108119E-06 -8.35104955E-06
 -1.45456038E-10  6.07922195E-09  4.79719589E-13 -8.15900590E-07  1.25756601E-05
 -1.91869866E-05  1.02440388E-11  1.37612650E-09  2.74270535E-05  2.60410638E-05
  3.32317090E-10 -4.07036478E-08  1.21070587E-03  3.93098471E-04  1.32012322E-09
 -1.40948782E-07 -2.02743347E-05  2.88578699E-07  2.87816010E-07 -9.36527333E-11
  3.18771704E-09 -2.80356251E-12  1.30285986E-07  1.84359805E-06 -3.39559205E-08
  1.24426143E-11 -3.24682128E-10  4.62405997E-06 -1.60708108E-07 -7.23711564E-11
  1.82264174E-09 -4.99383450E-05 -2.47532294E-06  2.26674941E-10 -3.23223186E-09
  1.17773011E-04 -3.29514777E-06 -8.93224627E-10  4.89087208E-08  6.12675905E-06
  2.46071752E-06  2.46111683E-06  1.32048434E-11  8.04259684E-10  2.31865379E-12
  3.30668359E-06 -8.11375722E-05 -1.66354622E-04 -4.97514718E-06  1.33017262E-08
 -5.73891160E-06  3.29110863E-06 -8.10425756E-05 -1.66508137E-04 -4.97546692E-06
  4.96061607E-06  2.88022654E-06  3.29063319E-06 -8.10411632E-05 -1.66514232E-04
 -4.97550372E-06 -4.97389344E-06  2.85718637E-06  8.41958763E-05  2.04797070E-04
 -3.08692350E-04  2.56693279E-09 -1.01325423E-07 -2.21704390E-04 -3.85376493E-04
  3.61742794E-09 -1.47245746E-07  1.06083938E-03  1.25572239E-03 -1.00818842E-08
  3.65788844E-07 -7.84132949E-04 -1.04780599E-05 -1.04790617E-05  7.60840737E-09
 -3.02340686E-07 -6.76376493E-12  9.92699683E-01  3.44597820E-02 -1.45134796E-03
  1.21518820E-08 -4.84254488E-07  5.17514109E-03  1.42014600E-04 -1.17411272E-09
  4.58502502E-08 -3.03397351E-03 -4.29793147E-06 -1.56650102E-10  2.35754236E-08
 -7.68716651E-03 -8.42409605E-03 -8.42409614E-03 -7.20242182E-09  2.86340276E-07
 -6.26883983E-12  9.93054683E-01  4.93476435E-02 -3.75566345E-04  3.83184429E-09
 -2.43567708E-07 -1.62168527E-02  5.33239736E-05 -5.42328998E-09  1.34622567E-06
  5.57817416E-03 -3.26836537E-03 -1.40049381E-08  1.13065613E-06 -9.28120984E-03
 -8.64744456E-03 -8.64765354E-03 -2.65262754E-09  1.51480405E-07  2.59614024E-09
 -7.47646206E-06 -5.92953858E-05 -2.84425169E-05 -2.30959847E-10  7.85529795E-09
 -2.42039962E-04  2.22587585E-04  1.61193854E-09 -5.00248978E-08  2.28821132E-03
  1.33712518E-03  3.24679571E-09 -1.44978865E-07 -4.79691240E-03 -1.74032000E-03
 -5.95486280E-09  8.34578589E-09  1.23185945E-04 -1.31111460E-04 -1.31127912E-04
  8.09540862E-10 -4.59381062E-08 -1.11994605E-10 -1.71474327E-04  3.04161659E-03
 -9.38349747E-04  5.69575713E-05  3.48265276E-07 -1.49949586E-04 -1.71589453E-04
  3.04018454E-03 -9.39333557E-04  5.70047326E-05  1.29735544E-04  7.52396181E-05
 -1.71585611E-04  3.04017470E-03 -9.39323988E-04  5.70037026E-05 -1.30080983E-04
  7.46370546E-05 -1.10905536E-05 -1.52179200E-04  4.73782893E-05 -1.21306562E-09
  3.05878784E-08 -1.29246861E-03 -2.12218615E-03  1.83962365E-08 -6.33590671E-07
  1.88713391E-03  3.49306848E-04  1.44288806E-08 -4.32501247E-07  3.53087217E-05
 -3.98778782E-05 -3.98532543E-05  5.00768272E-10 -3.63699910E-08  2.62856386E-10
 -5.78613595E-05 -2.40198385E-04  2.19999473E-05 -7.27307251E-10  3.86322705E-08
  2.61525897E-03 -9.47116290E-04  9.77151481E-09 -4.30737659E-07 -5.35755369E-04
 -2.06625981E-04 -1.17786652E-08  4.03867783E-07 -5.98006463E-05 -1.28631372E-04
 -1.28634126E-04 -1.52565727E-10  1.12207443E-08 -9.78796213E-12 -3.87424430E-05
 -1.71423428E-04 -8.20824575E-05 -2.55505311E-10  1.95342265E-08  5.19447400E-04
  7.54015871E-04  5.59724933E-09 -3.42126990E-07 -9.67159796E-04  9.19872315E-03
  1.20138043E-08 -5.38474521E-07  7.05081611E-05 -3.75579677E-05 -3.75608136E-05
 -9.82486652E-12 -2.08961082E-08  1.96302040E-10  2.60048821E-07  9.31236421E-06
  8.72948358E-06  1.49756005E-10 -3.98082264E-09  2.03733409E-05 -5.75686483E-05
 -8.87261872E-10  2.31402529E-08 -3.00474103E-04  4.79936143E-04  3.54899982E-09
 -8.04897507E-08  9.19749072E-03  2.36229190E-03  1.61940119E-08 -3.44660905E-07
  6.32410825E-05 -7.75806152E-08 -7.27690736E-08  6.23626097E-10 -9.61437636E-09
  4.81762426E-11 -3.53524096E-05 -4.57462107E-04  2.12876304E-04 -2.33539382E-05
 -7.18055610E-09  2.88935741E-06 -3.53663953E-05 -4.57007282E-04  2.12922339E-04
 -2.32474939E-05 -2.54439701E-06 -1.45151910E-06 -3.53672572E-05 -4.56996177E-04
  2.12913838E-04 -2.32439863E-05  2.55185146E-06 -1.44069801E-06  9.92834287E-01
  4.94310465E-02  1.77530891E-03 -1.67074802E-08  6.84835631E-07 -1.05855463E-02
 -1.77170760E-04  7.19001948E-09 -3.63039295E-07 -1.26621885E-02  2.12987111E-03
 -5.57416056E-09 -4.90319690E-07 -8.46317644E-03 -9.72812751E-03 -9.72813262E-03
 -1.21520587E-08  4.88807174E-07 -3.10670531E-11 -4.82821722E-04  1.09860082E-04
  4.09003687E-04 -3.09100037E-09  1.28264119E-07 -1.82981541E-03  8.46381871E-04
 -9.91326467E-09  3.74136697E-07  9.21489270E-03 -3.94108533E-03  3.45987635E-08
 -1.03363900E-06 -2.34542872E-04  2.02734554E-04  2.02735064E-04  4.57967611E-09
 -1.88205825E-07  2.28040244E-13 -6.25134649E-05  9.99019245E-05  2.05611663E-04
  5.00505903E-10  7.62960605E-09  2.15569794E-03 -1.69326988E-03 -4.24029504E-09
  3.70109005E-08 -1.72249373E-02  3.45196584E-02  7.61044799E-08 -2.71710565E-06
 -4.60522150E-04 -6.22006546E-05 -6.22857331E-05 -1.87884151E-09  2.75694277E-08
  6.86282718E-11 -2.84615177E-01  1.02275659E+00  3.44999695E-03  1.55143288E-08
 -2.86655484E-07  7.58682294E-02  4.90055833E-04  1.56084906E-09 -5.30945697E-08
 -2.53803409E-02 -1.64507641E-03 -4.82149060E-09  1.59434634E-07  5.04268673E-02
  1.48515936E-02  7.77641116E-08 -1.90799954E-06 -1.53715395E-02 -1.55516974E-02
 -1.55517029E-02  1.41195093E-09 -2.37634927E-08  6.18275353E-11 -5.26358627E-05
 -6.75414704E-04  2.15195623E-04 -5.14317557E-05  1.82327486E-09 -9.97400040E-07
 -5.26710210E-05 -6.75294717E-04  2.16435901E-04 -5.12506659E-05  8.74166186E-07
  5.29448717E-07 -5.26724565E-05 -6.75287474E-04  2.16432288E-04 -5.12479410E-05
 -8.76918715E-07  5.25004044E-07  1.76306200E-05  7.65799772E-05  3.74938636E-05
 -8.45574287E-10  6.08115726E-08 -4.49921555E-04  2.33133475E-05  1.97882066E-09
 -1.54555173E-07 -2.47526166E-02  1.19058184E-02 -6.75154334E-08  2.81968621E-07
  8.91786418E-05  1.80206397E-05  1.80155177E-05  7.75110052E-11  1.23161157E-09
 -4.15991833E-11 -1.34847759E-05 -3.27286366E-05 -1.47432538E-05 -1.05836216E-10
  3.67530338E-08  1.85952087E-04  2.45018871E-04 -2.24863435E-09 -6.30772254E-08
  5.66125027E-04 -2.71410908E-03  2.52973011E-08  1.07683212E-07 -7.73062311E-05
 -2.74103743E-05 -2.74089983E-05  4.27380351E-10 -2.36122169E-08 -1.44392349E-12
  9.36238481E-05  1.10684654E-03 -2.53621625E-04 -3.14989927E-10 -8.84042850E-09
 -3.85082353E-04  1.13487162E-03 -1.26942972E-08  9.41802835E-07  1.99064556E-02
 -6.20441282E-02 -9.16593854E-08  2.42892449E-06 -1.02986407E-03  2.98388347E-04
  2.98161016E-04 -5.31353372E-09  9.43065281E-08 -1.12121711E-09  1.02018307E-03
 -3.86198133E-03  9.90454155E-01  3.74163738E-06 -6.32389954E-05 -8.68982107E-05
  3.11108249E-02  1.19134065E-07 -2.10244911E-06  3.42939163E-03 -1.34965795E-02
 -5.30354087E-08  1.04206575E-06 -6.31687857E-02 -1.27307013E-02 -1.03247437E-07
  2.44095122E-06  3.02603939E-04 -2.78863050E-04 -2.78875240E-04  1.97182755E-09
 -6.63663292E-08 -1.15795149E-10 -2.34455137E-04  1.48043197E-03 -5.51642153E-03
 -2.96140994E-04  8.74597773E-08 -3.77865415E-05 -2.34912807E-04  1.47975197E-03
 -5.51675436E-03 -2.95862898E-04  3.28188507E-05  1.90311115E-05 -2.34916702E-04
  1.47973147E-03 -5.51677696E-03 -2.95860481E-04 -3.29102454E-05  1.88806446E-05
 -4.18475977E-05 -2.02343125E-04 -9.35044558E-05  7.89553683E-10 -1.03303641E-07
  3.11880279E-03  1.66936367E-03 -1.67451349E-08  9.12282792E-07  6.07644849E-02
 -2.36507270E-02  1.04085763E-07  3.26808574E-07  3.72884190E-05 -7.16011084E-05
 -7.15973999E-05 -3.11254825E-09  1.15751384E-07  2.25364081E-11 -1.03285711E-05
 -1.70689165E-05  3.31369978E-05 -1.14971204E-10 -4.81736607E-08 -8.86128464E-04
  7.62717800E-04 -4.36258945E-09  4.11129934E-07 -9.80116160E-03  7.06389282E-03
 -6.60067832E-08  5.34874385E-07 -9.85940720E-05 -6.48303540E-06 -6.48787807E-06
  1.16675658E-09 -2.67066260E-08 -2.33528648E-11  6.19273076E-10  3.03034280E-09
  1.86711032E-09 -6.05436521E-05 -3.39809133E-08 -1.90539631E-08 -1.12775628E-08
  3.02321505E-04  1.67566125E-07 -2.64218059E-08 -2.86465940E-07  2.92944510E-04
  1.64178272E-07  1.30294585E-09  4.76175637E-07 -4.75886881E-07 -4.54366149E-05
 -2.49672053E-08 -8.60460199E-05  6.95835524E-10 -3.05335820E-09 -3.70838118E-06
  9.90848619E-01  5.55311752E-04 -5.49859226E-10 -1.08713033E-07  2.95815774E-02
  1.65786470E-05  1.29847421E-08  3.55207235E-08 -1.15943085E-02 -6.49735364E-06
 -2.56711861E-07 -8.49142853E-08  5.15777981E-03  2.88908616E-06 -2.64000319E-09
 -2.79054545E-08  2.82765295E-08  2.22036928E-04  1.24465205E-07  5.21743724E-06
 -1.39966444E-07  1.00761790E-06 -7.71619960E-06 -3.69185523E-07 -2.75698382E-05
  9.88098926E-08 -6.89793704E-05  4.89326462E-04 -3.79085980E-03 -1.81916490E-04
 -7.59649504E-05 -2.80396620E-05  6.91214219E-05 -4.90289098E-04  3.79855488E-03
  1.82285865E-04 -7.61901005E-05  2.78397796E-05 -5.98685103E-10 -2.35522077E-09
  3.66654248E-10  5.61772168E-05  3.13473458E-08 -5.01620633E-09 -2.04920344E-08
 -2.30491842E-04 -1.28416342E-07  2.73878634E-07 -1.51614876E-07  1.02887951E-03
  5.71797955E-07 -1.56869807E-09 -1.82602876E-08  1.65421278E-08 -6.09892920E-07
 -3.65937136E-10  3.15990402E-06 -4.33350346E-10 -1.97448199E-09 -2.44799353E-11
 -2.28154996E-05 -1.27793996E-08  2.34236320E-08 -1.05264244E-08  1.37973068E-04
  7.71366715E-08 -7.11129258E-09  4.24411065E-08 -3.73033321E-04 -2.08038256E-07
  6.21516367E-12 -1.47772850E-08  1.31637804E-08 -1.64495840E-05 -9.16452268E-09
  2.53047376E-06 -3.03335348E-08 -1.70815232E-07  6.51773443E-09  3.39028729E-08
 -6.05809820E-05  8.36381762E-07 -8.78095706E-08 -1.71164933E-07  3.02068778E-04
 -2.26344438E-06  1.26064226E-05 -1.63367028E-07  2.91490704E-04 -4.42863649E-08
 -7.46504715E-05  7.46393225E-05  2.59462910E-08 -4.54085442E-05 -5.51505109E-07
 -2.24258681E-08  1.06741452E-07  6.33181377E-05 -5.55311507E-04  9.90848626E-01
  3.56752913E-08  1.75842113E-06 -1.65787541E-05  2.95815358E-02 -7.00292987E-07
 -5.33196557E-07  6.49841767E-06 -1.15941879E-02  1.19093960E-05  3.60293623E-06
 -2.89218509E-06  5.15783088E-03  2.72363446E-08  4.57838811E-06 -4.54499586E-06
 -1.24417500E-07  2.22047239E-04  3.45584498E-08  7.95992046E-05 -5.66645295E-04
  4.38075270E-03  2.10379736E-04  1.66469562E-07 -9.23505406E-05 -3.99768349E-05
  2.83445890E-04 -2.19562119E-03 -1.05409688E-04 -2.80321620E-05 -4.38558234E-05
 -3.97353457E-05  2.81720152E-04 -2.18230358E-03 -1.04768982E-04  2.79661328E-05
 -4.36278581E-05  1.81950939E-08  8.00956527E-08 -5.20158628E-09 -3.16055023E-08