 Entering Gaussian System, Link 0=g16
 Initial command:
 /usr/local/g16_AVX//g16/l1.exe "/scratch/alanqf/0114-54556.ixchel.mda.cinvestav.mx/Gau-45996.inp" -scrdir="/scratch/alanqf/0114-54556.ixchel.mda.cinvestav.mx/"
 Entering Link 1 = /usr/local/g16_AVX//g16/l1.exe PID=     45997.
  
 Copyright (c) 1988-2017, Gaussian, Inc.  All Rights Reserved.
  
 This is part of the Gaussian(R) 16 program.  It is based on
 the Gaussian(R) 09 system (copyright 2009, Gaussian, Inc.),
 the Gaussian(R) 03 system (copyright 2003, Gaussian, Inc.),
 the Gaussian(R) 98 system (copyright 1998, Gaussian, Inc.),
 the Gaussian(R) 94 system (copyright 1995, Gaussian, Inc.),
 the Gaussian 92(TM) system (copyright 1992, Gaussian, Inc.),
 the Gaussian 90(TM) system (copyright 1990, Gaussian, Inc.),
 the Gaussian 88(TM) system (copyright 1988, Gaussian, Inc.),
 the Gaussian 86(TM) system (copyright 1986, Carnegie Mellon
 University), and the Gaussian 82(TM) system (copyright 1983,
 Carnegie Mellon University). Gaussian is a federally registered
 trademark of Gaussian, Inc.
  
 This software contains proprietary and confidential information,
 including trade secrets, belonging to Gaussian, Inc.
  
 This software is provided under written license and may be
 used, copied, transmitted, or stored only in accord with that
 written license.
  
 The following legend is applicable only to US Government
 contracts under FAR:
  
                    RESTRICTED RIGHTS LEGEND
  
 Use, reproduction and disclosure by the US Government is
 subject to restrictions as set forth in subparagraphs (a)
 and (c) of the Commercial Computer Software - Restricted
 Rights clause in FAR 52.227-19.
  
 Gaussian, Inc.
 340 Quinnipiac St., Bldg. 40, Wallingford CT 06492
  
  
 ---------------------------------------------------------------
 Warning -- This program may not be used in any manner that
 competes with the business of Gaussian, Inc. or will provide
 assistance to any competitor of Gaussian, Inc.  The licensee
 of this program is prohibited from giving any competitor of
 Gaussian, Inc. access to this program.  By using this program,
 the user acknowledges that Gaussian, Inc. is engaged in the
 business of creating and licensing software in the field of
 computational chemistry and represents and warrants to the
 licensee that it is not a competitor of Gaussian, Inc. and that
 it will not use this program in any manner prohibited above.
 ---------------------------------------------------------------
  

 Cite this work as:
 Gaussian 16, Revision B.01,
 M. J. Frisch, G. W. Trucks, H. B. Schlegel, G. E. Scuseria, 
 M. A. Robb, J. R. Cheeseman, G. Scalmani, V. Barone, 
 G. A. Petersson, H. Nakatsuji, X. Li, M. Caricato, A. V. Marenich, 
 J. Bloino, B. G. Janesko, R. Gomperts, B. Mennucci, H. P. Hratchian, 
 J. V. Ortiz, A. F. Izmaylov, J. L. Sonnenberg, D. Williams-Young, 
 F. Ding, F. Lipparini, F. Egidi, J. Goings, B. Peng, A. Petrone, 
 T. Henderson, D. Ranasinghe, V. G. Zakrzewski, J. Gao, N. Rega, 
 G. Zheng, W. Liang, M. Hada, M. Ehara, K. Toyota, R. Fukuda, 
 J. Hasegawa, M. Ishida, T. Nakajima, Y. Honda, O. Kitao, H. Nakai, 
 T. Vreven, K. Throssell, J. A. Montgomery, Jr., J. E. Peralta, 
 F. Ogliaro, M. J. Bearpark, J. J. Heyd, E. N. Brothers, K. N. Kudin, 
 V. N. Staroverov, T. A. Keith, R. Kobayashi, J. Normand, 
 K. Raghavachari, A. P. Rendell, J. C. Burant, S. S. Iyengar, 
 J. Tomasi, M. Cossi, J. M. Millam, M. Klene, C. Adamo, R. Cammi, 
 J. W. Ochterski, R. L. Martin, K. Morokuma, O. Farkas, 
 J. B. Foresman, and D. J. Fox, Gaussian, Inc., Wallingford CT, 2016.
 
 ******************************************
 Gaussian 16:  ES64L-G16RevB.01 20-Dec-2017
                13-Oct-2024 
 ******************************************
 %NProcShared=26
 Will use up to   26 processors via shared memory.
 %MEM=20GB
 %chk=CHKfiles/0114.chk
 ---------------------------------------------------------------------
 #p b3lyp 6-31++g(d,p) scf=verytight NoSymm freq=noraman int=ultrafine
 ---------------------------------------------------------------------
 1/10=4,30=1,38=1/1,3;
 2/12=2,15=1,17=6,18=5,40=1/2;
 3/5=1,6=6,7=1111,11=2,25=1,30=1,71=2,74=-5,75=-5,140=1/1,2,3;
 4//1;
 5/5=2,17=3,38=5,98=1/2;
 8/6=4,10=90,11=11/1;
 11/6=1,8=1,9=11,15=111,16=1,31=1/1,2,10;
 10/6=1,31=1/2;
 6/7=2,8=2,9=2,10=2,28=1/1;
 7/8=1,10=1,25=1,30=1/1,2,3,16;
 1/10=4,30=1/3;
 99//99;
 Leave Link    1 at Sun Oct 13 09:51:09 2024, MaxMem=  2684354560 cpu:               2.0 elap:               0.1
 (Enter /usr/local/g16_AVX//g16/l101.exe)
 ------------------------
 RxCoord=1.29969 DE=51.64
 ------------------------
 Symbolic Z-matrix:
 Charge = -1 Multiplicity = 1
 C                    -0.16687   0.00001  -0.00016 
 Cl                   -2.17209  0.         0.00004 
 H                     0.07123   0.00245  -1.05345 
 H                     0.07167   0.91101   0.52837 
 H                     0.07168  -0.91344   0.52414 
 C                     2.35554   0.       -0.00016 
 N                     3.53316  -0.00001   0.00024 
 
 ITRead=  0  0  0  0  0  0  0
 MicOpt= -1 -1 -1 -1 -1 -1 -1
 NAtoms=      7 NQM=        7 NQMF=       0 NMMI=      0 NMMIF=      0
                NMic=       0 NMicF=      0.
                    Isotopes and Nuclear Properties:
 (Nuclear quadrupole moments (NQMom) in fm**2, nuclear magnetic moments (NMagM)
  in nuclear magnetons)

  Atom         1           2           3           4           5           6           7
 IAtWgt=          12          35           1           1           1          12          14
 AtmWgt=  12.0000000  34.9688527   1.0078250   1.0078250   1.0078250  12.0000000  14.0030740
 NucSpn=           0           3           1           1           1           0           2
 AtZEff=  -0.0000000  -0.0000000  -0.0000000  -0.0000000  -0.0000000  -0.0000000  -0.0000000
 NQMom=    0.0000000  -8.1650000   0.0000000   0.0000000   0.0000000   0.0000000   2.0440000
 NMagM=    0.0000000   0.8218740   2.7928460   2.7928460   2.7928460   0.0000000   0.4037610
 AtZNuc=   6.0000000  17.0000000   1.0000000   1.0000000   1.0000000   6.0000000   7.0000000
 Leave Link  101 at Sun Oct 13 09:51:09 2024, MaxMem=  2684354560 cpu:               2.6 elap:               0.2
 (Enter /usr/local/g16_AVX//g16/l103.exe)

 GradGradGradGradGradGradGradGradGradGradGradGradGradGradGradGradGradGrad
 Berny optimization.
 Initialization pass.
 Trust Radius=3.00D-01 FncErr=1.00D-07 GrdErr=1.00D-07 EigMax=2.50D+02 EigMin=1.00D-04
 Number of steps in this run=      2 maximum allowed number of steps=      2.
 GradGradGradGradGradGradGradGradGradGradGradGradGradGradGradGradGradGrad

 Leave Link  103 at Sun Oct 13 09:51:09 2024, MaxMem=  2684354560 cpu:               1.4 elap:               0.1
 (Enter /usr/local/g16_AVX//g16/l202.exe)
                          Input orientation:                          
 ---------------------------------------------------------------------
 Center     Atomic      Atomic             Coordinates (Angstroms)
 Number     Number       Type             X           Y           Z
 ---------------------------------------------------------------------
      1          6           0       -0.166872    0.000007   -0.000162
      2         17           0       -2.172088   -0.000001    0.000044
      3          1           0        0.071232    0.002449   -1.053448
      4          1           0        0.071666    0.911010    0.528371
      5          1           0        0.071676   -0.913435    0.524142
      6          6           0        2.355541    0.000003   -0.000163
      7          7           0        3.533163   -0.000007    0.000235
 ---------------------------------------------------------------------
                    Distance matrix (angstroms):
                    1          2          3          4          5
     1  C    0.000000
     2  Cl   2.005216   0.000000
     3  H    1.079866   2.478374   0.000000
     4  H    1.079895   2.478609   1.824181   0.000000
     5  H    1.079896   2.478612   1.824180   1.824450   0.000000
     6  C    2.522413   4.527629   2.515449   2.515028   2.515016
     7  N    3.700035   5.705251   3.618732   3.618127   3.618110
                    6          7
     6  C    0.000000
     7  N    1.177622   0.000000
 Symmetry turned off by external request.
 Stoichiometry    C2H3ClN(1-)
 Framework group  C1[X(C2H3ClN)]
 Deg. of freedom    15
 Full point group                 C1      NOp   1
 Rotational constants (GHZ):         150.6792648           1.2374766           1.2374746
 Leave Link  202 at Sun Oct 13 09:51:10 2024, MaxMem=  2684354560 cpu:               1.7 elap:               0.1
 (Enter /usr/local/g16_AVX//g16/l301.exe)
 Standard basis: 6-31++G(d,p) (6D, 7F)
 Ernie: Thresh=  0.10000D-02 Tol=  0.10000D-05 Strict=F.
    98 basis functions,   176 primitive gaussians,    98 cartesian basis functions
    20 alpha electrons       20 beta electrons
       nuclear repulsion energy       109.7471478038 Hartrees.
 IExCor=  402 DFT=T Ex+Corr=B3LYP ExCW=0 ScaHFX=  0.200000
 ScaDFX=  0.800000  0.720000  1.000000  0.810000 ScalE2=  1.000000  1.000000
 IRadAn=      5 IRanWt=     -1 IRanGd=            0 ICorTp=0 IEmpDi=  4
 NAtoms=    7 NActive=    7 NUniq=    7 SFac= 1.00D+00 NAtFMM=   60 NAOKFM=F Big=F
 Integral buffers will be    131072 words long.
 Raffenetti 2 integral format.
 Two-electron integral symmetry is turned off.
 Leave Link  301 at Sun Oct 13 09:51:10 2024, MaxMem=  2684354560 cpu:               1.3 elap:               0.1
 (Enter /usr/local/g16_AVX//g16/l302.exe)
 NPDir=0 NMtPBC=     1 NCelOv=     1 NCel=       1 NClECP=     1 NCelD=      1
         NCelK=      1 NCelE2=     1 NClLst=     1 CellRange=     0.0.
 One-electron integrals computed using PRISM.
 NBasis=    98 RedAO= T EigKep=  1.28D-04  NBF=    98
 NBsUse=    98 1.00D-06 EigRej= -1.00D+00 NBFU=    98
 Precomputing XC quadrature grid using
 IXCGrd= 4 IRadAn=           5 IRanWt=          -1 IRanGd=           0 AccXCQ= 0.00D+00.
 Generated NRdTot=       0 NPtTot=           0 NUsed=           0 NTot=          32
 NSgBfM=    98    98    98    98    98 MxSgAt=     7 MxSgA2=     7.
 Leave Link  302 at Sun Oct 13 09:51:10 2024, MaxMem=  2684354560 cpu:               6.9 elap:               0.3
 (Enter /usr/local/g16_AVX//g16/l303.exe)
 DipDrv:  MaxL=1.
 Leave Link  303 at Sun Oct 13 09:51:10 2024, MaxMem=  2684354560 cpu:               2.6 elap:               0.1
 (Enter /usr/local/g16_AVX//g16/l401.exe)
 ExpMin= 3.60D-02 ExpMax= 2.52D+04 ExpMxC= 3.78D+03 IAcc=3 IRadAn=         5 AccDes= 0.00D+00
 Harris functional with IExCor=  402 and IRadAn=       5 diagonalized for initial guess.
 HarFok:  IExCor=  402 AccDes= 0.00D+00 IRadAn=         5 IDoV= 1 UseB2=F ITyADJ=14
 ICtDFT=  3500011 ScaDFX=  1.000000  1.000000  1.000000  1.000000
 FoFCou: FMM=F IPFlag=           0 FMFlag=      100000 FMFlg1=           0
         NFxFlg=           0 DoJE=T BraDBF=F KetDBF=T FulRan=T
         wScrn=  0.000000 ICntrl=       500 IOpCl=  0 I1Cent=   200000004 NGrid=           0
         NMat0=    1 NMatS0=      1 NMatT0=    0 NMatD0=    1 NMtDS0=    0 NMtDT0=    0
 Symmetry not used in FoFCou.
 Harris En= -593.062416903368    
 JPrj=0 DoOrth=F DoCkMO=F.
 Leave Link  401 at Sun Oct 13 09:51:10 2024, MaxMem=  2684354560 cpu:               5.6 elap:               0.3
 (Enter /usr/local/g16_AVX//g16/l502.exe)
 Keep R1 ints in memory in canonical form, NReq=35752935.
 FoFCou: FMM=F IPFlag=           0 FMFlag=           0 FMFlg1=           0
         NFxFlg=           0 DoJE=F BraDBF=F KetDBF=F FulRan=T
         wScrn=  0.000000 ICntrl=       600 IOpCl=  0 I1Cent=           0 NGrid=           0
         NMat0=    1 NMatS0=   4851 NMatT0=    0 NMatD0=    1 NMtDS0=    0 NMtDT0=    0
 Symmetry not used in FoFCou.
 Two-electron integral symmetry not used.
 Closed shell SCF:
 Using DIIS extrapolation, IDIIS=  1040.
 NGot=  2684354560 LenX=  2672563405 LenY=  2672553360
 Requested convergence on RMS density matrix=1.00D-08 within 128 cycles.
 Requested convergence on MAX density matrix=1.00D-06.
 Requested convergence on             energy=1.00D-06.
 No special actions if energy rises.

 Cycle   1  Pass 1  IDiag  1:
 E= -592.837180564707    
 DIIS: error= 3.43D-02 at cycle   1 NSaved=   1.
 NSaved= 1 IEnMin= 1 EnMin= -592.837180564707     IErMin= 1 ErrMin= 3.43D-02
 ErrMax= 3.43D-02  0.00D+00 EMaxC= 1.00D-01 BMatC= 1.29D-01 BMatP= 1.29D-01
 IDIUse=3 WtCom= 6.57D-01 WtEn= 3.43D-01
 Coeff-Com:  0.100D+01
 Coeff-En:   0.100D+01
 Coeff:      0.100D+01
 Gap=     0.386 Goal=   None    Shift=    0.000
 GapD=    0.386 DampG=1.000 DampE=0.500 DampFc=0.5000 IDamp=-1.
 Damping current iteration by 5.00D-01
 RMSDP=6.53D-02 MaxDP=2.17D+00              OVMax= 3.78D-01

 Cycle   2  Pass 1  IDiag  1:
 E= -592.873224120725     Delta-E=       -0.036043556018 Rises=F Damp=T
 DIIS: error= 1.10D-02 at cycle   2 NSaved=   2.
 NSaved= 2 IEnMin= 2 EnMin= -592.873224120725     IErMin= 2 ErrMin= 1.10D-02
 ErrMax= 1.10D-02  0.00D+00 EMaxC= 1.00D-01 BMatC= 1.69D-02 BMatP= 1.29D-01
 IDIUse=3 WtCom= 8.90D-01 WtEn= 1.10D-01
 Coeff-Com:  0.200D+00 0.800D+00
 Coeff-En:   0.371D+00 0.629D+00
 Coeff:      0.219D+00 0.781D+00
 Gap=     0.207 Goal=   None    Shift=    0.000
 RMSDP=3.14D-02 MaxDP=1.09D+00 DE=-3.60D-02 OVMax= 2.80D-01

 Cycle   3  Pass 1  IDiag  1:
 E= -592.977951871589     Delta-E=       -0.104727750864 Rises=F Damp=F
 DIIS: error= 1.54D-02 at cycle   3 NSaved=   3.
 NSaved= 3 IEnMin= 3 EnMin= -592.977951871589     IErMin= 2 ErrMin= 1.10D-02
 ErrMax= 1.54D-02  0.00D+00 EMaxC= 1.00D-01 BMatC= 1.26D-02 BMatP= 1.69D-02
 IDIUse=3 WtCom= 8.46D-01 WtEn= 1.54D-01
 Coeff-Com:  0.641D-01 0.464D+00 0.472D+00
 Coeff-En:   0.000D+00 0.000D+00 0.100D+01
 Coeff:      0.542D-01 0.393D+00 0.553D+00
 Gap=     0.205 Goal=   None    Shift=    0.000
 RMSDP=1.90D-03 MaxDP=3.60D-02 DE=-1.05D-01 OVMax= 6.34D-02

 Cycle   4  Pass 1  IDiag  1:
 E= -592.982501996631     Delta-E=       -0.004550125042 Rises=F Damp=F
 DIIS: error= 1.33D-02 at cycle   4 NSaved=   4.
 NSaved= 4 IEnMin= 4 EnMin= -592.982501996631     IErMin= 2 ErrMin= 1.10D-02
 ErrMax= 1.33D-02  0.00D+00 EMaxC= 1.00D-01 BMatC= 8.05D-03 BMatP= 1.26D-02
 IDIUse=3 WtCom= 8.67D-01 WtEn= 1.33D-01
 Coeff-Com: -0.995D-02 0.978D-01 0.436D+00 0.476D+00
 Coeff-En:   0.000D+00 0.000D+00 0.409D+00 0.591D+00
 Coeff:     -0.862D-02 0.848D-01 0.432D+00 0.491D+00
 Gap=     0.192 Goal=   None    Shift=    0.000
 RMSDP=1.16D-03 MaxDP=1.78D-02 DE=-4.55D-03 OVMax= 3.26D-02

 Cycle   5  Pass 1  IDiag  1:
 E= -592.989484794334     Delta-E=       -0.006982797703 Rises=F Damp=F
 DIIS: error= 2.63D-03 at cycle   5 NSaved=   5.
 NSaved= 5 IEnMin= 5 EnMin= -592.989484794334     IErMin= 5 ErrMin= 2.63D-03
 ErrMax= 2.63D-03  0.00D+00 EMaxC= 1.00D-01 BMatC= 4.60D-04 BMatP= 8.05D-03
 IDIUse=3 WtCom= 9.74D-01 WtEn= 2.63D-02
 Coeff-Com: -0.952D-02 0.252D-01 0.208D+00 0.292D+00 0.485D+00
 Coeff-En:   0.000D+00 0.000D+00 0.000D+00 0.206D-01 0.979D+00
 Coeff:     -0.927D-02 0.246D-01 0.202D+00 0.285D+00 0.498D+00
 Gap=     0.196 Goal=   None    Shift=    0.000
 RMSDP=4.75D-04 MaxDP=6.77D-03 DE=-6.98D-03 OVMax= 1.14D-02

 Cycle   6  Pass 1  IDiag  1:
 E= -592.989990417019     Delta-E=       -0.000505622685 Rises=F Damp=F
 DIIS: error= 3.84D-04 at cycle   6 NSaved=   6.
 NSaved= 6 IEnMin= 6 EnMin= -592.989990417019     IErMin= 6 ErrMin= 3.84D-04
 ErrMax= 3.84D-04  0.00D+00 EMaxC= 1.00D-01 BMatC= 1.49D-05 BMatP= 4.60D-04
 IDIUse=3 WtCom= 9.96D-01 WtEn= 3.84D-03
 Coeff-Com: -0.310D-02 0.742D-03 0.585D-01 0.895D-01 0.228D+00 0.627D+00
 Coeff-En:   0.000D+00 0.000D+00 0.000D+00 0.000D+00 0.000D+00 0.100D+01
 Coeff:     -0.309D-02 0.740D-03 0.583D-01 0.891D-01 0.227D+00 0.628D+00
 Gap=     0.196 Goal=   None    Shift=    0.000
 RMSDP=7.64D-05 MaxDP=1.64D-03 DE=-5.06D-04 OVMax= 1.41D-03

 Cycle   7  Pass 1  IDiag  1:
 E= -592.990005505642     Delta-E=       -0.000015088622 Rises=F Damp=F
 DIIS: error= 6.20D-05 at cycle   7 NSaved=   7.
 NSaved= 7 IEnMin= 7 EnMin= -592.990005505642     IErMin= 7 ErrMin= 6.20D-05
 ErrMax= 6.20D-05  0.00D+00 EMaxC= 1.00D-01 BMatC= 5.55D-07 BMatP= 1.49D-05
 IDIUse=1 WtCom= 1.00D+00 WtEn= 0.00D+00
 Coeff-Com: -0.185D-03-0.100D-02 0.545D-02 0.861D-02 0.416D-01 0.225D+00
 Coeff-Com:  0.720D+00
 Coeff:     -0.185D-03-0.100D-02 0.545D-02 0.861D-02 0.416D-01 0.225D+00
 Coeff:      0.720D+00
 Gap=     0.196 Goal=   None    Shift=    0.000
 RMSDP=2.37D-05 MaxDP=4.31D-04 DE=-1.51D-05 OVMax= 4.72D-04

 Cycle   8  Pass 1  IDiag  1:
 E= -592.990006137122     Delta-E=       -0.000000631481 Rises=F Damp=F
 DIIS: error= 2.24D-05 at cycle   8 NSaved=   8.
 NSaved= 8 IEnMin= 8 EnMin= -592.990006137122     IErMin= 8 ErrMin= 2.24D-05
 ErrMax= 2.24D-05  0.00D+00 EMaxC= 1.00D-01 BMatC= 6.76D-08 BMatP= 5.55D-07
 IDIUse=1 WtCom= 1.00D+00 WtEn= 0.00D+00
 Coeff-Com:  0.235D-03-0.778D-03-0.206D-02-0.271D-02 0.259D-02 0.542D-01
 Coeff-Com:  0.319D+00 0.630D+00
 Coeff:      0.235D-03-0.778D-03-0.206D-02-0.271D-02 0.259D-02 0.542D-01
 Coeff:      0.319D+00 0.630D+00
 Gap=     0.196 Goal=   None    Shift=    0.000
 RMSDP=4.25D-06 MaxDP=1.15D-04 DE=-6.31D-07 OVMax= 9.00D-05

 Cycle   9  Pass 1  IDiag  1:
 E= -592.990006213704     Delta-E=       -0.000000076582 Rises=F Damp=F
 DIIS: error= 3.42D-06 at cycle   9 NSaved=   9.
 NSaved= 9 IEnMin= 9 EnMin= -592.990006213704     IErMin= 9 ErrMin= 3.42D-06
 ErrMax= 3.42D-06  0.00D+00 EMaxC= 1.00D-01 BMatC= 1.13D-09 BMatP= 6.76D-08
 IDIUse=1 WtCom= 1.00D+00 WtEn= 0.00D+00
 Coeff-Com:  0.756D-04-0.137D-03-0.654D-03-0.823D-03-0.102D-02 0.139D-02
 Coeff-Com:  0.373D-01 0.160D+00 0.804D+00
 Coeff:      0.756D-04-0.137D-03-0.654D-03-0.823D-03-0.102D-02 0.139D-02
 Coeff:      0.373D-01 0.160D+00 0.804D+00
 Gap=     0.196 Goal=   None    Shift=    0.000
 RMSDP=1.38D-06 MaxDP=3.16D-05 DE=-7.66D-08 OVMax= 9.70D-06

 Cycle  10  Pass 1  IDiag  1:
 E= -592.990006215011     Delta-E=       -0.000000001307 Rises=F Damp=F
 DIIS: error= 4.31D-07 at cycle  10 NSaved=  10.
 NSaved=10 IEnMin=10 EnMin= -592.990006215011     IErMin=10 ErrMin= 4.31D-07
 ErrMax= 4.31D-07  0.00D+00 EMaxC= 1.00D-01 BMatC= 1.42D-11 BMatP= 1.13D-09
 IDIUse=1 WtCom= 1.00D+00 WtEn= 0.00D+00
 Coeff-Com:  0.455D-05 0.703D-06-0.395D-04-0.468D-04-0.161D-03-0.851D-03
 Coeff-Com: -0.402D-02 0.990D-02 0.100D+00 0.895D+00
 Coeff:      0.455D-05 0.703D-06-0.395D-04-0.468D-04-0.161D-03-0.851D-03
 Coeff:     -0.402D-02 0.990D-02 0.100D+00 0.895D+00
 Gap=     0.196 Goal=   None    Shift=    0.000
 RMSDP=1.25D-07 MaxDP=3.02D-06 DE=-1.31D-09 OVMax= 2.22D-06

 Cycle  11  Pass 1  IDiag  1:
 E= -592.990006215027     Delta-E=       -0.000000000016 Rises=F Damp=F
 DIIS: error= 7.31D-08 at cycle  11 NSaved=  11.
 NSaved=11 IEnMin=11 EnMin= -592.990006215027     IErMin=11 ErrMin= 7.31D-08
 ErrMax= 7.31D-08  0.00D+00 EMaxC= 1.00D-01 BMatC= 3.59D-13 BMatP= 1.42D-11
 IDIUse=1 WtCom= 1.00D+00 WtEn= 0.00D+00
 Coeff-Com: -0.799D-06 0.194D-05-0.358D-06 0.695D-06-0.180D-04-0.758D-04
 Coeff-Com: -0.741D-03-0.521D-03 0.313D-02 0.112D+00 0.886D+00
 Coeff:     -0.799D-06 0.194D-05-0.358D-06 0.695D-06-0.180D-04-0.758D-04
 Coeff:     -0.741D-03-0.521D-03 0.313D-02 0.112D+00 0.886D+00
 Gap=     0.196 Goal=   None    Shift=    0.000
 RMSDP=1.06D-08 MaxDP=1.53D-07 DE=-1.61D-11 OVMax= 1.74D-07

 Cycle  12  Pass 1  IDiag  1:
 E= -592.990006215031     Delta-E=       -0.000000000003 Rises=F Damp=F
 DIIS: error= 8.52D-09 at cycle  12 NSaved=  12.
 NSaved=12 IEnMin=12 EnMin= -592.990006215031     IErMin=12 ErrMin= 8.52D-09
 ErrMax= 8.52D-09  0.00D+00 EMaxC= 1.00D-01 BMatC= 7.76D-15 BMatP= 3.59D-13
 IDIUse=1 WtCom= 1.00D+00 WtEn= 0.00D+00
 Coeff-Com: -0.275D-06 0.365D-06-0.550D-08 0.737D-07-0.137D-05 0.640D-06
 Coeff-Com: -0.139D-04-0.319D-03-0.135D-02 0.223D-02 0.158D+00 0.842D+00
 Coeff:     -0.275D-06 0.365D-06-0.550D-08 0.737D-07-0.137D-05 0.640D-06
 Coeff:     -0.139D-04-0.319D-03-0.135D-02 0.223D-02 0.158D+00 0.842D+00
 Gap=     0.196 Goal=   None    Shift=    0.000
 RMSDP=3.87D-09 MaxDP=6.73D-08 DE=-3.18D-12 OVMax= 5.23D-08

 SCF Done:  E(RB3LYP) =  -592.990006215     A.U. after   12 cycles
            NFock= 12  Conv=0.39D-08     -V/T= 2.0046
 KE= 5.902697303891D+02 PE=-1.629468935201D+03 EE= 3.364620507933D+02
 Leave Link  502 at Sun Oct 13 09:51:12 2024, MaxMem=  2684354560 cpu:              39.2 elap:               1.8
 (Enter /usr/local/g16_AVX//g16/l801.exe)
 DoSCS=F DFT=T ScalE2(SS,OS)=  1.000000  1.000000
 Range of M.O.s used for correlation:     1    98
 NBasis=    98 NAE=    20 NBE=    20 NFC=     0 NFV=     0
 NROrb=     98 NOA=    20 NOB=    20 NVA=    78 NVB=    78

 **** Warning!!: The largest alpha MO coefficient is  0.27848938D+02

 Leave Link  801 at Sun Oct 13 09:51:12 2024, MaxMem=  2684354560 cpu:               1.2 elap:               0.1
 (Enter /usr/local/g16_AVX//g16/l1101.exe)
 Using compressed storage, NAtomX=     7.
 Will process      8 centers per pass.
 Leave Link 1101 at Sun Oct 13 09:51:13 2024, MaxMem=  2684354560 cpu:               6.8 elap:               0.4
 (Enter /usr/local/g16_AVX//g16/l1102.exe)
 Symmetrizing basis deriv contribution to polar:
 IMax=3 JMax=2 DiffMx= 0.00D+00
 Leave Link 1102 at Sun Oct 13 09:51:13 2024, MaxMem=  2684354560 cpu:               0.5 elap:               0.1
 (Enter /usr/local/g16_AVX//g16/l1110.exe)
 Forming Gx(P) for the SCF density, NAtomX=     7.
 Integral derivatives from FoFJK, PRISM(SPDF).
 Do as many integral derivatives as possible in FoFJK.
 G2DrvN: MDV=    2684353864.
 G2DrvN: will do     8 centers at a time, making    1 passes.
 Calling FoFCou, ICntrl=  3107 FMM=F I1Cent=   0 AccDes= 0.00D+00.
 FoFJK:  IHMeth= 1 ICntrl=    3107 DoSepK=F KAlg= 0 I1Cent=           0 FoldK=F
 IRaf=         0 NMat=       1 IRICut=       1 DoRegI=T DoRafI=F ISym2E= 0 IDoP0=0 IntGTp=1.
 FoFCou: FMM=F IPFlag=           0 FMFlag=      100000 FMFlg1=           0
         NFxFlg=           0 DoJE=F BraDBF=F KetDBF=F FulRan=T
         wScrn=  0.000000 ICntrl=      3107 IOpCl=  0 I1Cent=           0 NGrid=           0
         NMat0=    1 NMatS0=      1 NMatT0=    0 NMatD0=    1 NMtDS0=    0 NMtDT0=    0
 Symmetry not used in FoFCou.
 End of G2Drv F.D. properties file   721 does not exist.
 End of G2Drv F.D. properties file   722 does not exist.
 End of G2Drv F.D. properties file   788 does not exist.
 Leave Link 1110 at Sun Oct 13 09:51:15 2024, MaxMem=  2684354560 cpu:              39.5 elap:               1.6
 (Enter /usr/local/g16_AVX//g16/l1002.exe)
 Minotr:  Closed shell wavefunction.
          IDoAtm=1111111
          Direct CPHF calculation.
          Differentiating once with respect to electric field.
                with respect to dipole field.
          Differentiating once with respect to nuclear coordinates.
          Requested convergence is 1.0D-08 RMS, and 1.0D-07 maximum.
          Secondary convergence is 1.0D-12 RMS, and 1.0D-12 maximum.
          NewPWx=T KeepS1=F KeepF1=F KeepIn=T MapXYZ=F SortEE=F KeepMc=T.
         2136 words used for storage of precomputed grid.
 Keep R1 ints in memory in canonical form, NReq=35668397.
 FoFCou: FMM=F IPFlag=           0 FMFlag=           0 FMFlg1=           0
         NFxFlg=           0 DoJE=F BraDBF=F KetDBF=F FulRan=T
         wScrn=  0.000000 ICntrl=       600 IOpCl=  0 I1Cent=           0 NGrid=           0
         NMat0=    1 NMatS0=   4851 NMatT0=    0 NMatD0=    1 NMtDS0=    0 NMtDT0=    0
 Symmetry not used in FoFCou.
 Two-electron integral symmetry not used.
          MDV=    2684354560 using IRadAn=       1.
          Solving linear equations simultaneously, MaxMat=       0.
          There are    24 degrees of freedom in the 1st order CPHF.  IDoFFX=6 NUNeed=     3.
     21 vectors produced by pass  0 Test12= 6.50D-15 4.17D-09 XBig12= 1.20D+02 6.80D+00.
 AX will form    21 AO Fock derivatives at one time.
     21 vectors produced by pass  1 Test12= 6.50D-15 4.17D-09 XBig12= 4.27D+01 1.67D+00.
     21 vectors produced by pass  2 Test12= 6.50D-15 4.17D-09 XBig12= 6.82D-01 2.21D-01.
     21 vectors produced by pass  3 Test12= 6.50D-15 4.17D-09 XBig12= 7.05D-03 1.77D-02.
     21 vectors produced by pass  4 Test12= 6.50D-15 4.17D-09 XBig12= 2.81D-05 1.25D-03.
     17 vectors produced by pass  5 Test12= 6.50D-15 4.17D-09 XBig12= 5.92D-08 5.78D-05.
      6 vectors produced by pass  6 Test12= 6.50D-15 4.17D-09 XBig12= 5.26D-11 1.88D-06.
      1 vectors produced by pass  7 Test12= 6.50D-15 4.17D-09 XBig12= 4.07D-14 4.28D-08.
 InvSVY:  IOpt=1 It=  1 EMax= 7.11D-15
 Solved reduced A of dimension   129 with    24 vectors.
 FullF1:  Do perturbations      1 to       3.
 Isotropic polarizability for W=    0.000000       62.86 Bohr**3.
 End of Minotr F.D. properties file   721 does not exist.
 End of Minotr F.D. properties file   722 does not exist.
 End of Minotr F.D. properties file   788 does not exist.
 Leave Link 1002 at Sun Oct 13 09:51:17 2024, MaxMem=  2684354560 cpu:              48.7 elap:               2.0
 (Enter /usr/local/g16_AVX//g16/l601.exe)
 Copying SCF densities to generalized density rwf, IOpCl= 0 IROHF=0.

 **********************************************************************

            Population analysis using the SCF Density.

 **********************************************************************

 Alpha  occ. eigenvalues -- -101.37898 -14.11058 -10.10432  -9.97677  -9.29427
 Alpha  occ. eigenvalues --   -7.05643  -7.04949  -7.04949  -0.66719  -0.66444
 Alpha  occ. eigenvalues --   -0.53933  -0.30188  -0.30184  -0.24074  -0.19170
 Alpha  occ. eigenvalues --   -0.15587  -0.15587  -0.11303  -0.11303  -0.08323
 Alpha virt. eigenvalues --    0.11261   0.12731   0.14837   0.14838   0.16372
 Alpha virt. eigenvalues --    0.19357   0.20609   0.20609   0.22179   0.22181
 Alpha virt. eigenvalues --    0.24810   0.24998   0.24998   0.26554   0.26560
 Alpha virt. eigenvalues --    0.26561   0.31246   0.34245   0.34248   0.37261
 Alpha virt. eigenvalues --    0.38072   0.38072   0.38120   0.46390   0.47535
 Alpha virt. eigenvalues --    0.70991   0.75639   0.75835   0.75835   0.79089
 Alpha virt. eigenvalues --    0.79091   0.88456   0.88469   0.88470   0.98956
 Alpha virt. eigenvalues --    1.02475   1.02477   1.03134   1.07079   1.07081
 Alpha virt. eigenvalues --    1.09577   1.09582   1.12405   1.18153   1.18153
 Alpha virt. eigenvalues --    1.25271   1.33178   1.35843   1.50258   1.59894
 Alpha virt. eigenvalues --    1.59901   1.76502   1.76502   1.78817   1.78817
 Alpha virt. eigenvalues --    1.82439   2.14273   2.18207   2.18224   2.18786
 Alpha virt. eigenvalues --    2.18787   2.19969   2.55968   2.55983   2.61352
 Alpha virt. eigenvalues --    2.81990   2.81991   2.83667   2.95264   2.95287
 Alpha virt. eigenvalues --    3.25937   3.42495   3.56579   3.56598   4.20810
 Alpha virt. eigenvalues --    4.45940   4.47363   4.55962
          Condensed to atoms (all electrons):
               1          2          3          4          5          6
     1  C    5.470558  -0.174097   0.428147   0.428165   0.428166  -0.199968
     2  Cl  -0.174097  17.577982  -0.050297  -0.050265  -0.050263   0.108645
     3  H    0.428147  -0.050297   0.500648  -0.021777  -0.021777  -0.044558
     4  H    0.428165  -0.050265  -0.021777   0.500589  -0.021736  -0.044607
     5  H    0.428166  -0.050263  -0.021777  -0.021736   0.500589  -0.044609
     6  C   -0.199968   0.108645  -0.044558  -0.044607  -0.044609   5.888589
     7  N   -0.014065  -0.003589  -0.001118  -0.001117  -0.001117   0.699005
               7
     1  C   -0.014065
     2  Cl  -0.003589
     3  H   -0.001118
     4  H   -0.001117
     5  H   -0.001117
     6  C    0.699005
     7  N    6.866707
 Mulliken charges:
               1
     1  C   -0.366908
     2  Cl  -0.358117
     3  H    0.210731
     4  H    0.210747
     5  H    0.210748
     6  C   -0.362497
     7  N   -0.544705
 Sum of Mulliken charges =  -1.00000
 Mulliken charges with hydrogens summed into heavy atoms:
               1
     1  C    0.265319
     2  Cl  -0.358117
     6  C   -0.362497
     7  N   -0.544705
 APT charges:
               1
     1  C    0.977948
     2  Cl  -0.901634
     3  H   -0.001320
     4  H   -0.001259
     5  H   -0.001258
     6  C   -0.428133
     7  N   -0.644344
 Sum of APT charges =  -1.00000
 APT charges with hydrogens summed into heavy atoms:
               1
     1  C    0.974110
     2  Cl  -0.901634
     6  C   -0.428133
     7  N   -0.644344
 Electronic spatial extent (au):  <R**2>=            847.8938
 Charge=             -1.0000 electrons
 Dipole moment (field-independent basis, Debye):
    X=             -7.3709    Y=              0.0000    Z=             -0.0005  Tot=              7.3709
 Quadrupole moment (field-independent basis, Debye-Ang):
   XX=            -88.0264   YY=            -35.3460   ZZ=            -35.3472
   XY=              0.0000   XZ=             -0.0010   YZ=              0.0000
 Traceless Quadrupole moment (field-independent basis, Debye-Ang):
   XX=            -35.1199   YY=             17.5605   ZZ=             17.5593
   XY=              0.0000   XZ=             -0.0010   YZ=              0.0000
 Octapole moment (field-independent basis, Debye-Ang**2):
  XXX=           -153.0755  YYY=             -0.0068  ZZZ=             -0.9740  XYY=             -9.2614
  XXY=              0.0002  XXZ=             -0.0083  XZZ=             -9.2621  YZZ=              0.0068
  YYZ=              0.9755  XYZ=             -0.0000
 Hexadecapole moment (field-independent basis, Debye-Ang**3):
 XXXX=          -1784.3442 YYYY=            -55.6538 ZZZZ=            -55.6529 XXXY=              0.0015
 XXXZ=             -0.0445 YYYX=             -0.0007 YYYZ=              0.0000 ZZZX=             -0.1480
 ZZZY=             -0.0000 XXYY=           -217.6562 XXZZ=           -217.6564 YYZZ=            -18.5520
 XXYZ=             -0.0000 YYXZ=              0.1414 ZZXY=              0.0011
 N-N= 1.097471478038D+02 E-N=-1.629468934183D+03  KE= 5.902697303891D+02
  Exact polarizability: 110.403  -0.000  39.093   0.003  -0.000  39.093
 Approx polarizability: 138.861  -0.000  49.065   0.006   0.000  49.063
 No NMR shielding tensors so no spin-rotation constants.
 Leave Link  601 at Sun Oct 13 09:51:17 2024, MaxMem=  2684354560 cpu:               3.7 elap:               0.2
 (Enter /usr/local/g16_AVX//g16/l701.exe)
 ... and contract with generalized density number  0.
 Compute integral second derivatives.
 Leave Link  701 at Sun Oct 13 09:51:17 2024, MaxMem=  2684354560 cpu:               5.4 elap:               0.2
 (Enter /usr/local/g16_AVX//g16/l702.exe)
 L702 exits ... SP integral derivatives will be done elsewhere.
 Leave Link  702 at Sun Oct 13 09:51:17 2024, MaxMem=  2684354560 cpu:               0.5 elap:               0.0
 (Enter /usr/local/g16_AVX//g16/l703.exe)
 Integral derivatives from FoFJK, PRISM(SPDF).
 Compute integral second derivatives, UseDBF=F ICtDFT=           0.
 Calling FoFJK, ICntrl=    100127 FMM=F ISym2X=0 I1Cent= 0 IOpClX= 0 NMat=1 NMatS=1 NMatT=0.
 FoFJK:  IHMeth= 1 ICntrl=  100127 DoSepK=F KAlg= 0 I1Cent=           0 FoldK=F
 IRaf=         0 NMat=       1 IRICut=       1 DoRegI=T DoRafI=F ISym2E= 0 IDoP0=0 IntGTp=1.
 FoFCou: FMM=F IPFlag=           0 FMFlag=      100000 FMFlg1=         800
         NFxFlg=           0 DoJE=F BraDBF=F KetDBF=F FulRan=T
         wScrn=  0.000000 ICntrl=    100127 IOpCl=  0 I1Cent=           0 NGrid=           0
         NMat0=    1 NMatS0=      1 NMatT0=    0 NMatD0=    1 NMtDS0=    0 NMtDT0=    0
 Symmetry not used in FoFCou.
 Leave Link  703 at Sun Oct 13 09:51:19 2024, MaxMem=  2684354560 cpu:              60.1 elap:               2.4
 (Enter /usr/local/g16_AVX//g16/l716.exe)
 Dipole        =-2.89994895D+00 7.07577828D-06-2.13846967D-04
 Polarizability= 1.10402728D+02-7.34072660D-05 3.90928103D+01
                 3.23205442D-03-1.03671076D-06 3.90925909D+01
 Full mass-weighted force constant matrix:
 Low frequencies ---  -75.0682  -75.0629  -68.3891  -25.4071  -25.3980   -0.0059
 Low frequencies ---   -0.0049   -0.0044  115.7703
 ******    3 imaginary frequencies (negative Signs) ****** 
 Diagonal vibrational polarizability:
     3696.6707848      10.7297486      10.7317481
 Harmonic frequencies (cm**-1), IR intensities (KM/Mole), Raman scattering
 activities (A**4/AMU), depolarization ratios for plane and unpolarized
 incident light, reduced masses (AMU), force constants (mDyne/A),
 and normal coordinates:
                      1                      2                      3
                      A                      A                      A
 Frequencies --    -73.8542               -73.8501               -68.3891
 Red. masses --      9.5717                 9.5707                10.0365
 Frc consts  --      0.0308                 0.0308                 0.0277
 IR Inten    --      0.5901                 0.6032               633.1463
  Atom  AN      X      Y      Z        X      Y      Z        X      Y      Z
     1   6    -0.00   0.24  -0.01     0.00   0.01   0.24     0.73  -0.00  -0.00
     2  17     0.00  -0.11   0.01    -0.00  -0.01  -0.11    -0.00   0.00   0.00
     3   1    -0.01   0.29  -0.02     0.19   0.02   0.28     0.24   0.00  -0.09
     4   1    -0.16   0.28  -0.02    -0.10   0.01   0.28     0.24   0.08   0.04
     5   1     0.17   0.28  -0.01    -0.08   0.02   0.29     0.24  -0.08   0.04
     6   6     0.00   0.61  -0.03    -0.00   0.03   0.61    -0.36  -0.00  -0.00
     7   7     0.00  -0.51   0.03    -0.00  -0.03  -0.51    -0.37   0.00   0.00
                      4                      5                      6
                      A                      A                      A
 Frequencies --    214.4634               214.4770               269.6889
 Red. masses --      4.2400                 4.2398                18.4545
 Frc consts  --      0.1149                 0.1149                 0.7908
 IR Inten    --     13.2377                13.2385               141.2174
  Atom  AN      X      Y      Z        X      Y      Z        X      Y      Z
     1   6    -0.00  -0.01   0.43     0.00   0.43   0.01    -0.50  -0.00   0.00
     2  17    -0.00   0.00  -0.10     0.00  -0.10  -0.00     0.53   0.00  -0.00
     3   1     0.17  -0.01   0.49     0.00   0.47   0.01    -0.04  -0.00   0.09
     4   1    -0.08  -0.01   0.47    -0.15   0.48   0.02    -0.04  -0.08  -0.05
     5   1    -0.09  -0.02   0.47     0.15   0.48   0.01    -0.04   0.08  -0.05
     6   6     0.00   0.01  -0.27    -0.00  -0.27  -0.01    -0.47   0.00   0.00
     7   7     0.00  -0.00   0.01    -0.00   0.01   0.00    -0.47   0.00  -0.00
                      7                      8                      9
                      A                      A                      A
 Frequencies --    987.0889               987.1528              1182.1774
 Red. masses --      1.0729                 1.0729                 1.0608
 Frc consts  --      0.6159                 0.6160                 0.8734
 IR Inten    --      0.0233                 0.0232                65.4303
  Atom  AN      X      Y      Z        X      Y      Z        X      Y      Z
     1   6    -0.00   0.00  -0.07    -0.00   0.07   0.00    -0.05  -0.00   0.00
     2  17    -0.00  -0.00   0.02     0.00  -0.02  -0.00    -0.02  -0.00   0.00
     3   1     0.79  -0.01   0.10    -0.03  -0.16  -0.00     0.56  -0.00   0.12
     4   1    -0.37  -0.03   0.15     0.70  -0.12   0.02     0.56  -0.10  -0.06
     5   1    -0.42   0.02   0.15    -0.67  -0.12  -0.03     0.56   0.10  -0.06
     6   6     0.00   0.00  -0.01    -0.00   0.01   0.00    -0.01  -0.00   0.00
     7   7     0.00  -0.00   0.00    -0.00  -0.00  -0.00    -0.01   0.00  -0.00
                     10                     11                     12
                      A                      A                      A
 Frequencies --   1431.5952              1431.7393              2172.5301
 Red. masses --      1.0816                 1.0816                12.7869
 Frc consts  --      1.3060                 1.3063                35.5589
 IR Inten    --      5.5268                 5.5206                 8.5519
  Atom  AN      X      Y      Z        X      Y      Z        X      Y      Z
     1   6    -0.00  -0.00  -0.08    -0.00  -0.08   0.00    -0.00   0.00   0.00
     2  17     0.00  -0.00  -0.00    -0.00  -0.00   0.00    -0.00  -0.00   0.00
     3   1    -0.20   0.01  -0.11     0.00   0.78   0.00    -0.04   0.00  -0.01
     4   1     0.10  -0.39   0.55     0.17   0.12  -0.39    -0.04   0.01   0.00
     5   1     0.10   0.38   0.56    -0.18   0.11   0.38    -0.04  -0.01   0.00
     6   6    -0.00  -0.00  -0.00    -0.00  -0.00   0.00     0.76  -0.00   0.00
     7   7    -0.00   0.00   0.00     0.00   0.00  -0.00    -0.64   0.00  -0.00
                     13                     14                     15
                      A                      A                      A
 Frequencies --   3163.9623              3329.8727              3329.9614
 Red. masses --      1.0160                 1.1180                 1.1180
 Frc consts  --      5.9922                 7.3041                 7.3043
 IR Inten    --      4.1917                 0.2553                 0.2517
  Atom  AN      X      Y      Z        X      Y      Z        X      Y      Z
     1   6     0.03  -0.00   0.00    -0.00  -0.10   0.00     0.00  -0.00  -0.10
     2  17    -0.00   0.00  -0.00     0.00   0.00  -0.00    -0.00   0.00   0.00
     3   1    -0.11  -0.00   0.57     0.01  -0.02  -0.03    -0.17  -0.00   0.79
     4   1    -0.11  -0.49  -0.28     0.15   0.58   0.34     0.09   0.37   0.20
     5   1    -0.11   0.49  -0.28    -0.15   0.61  -0.36     0.08  -0.33   0.17
     6   6     0.00   0.00  -0.00    -0.00   0.00  -0.00     0.00   0.00   0.00
     7   7     0.00  -0.00   0.00    -0.00  -0.00   0.00     0.00  -0.00  -0.00

 -------------------
 - Thermochemistry -
 -------------------
 Temperature   298.150 Kelvin.  Pressure   1.00000 Atm.
 Atom     1 has atomic number  6 and mass  12.00000
 Atom     2 has atomic number 17 and mass  34.96885
 Atom     3 has atomic number  1 and mass   1.00783
 Atom     4 has atomic number  1 and mass   1.00783
 Atom     5 has atomic number  1 and mass   1.00783
 Atom     6 has atomic number  6 and mass  12.00000
 Atom     7 has atomic number  7 and mass  14.00307
 Molecular mass:    75.99540 amu.
 Principal axes and moments of inertia in atomic units:
                           1         2         3
     Eigenvalues --    11.977371458.404271458.40662
           X            1.00000   0.00000  -0.00001
           Y           -0.00000   1.00000  -0.00257
           Z            0.00001   0.00257   1.00000
 This molecule is an asymmetric top.
 Rotational symmetry number  1.
 Rotational temperatures (Kelvin)      7.23146     0.05939     0.05939
 Rotational constants (GHZ):         150.67926     1.23748     1.23747
    3 imaginary frequencies ignored.
 Zero-point vibrational energy     111938.8 (Joules/Mol)
                                   26.75402 (Kcal/Mol)
 Warning -- explicit consideration of   3 degrees of freedom as
           vibrations may cause significant error
 Vibrational temperatures:    308.57   308.58   388.02  1420.20  1420.29
          (Kelvin)           1700.89  2059.75  2059.95  3125.79  4552.24
                             4790.94  4791.07
 
 Zero-point correction=                           0.042635 (Hartree/Particle)
 Thermal correction to Energy=                    0.047113
 Thermal correction to Enthalpy=                  0.048057
 Thermal correction to Gibbs Free Energy=         0.015021
 Sum of electronic and zero-point Energies=           -592.947371
 Sum of electronic and thermal Energies=              -592.942893
 Sum of electronic and thermal Enthalpies=            -592.941949
 Sum of electronic and thermal Free Energies=         -592.974985
 
                     E (Thermal)             CV                S
                      KCal/Mol        Cal/Mol-Kelvin    Cal/Mol-Kelvin
 Total                   29.564             12.525             69.529
 Electronic               0.000              0.000              0.000
 Translational            0.889              2.981             38.900
 Rotational               0.889              2.981             24.747
 Vibrational             27.786              6.563              5.882
 Vibration     1          0.644              1.819              2.005
 Vibration     2          0.644              1.819              2.005
 Vibration     3          0.674              1.729              1.598
                       Q            Log10(Q)             Ln(Q)
 Total Bot       0.123207D-06         -6.909365        -15.909400
 Total V=0       0.502886D+13         12.701470         29.246214
 Vib (Bot)       0.828125D-19        -19.081904        -43.937708
 Vib (Bot)    1  0.924435D+00         -0.034124         -0.078573
 Vib (Bot)    2  0.924371D+00         -0.034154         -0.078641
 Vib (Bot)    3  0.716722D+00         -0.144649         -0.333068
 Vib (V=0)       0.338010D+01          0.528930          1.217906
 Vib (V=0)    1  0.155099D+01          0.190609          0.438893
 Vib (V=0)    2  0.155093D+01          0.190593          0.438857
 Vib (V=0)    3  0.137389D+01          0.137953          0.317649
 Electronic      0.100000D+01          0.000000          0.000000
 Translational   0.260396D+08          7.415635         17.075130
 Rotational      0.571353D+05          4.756905         10.953178
 
                                                       RxCoord=1.29969 DE=51.64
                                                             IR Spectrum
 
      3     3                                     2                           1        1                                             
      3     1                                     1                           4        1       9                          2 2        
      3     6                                     7                           3        8       8                          7 1        
      0     4                                     3                           2        2       7                          0 4        
 
      X     X                                     X                           X        X                                  X X        
                                                                              X        X                                  X X        
                                                                                       X                                  X X        
                                                                                       X                                  X X        
                                                                                       X                                  X          
                                                                                       X                                  X          
                                                                                       X                                  X          
                                                                                       X                                  X          
                                                                                       X                                  X          
                                                                                                                          X          
                                                                                                                          X          
                                                                                                                          X          
                                                                                                                          X          
                                                                                                                          X          
                                                                                                                          X          
                                                                                                                          X          
                                                                                                                          X          
                                                                                                                          X          
                                                                                                                          X          
                                                                                                                          X          
 
 -------------------------------------------------------------------
 Center     Atomic                   Forces (Hartrees/Bohr)
 Number     Number              X              Y              Z
 -------------------------------------------------------------------
      1        6          -0.012264683   -0.000000700   -0.000016164
      2       17           0.002940733   -0.000000010    0.000007390
      3        1           0.000194823   -0.000002282    0.000995003
      4        1           0.000174519   -0.000895113   -0.000493011
      5        1           0.000173985    0.000897991   -0.000489139
      6        6           0.003337455    0.000000170   -0.000006129
      7        7           0.005443168   -0.000000056    0.000002050
 -------------------------------------------------------------------
 Cartesian Forces:  Max     0.012264683 RMS     0.003109249
 Z-matrix is all fixed cartesians, so copy forces.
 Force constants in Cartesian coordinates: 
                1             2             3             4             5 
      1  0.652799D-01
      2 -0.203687D-05  0.646920D+00
      3  0.107846D-03  0.145917D-05  0.646823D+00
      4  0.872760D-02  0.000000D+00  0.000000D+00  0.813788D-01
      5  0.000000D+00 -0.294036D-01  0.000000D+00  0.000000D+00  0.165097D-01
      6  0.000000D+00  0.000000D+00 -0.293984D-01 -0.145770D-04  0.000000D+00
      7 -0.320231D-01 -0.160667D-03  0.693141D-01 -0.222375D-01 -0.334119D-04
      8 -0.151443D-03 -0.514628D-01  0.703951D-03  0.129413D-04  0.374640D-03
      9  0.653812D-01  0.703884D-03 -0.355122D+00 -0.562394D-02 -0.138045D-04
     10 -0.320751D-01 -0.600545D-01 -0.348497D-01 -0.222293D-01 -0.124238D-01
     11 -0.566472D-01 -0.278572D+00 -0.131768D+00  0.486916D-02  0.483304D-02
     12 -0.328767D-01 -0.131760D+00 -0.127915D+00  0.283035D-02  0.258928D-02
     13 -0.320759D-01  0.602172D-01 -0.345727D-01 -0.222293D-01  0.124569D-01
     14  0.568008D-01 -0.279787D+00  0.131063D+00 -0.488249D-02  0.485706D-02
     15 -0.326154D-01  0.131054D+00 -0.126696D+00  0.280785D-02 -0.257542D-02
     16  0.726033D-02  0.000000D+00  0.194595D-05 -0.133856D-01  0.000000D+00
     17  0.000000D+00 -0.997322D-02  0.000000D+00  0.000000D+00  0.341183D-02
     18 -0.316220D-05  0.000000D+00 -0.996910D-02  0.537678D-05  0.000000D+00
     19  0.149062D-01  0.000000D+00 -0.159849D-05 -0.100247D-01  0.000000D+00
     20  0.000000D+00  0.227760D-02  0.000000D+00  0.000000D+00 -0.582672D-03
     21  0.652541D-05  0.000000D+00  0.227703D-02 -0.518715D-05  0.000000D+00
                6             7             8             9            10 
      6  0.165109D-01
      7  0.143735D-01  0.567391D-01
      8 -0.136654D-04  0.156618D-03  0.456828D-01
      9  0.633198D-02 -0.675545D-01 -0.737881D-03  0.363964D+00
     10 -0.720860D-02  0.260771D-02  0.508815D-02  0.365532D-02  0.567952D-01
     11  0.258677D-02 -0.592955D-03  0.333338D-02  0.330630D-02  0.585292D-01
     12  0.187542D-02 -0.624594D-02 -0.241575D-01 -0.882939D-02  0.339616D-01
     13 -0.715097D-02  0.260782D-02 -0.510504D-02  0.363181D-02  0.260725D-02
     14 -0.257303D-02  0.621971D-03  0.323633D-02 -0.325023D-02  0.570744D-02
     15  0.185156D-02 -0.624337D-02  0.242134D-01 -0.873250D-02  0.261114D-02
     16  0.000000D+00 -0.690283D-02  0.000000D+00 -0.862196D-04 -0.691354D-02
     17  0.000000D+00  0.959378D-05 -0.153928D-02 -0.109129D-04  0.358477D-02
     18  0.341111D-02 -0.414171D-02 -0.109241D-04  0.315974D-02  0.208128D-02
     19  0.000000D+00 -0.791156D-03 -0.138842D-05  0.596403D-03 -0.792186D-03
     20  0.000000D+00 -0.114935D-05  0.374915D-03  0.265068D-05 -0.431221D-03
     21 -0.582575D-03  0.497901D-03  0.266201D-05 -0.771740D-03 -0.250975D-03
               11            12            13            14            15 
     11  0.283712D+00
     12  0.138117D+00  0.125820D+00
     13 -0.571931D-02  0.258456D-02  0.567962D-01
     14 -0.148000D-01  0.136707D-01 -0.586877D-01  0.284986D+00
     15 -0.137824D-01  0.931910D-02  0.336916D-01 -0.137377D+00  0.124542D+00
     16  0.766909D-04  0.451864D-04 -0.691385D-02 -0.769742D-04  0.448496D-04
     17  0.197627D-02  0.203829D-02 -0.359437D-02  0.199516D-02 -0.202745D-02
     18  0.203921D-02 -0.356118D-03  0.206467D-02 -0.202835D-02 -0.374873D-03
     19 -0.515589D-03 -0.299046D-03 -0.792212D-03  0.516967D-03 -0.296651D-03
     20 -0.483187D-03 -0.497794D-03  0.432407D-03 -0.487810D-03  0.495148D-03
     21 -0.498128D-03  0.858541D-04 -0.248978D-03  0.495468D-03  0.904580D-04
               16            17            18            19            20 
     16  0.117354D+01
     17 -0.954069D-05  0.359424D-02
     18  0.380200D-03  0.000000D+00  0.359492D-02
     19 -0.114669D+01  0.973644D-05 -0.386649D-03  0.114418D+01
     20  0.970472D-05  0.535001D-03  0.000000D+00 -0.972733D-05 -0.163385D-02
     21 -0.386010D-03  0.000000D+00  0.534318D-03  0.386724D-03  0.000000D+00
               21 
     21 -0.163335D-02
 Leave Link  716 at Sun Oct 13 09:51:20 2024, MaxMem=  2684354560 cpu:               4.5 elap:               0.2
 (Enter /usr/local/g16_AVX//g16/l103.exe)

 GradGradGradGradGradGradGradGradGradGradGradGradGradGradGradGradGradGrad
 Berny optimization.
 Search for a local minimum.
 Step number   1 out of a maximum of    2
 All quantities printed in internal units (Hartrees-Bohrs-Radians)
 Second derivative matrix not updated -- analytic derivatives used.
 ITU=  0
     Eigenvalues ---   -0.00227  -0.00227  -0.00188   0.01004   0.01004
     Eigenvalues ---    0.04972   0.04973   0.05306   0.09445   0.10787
     Eigenvalues ---    0.10789   0.41791   0.94968   0.94975   2.30467
 Eigenvalue     1 is  -2.27D-03 should be greater than     0.000000 Eigenvector:
                          Y6        Y7        Y2        Y3        Y4
   1                    0.62040  -0.61344  -0.20933   0.19888   0.19502
                          Y5        X5        X4        Y1        Z6
   1                    0.19482   0.16851  -0.16133   0.15419  -0.02189
 Eigenvalue     2 is  -2.27D-03 should be greater than     0.000000 Eigenvector:
                          Z6        Z7        Z2        Z5        Z4
   1                    0.62035  -0.61342  -0.20934   0.19799   0.19775
                          Z3        X3        Z1        X4        X5
   1                    0.19308   0.19085   0.15421  -0.10108  -0.08868
 Eigenvalue     3 is  -1.88D-03 should be greater than     0.000000 Eigenvector:
                          X1        X7        X6        X4        X5
   1                    0.70570  -0.42442  -0.41530   0.20143   0.20138
                          X3        Z3        Y5        Y4        X2
   1                    0.20111  -0.09243  -0.08022   0.07994  -0.04665
 Quadratic step=6.742D+00 exceeds max=3.000D-01 adjusted using Lamda=-4.120D-02.
 Angle between NR and scaled steps=  10.70 degrees.
 Angle between quadratic step and forces=  17.17 degrees.
 Linear search not attempted -- first point.
 B after Tr=     0.014138   -0.000000    0.000002
         Rot=    1.000000    0.000000   -0.000002   -0.000000 Ang=  -0.00 deg.
 Variable       Old X    -DE/DX   Delta X   Delta X   Delta X     New X
                                 (Linear)    (Quad)   (Total)
    X1       -0.31534  -0.01226   0.00000  -0.23958  -0.22544  -0.54078
    Y1        0.00001  -0.00000   0.00000  -0.00000  -0.00000   0.00001
    Z1       -0.00031  -0.00002   0.00000  -0.00009  -0.00008  -0.00039
    X2       -4.10465   0.00294   0.00000   0.03553   0.04967  -4.05499
    Y2       -0.00000  -0.00000   0.00000   0.00000  -0.00000  -0.00000
    Z2        0.00008   0.00001   0.00000   0.00004   0.00005   0.00014
    X3        0.13461   0.00019   0.00000  -0.03696  -0.02283   0.11178
    Y3        0.00463  -0.00000   0.00000  -0.00008  -0.00008   0.00455
    Z3       -1.99073   0.00100   0.00000   0.03538   0.03539  -1.95534
    X4        0.13543   0.00017   0.00000  -0.03720  -0.02305   0.11238
    Y4        1.72156  -0.00090   0.00000  -0.03085  -0.03085   1.69070
    Z4        0.99848  -0.00049   0.00000  -0.01773  -0.01772   0.98075
    X5        0.13545   0.00017   0.00000  -0.03720  -0.02306   0.11239
    Y5       -1.72614   0.00090   0.00000   0.03094   0.03094  -1.69520
    Z5        0.99048  -0.00049   0.00000  -0.01758  -0.01758   0.97290
    X6        4.45133   0.00334   0.00000   0.10661   0.12075   4.57208
    Y6        0.00001   0.00000   0.00000   0.00000   0.00000   0.00001
    Z6       -0.00031  -0.00001   0.00000  -0.00008  -0.00010  -0.00040
    X7        6.67671   0.00544   0.00000   0.10982   0.12396   6.80067
    Y7       -0.00001  -0.00000   0.00000  -0.00000  -0.00000  -0.00001
    Z7        0.00044   0.00000   0.00000   0.00007   0.00005   0.00049
         Item               Value     Threshold  Converged?
 Maximum Force            0.012265     0.000450     NO 
 RMS     Force            0.003109     0.000300     NO 
 Maximum Displacement     0.225440     0.001800     NO 
 RMS     Displacement     0.064957     0.001200     NO 
 Predicted change in Energy=-4.058483D-03
 GradGradGradGradGradGradGradGradGradGradGradGradGradGradGradGradGradGrad

 Leave Link  103 at Sun Oct 13 09:51:20 2024, MaxMem=  2684354560 cpu:               3.0 elap:               0.2
 (Enter /usr/local/g16_AVX//g16/l9999.exe)

 ----------------------------------------------------------------------

 Electric dipole moment (input orientation):
 (Debye = 10**-18 statcoulomb cm , SI units = C m)
                  (au)            (Debye)         (10**-30 SI)
   Tot        0.289995D+01      0.737093D+01      0.245868D+02
   x         -0.289995D+01     -0.737093D+01     -0.245868D+02
   y          0.000000D+00      0.000000D+00      0.000000D+00
   z         -0.213847D-03     -0.543545D-03     -0.181307D-02

 Dipole polarizability, Alpha (input orientation).
 (esu units = cm**3 , SI units = C**2 m**2 J**-1)
 Alpha(0;0):
               (au)            (10**-24 esu)      (10**-40 SI)
   iso        0.628627D+02      0.931529D+01      0.103647D+02
   aniso      0.713100D+02      0.105671D+02      0.117574D+02
   xx         0.110403D+03      0.163600D+02      0.182030D+02
   yx        -0.734073D-04     -0.108778D-04     -0.121032D-04
   yy         0.390928D+02      0.579296D+01      0.644553D+01
   zx         0.323205D-02      0.478941D-03      0.532894D-03
   zy         0.000000D+00      0.000000D+00      0.000000D+00
   zz         0.390926D+02      0.579292D+01      0.644550D+01

 ----------------------------------------------------------------------

 Dipole orientation:
     6         -0.00028288          0.00001246          0.31534240
    17          0.00038583         -0.00001191          4.10465142
     1         -1.99073812          0.00463313         -0.13446216
     1          0.99847069          1.72155729         -0.13549854
     1          0.99047063         -1.72614407         -0.13552526
     6         -0.00063627          0.00001653         -4.45132733
     7         -0.00004827          0.00000306         -6.67671044

 Electric dipole moment (dipole orientation):
 (Debye = 10**-18 statcoulomb cm , SI units = C m)
                  (au)            (Debye)         (10**-30 SI)
   Tot        0.289995D+01      0.737093D+01      0.245868D+02
   x          0.000000D+00      0.000000D+00      0.000000D+00
   y          0.000000D+00      0.000000D+00      0.000000D+00
   z          0.289995D+01      0.737093D+01      0.245868D+02

 Dipole polarizability, Alpha (dipole orientation).
 (esu units = cm**3 , SI units = C**2 m**2 J**-1)
 Alpha(0;0):
               (au)            (10**-24 esu)      (10**-40 SI)
   iso        0.628627D+02      0.931529D+01      0.103647D+02
   aniso      0.713100D+02      0.105671D+02      0.117574D+02
   xx         0.390926D+02      0.579292D+01      0.644550D+01
   yx         0.000000D+00      0.000000D+00      0.000000D+00
   yy         0.390928D+02      0.579296D+01      0.644553D+01
   zx         0.202647D-02      0.300292D-03      0.334120D-03
   zy        -0.100591D-03     -0.149061D-04     -0.165853D-04
   zz         0.110403D+03      0.163600D+02      0.182030D+02

 ----------------------------------------------------------------------
 1\1\GINC-NODO8\Freq\RB3LYP\6-31++G(d,p)\C2H3Cl1N1(1-)\ALANQF\13-Oct-20
 24\0\\#p b3lyp 6-31++g(d,p) scf=verytight NoSymm freq=noraman int=ultr
 afine\\RxCoord=1.29969 DE=51.64\\-1,1\C,-0.166872,0.000007,-0.000162\C
 l,-2.172088,-0.000001,0.000044\H,0.071232,0.002449,-1.053448\H,0.07166
 6,0.91101,0.528371\H,0.071676,-0.913435,0.524142\C,2.355541,0.000003,-
 0.000163\N,3.533163,-0.000007,0.000235\\Version=ES64L-G16RevB.01\HF=-5
 92.9900062\RMSD=3.868e-09\RMSF=3.109e-03\ZeroPoint=0.0426352\Thermal=0
 .0471128\Dipole=-2.8440696,0.0000079,-0.0002377\DipoleDeriv=2.7876991,
 0.000004,-0.0001276,0.0000078,0.0730387,0.0000002,-0.0002977,0.0000002
 ,0.0731049,-1.8968151,-0.0000018,0.0000815,-0.0000045,-0.4040486,0.,0.
 0000754,0.,-0.4040381,-0.0979921,0.000014,-0.0062531,0.0000554,0.07295
 68,0.0001202,-0.0244038,0.0001203,0.0210751,-0.0979265,0.0054221,0.003
 1491,0.0212046,0.0342274,-0.0225005,0.0123567,-0.0224714,0.0599221,-0.
 0979246,-0.0054376,0.0031239,-0.0212646,0.03402,0.0223802,0.0122589,0.
 0223511,0.0601304,-0.4991853,-0.0000032,0.0001124,-0.000006,-0.3926034
 ,-0.0000001,0.000316,-0.0000002,-0.3926096,-1.0978554,0.0000026,-0.000
 0862,0.0000073,-0.4175909,0.,-0.0003055,0.,-0.4175848\Polar=110.402728
 3,-0.0000734,39.0928103,0.0032321,-0.000001,39.0925909\Quadrupole=-26.
 1107561,13.0558262,13.0549299,0.0000326,-0.0007489,0.0000022\PG=C01 [X
 (C2H3Cl1N1)]\NImag=3\\0.06527989,-0.00000204,0.64692013,0.00010785,0.0
 0000146,0.64682256,0.00872760,0.00000004,0.00000012,0.08137884,0.00000
 007,-0.02940361,0.,0.00000032,0.01650972,-0.00000026,-0.00000002,-0.02
 939838,-0.00001458,-0.00000004,0.01651089,-0.03202308,-0.00016067,0.06
 931413,-0.02223753,-0.00003341,0.01437354,0.05673907,-0.00015144,-0.05
 146281,0.00070395,0.00001294,0.00037464,-0.00001367,0.00015662,0.04568
 283,0.06538117,0.00070388,-0.35512192,-0.00562394,-0.00001380,0.006331
 98,-0.06755455,-0.00073788,0.36396382,-0.03207508,-0.06005451,-0.03484
 974,-0.02222933,-0.01242382,-0.00720860,0.00260771,0.00508815,0.003655
 32,0.05679518,-0.05664720,-0.27857154,-0.13176836,0.00486916,0.0048330
 4,0.00258677,-0.00059295,0.00333338,0.00330630,0.05852919,0.28371207,-
 0.03287668,-0.13175954,-0.12791452,0.00283035,0.00258928,0.00187542,-0
 .00624594,-0.02415750,-0.00882939,0.03396157,0.13811660,0.12581965,-0.
 03207587,0.06021718,-0.03457270,-0.02222929,0.01245687,-0.00715097,0.0
 0260782,-0.00510504,0.00363181,0.00260725,-0.00571931,0.00258456,0.056
 79616,0.05680084,-0.27978654,0.13106293,-0.00488249,0.00485706,-0.0025
 7303,0.00062197,0.00323633,-0.00325023,0.00570744,-0.01480003,0.013670
 66,-0.05868774,0.28498584,-0.03261544,0.13105420,-0.12669568,0.0028078
 5,-0.00257542,0.00185156,-0.00624337,0.02421336,-0.00873250,0.00261114
 ,-0.01378239,0.00931910,0.03369162,-0.13737745,0.12454194,0.00726033,-
 0.00000004,0.00000195,-0.01338556,0.,0.00000005,-0.00690283,0.00000016
 ,-0.00008622,-0.00691354,0.00007669,0.00004519,-0.00691385,-0.00007697
 ,0.00004485,1.17354146,-0.00000010,-0.00997322,0.00000003,-0.00000010,
 0.00341183,0.,0.00000959,-0.00153928,-0.00001091,0.00358477,0.00197627
 ,0.00203829,-0.00359437,0.00199516,-0.00202745,-0.00000954,0.00359424,
 -0.00000316,0.00000002,-0.00996910,0.00000538,0.,0.00341111,-0.0041417
 1,-0.00001092,0.00315974,0.00208128,0.00203921,-0.00035612,0.00206467,
 -0.00202835,-0.00037487,0.00038020,0.00000004,0.00359492,0.01490620,0.
 00000003,-0.00000160,-0.01002473,-0.00000003,0.00000082,-0.00079116,-0
 .00000139,0.00059640,-0.00079219,-0.00051559,-0.00029905,-0.00079221,0
 .00051697,-0.00029665,-1.14668601,0.00000974,-0.00038665,1.14418009,-0
 .00000014,0.00227760,0.,0.00000012,-0.00058267,0.,-0.00000115,0.000374
 92,0.00000265,-0.00043122,-0.00048319,-0.00049779,0.00043241,-0.000487
 81,0.00049515,0.00000970,0.00053500,0.,-0.00000973,-0.00163385,0.00000
 653,0.,0.00227703,-0.00000519,0.,-0.00058257,0.00049790,0.00000266,-0.
 00077174,-0.00025097,-0.00049813,0.00008585,-0.00024898,0.00049547,0.0
 0009046,-0.00038601,0.,0.00053432,0.00038672,0.,-0.00163335\\0.0122646
 8,0.00000070,0.00001616,-0.00294073,0.00000001,-0.00000739,-0.00019482
 ,0.00000228,-0.00099500,-0.00017452,0.00089511,0.00049301,-0.00017399,
 -0.00089799,0.00048914,-0.00333746,-0.00000017,0.00000613,-0.00544317,
 0.00000006,-0.00000205\\\@


 You don't have to suffer to be a poet.
 Adolescence is enough suffering for anyone.
                             -- John Ciardi
 Job cpu time:       0 days  0 hours  3 minutes 58.2 seconds.
 Elapsed time:       0 days  0 hours  0 minutes 10.5 seconds.
 File lengths (MBytes):  RWF=     88 Int=      0 D2E=      0 Chk=      2 Scr=      2
 Normal termination of Gaussian 16 at Sun Oct 13 09:51:20 2024.
