 Entering Gaussian System, Link 0=g16
 Initial command:
 /usr/local/g16_AVX//g16/l1.exe "/scratch/alanqf/0115-54557.ixchel.mda.cinvestav.mx/Gau-43426.inp" -scrdir="/scratch/alanqf/0115-54557.ixchel.mda.cinvestav.mx/"
 Entering Link 1 = /usr/local/g16_AVX//g16/l1.exe PID=     43427.
  
 Copyright (c) 1988-2017, Gaussian, Inc.  All Rights Reserved.
  
 This is part of the Gaussian(R) 16 program.  It is based on
 the Gaussian(R) 09 system (copyright 2009, Gaussian, Inc.),
 the Gaussian(R) 03 system (copyright 2003, Gaussian, Inc.),
 the Gaussian(R) 98 system (copyright 1998, Gaussian, Inc.),
 the Gaussian(R) 94 system (copyright 1995, Gaussian, Inc.),
 the Gaussian 92(TM) system (copyright 1992, Gaussian, Inc.),
 the Gaussian 90(TM) system (copyright 1990, Gaussian, Inc.),
 the Gaussian 88(TM) system (copyright 1988, Gaussian, Inc.),
 the Gaussian 86(TM) system (copyright 1986, Carnegie Mellon
 University), and the Gaussian 82(TM) system (copyright 1983,
 Carnegie Mellon University). Gaussian is a federally registered
 trademark of Gaussian, Inc.
  
 This software contains proprietary and confidential information,
 including trade secrets, belonging to Gaussian, Inc.
  
 This software is provided under written license and may be
 used, copied, transmitted, or stored only in accord with that
 written license.
  
 The following legend is applicable only to US Government
 contracts under FAR:
  
                    RESTRICTED RIGHTS LEGEND
  
 Use, reproduction and disclosure by the US Government is
 subject to restrictions as set forth in subparagraphs (a)
 and (c) of the Commercial Computer Software - Restricted
 Rights clause in FAR 52.227-19.
  
 Gaussian, Inc.
 340 Quinnipiac St., Bldg. 40, Wallingford CT 06492
  
  
 ---------------------------------------------------------------
 Warning -- This program may not be used in any manner that
 competes with the business of Gaussian, Inc. or will provide
 assistance to any competitor of Gaussian, Inc.  The licensee
 of this program is prohibited from giving any competitor of
 Gaussian, Inc. access to this program.  By using this program,
 the user acknowledges that Gaussian, Inc. is engaged in the
 business of creating and licensing software in the field of
 computational chemistry and represents and warrants to the
 licensee that it is not a competitor of Gaussian, Inc. and that
 it will not use this program in any manner prohibited above.
 ---------------------------------------------------------------
  

 Cite this work as:
 Gaussian 16, Revision B.01,
 M. J. Frisch, G. W. Trucks, H. B. Schlegel, G. E. Scuseria, 
 M. A. Robb, J. R. Cheeseman, G. Scalmani, V. Barone, 
 G. A. Petersson, H. Nakatsuji, X. Li, M. Caricato, A. V. Marenich, 
 J. Bloino, B. G. Janesko, R. Gomperts, B. Mennucci, H. P. Hratchian, 
 J. V. Ortiz, A. F. Izmaylov, J. L. Sonnenberg, D. Williams-Young, 
 F. Ding, F. Lipparini, F. Egidi, J. Goings, B. Peng, A. Petrone, 
 T. Henderson, D. Ranasinghe, V. G. Zakrzewski, J. Gao, N. Rega, 
 G. Zheng, W. Liang, M. Hada, M. Ehara, K. Toyota, R. Fukuda, 
 J. Hasegawa, M. Ishida, T. Nakajima, Y. Honda, O. Kitao, H. Nakai, 
 T. Vreven, K. Throssell, J. A. Montgomery, Jr., J. E. Peralta, 
 F. Ogliaro, M. J. Bearpark, J. J. Heyd, E. N. Brothers, K. N. Kudin, 
 V. N. Staroverov, T. A. Keith, R. Kobayashi, J. Normand, 
 K. Raghavachari, A. P. Rendell, J. C. Burant, S. S. Iyengar, 
 J. Tomasi, M. Cossi, J. M. Millam, M. Klene, C. Adamo, R. Cammi, 
 J. W. Ochterski, R. L. Martin, K. Morokuma, O. Farkas, 
 J. B. Foresman, and D. J. Fox, Gaussian, Inc., Wallingford CT, 2016.
 
 ******************************************
 Gaussian 16:  ES64L-G16RevB.01 20-Dec-2017
                13-Oct-2024 
 ******************************************
 %NProcShared=26
 Will use up to   26 processors via shared memory.
 %MEM=20GB
 %chk=CHKfiles/0115.chk
 ---------------------------------------------------------------------
 #p b3lyp 6-31++g(d,p) scf=verytight NoSymm freq=noraman int=ultrafine
 ---------------------------------------------------------------------
 1/10=4,30=1,38=1/1,3;
 2/12=2,15=1,17=6,18=5,40=1/2;
 3/5=1,6=6,7=1111,11=2,25=1,30=1,71=2,74=-5,75=-5,140=1/1,2,3;
 4//1;
 5/5=2,17=3,38=5,98=1/2;
 8/6=4,10=90,11=11/1;
 11/6=1,8=1,9=11,15=111,16=1,31=1/1,2,10;
 10/6=1,31=1/2;
 6/7=2,8=2,9=2,10=2,28=1/1;
 7/8=1,10=1,25=1,30=1/1,2,3,16;
 1/10=4,30=1/3;
 99//99;
 Leave Link    1 at Sun Oct 13 09:51:12 2024, MaxMem=  2684354560 cpu:               1.2 elap:               0.1
 (Enter /usr/local/g16_AVX//g16/l101.exe)
 ------------------------
 RxCoord=1.39967 DE=51.20
 ------------------------
 Symbolic Z-matrix:
 Charge = -1 Multiplicity = 1
 C                    -0.18042   0.00001  -0.00017 
 Cl                   -2.16983  0.         0.00004 
 H                     0.06708   0.00244  -1.05165 
 H                     0.06752   0.90944   0.52745 
 H                     0.06754  -0.91186   0.52324 
 C                     2.35918   0.       -0.00016 
 N                     3.53691  -0.00001   0.00024 
 
 ITRead=  0  0  0  0  0  0  0
 MicOpt= -1 -1 -1 -1 -1 -1 -1
 NAtoms=      7 NQM=        7 NQMF=       0 NMMI=      0 NMMIF=      0
                NMic=       0 NMicF=      0.
                    Isotopes and Nuclear Properties:
 (Nuclear quadrupole moments (NQMom) in fm**2, nuclear magnetic moments (NMagM)
  in nuclear magnetons)

  Atom         1           2           3           4           5           6           7
 IAtWgt=          12          35           1           1           1          12          14
 AtmWgt=  12.0000000  34.9688527   1.0078250   1.0078250   1.0078250  12.0000000  14.0030740
 NucSpn=           0           3           1           1           1           0           2
 AtZEff=  -0.0000000  -0.0000000  -0.0000000  -0.0000000  -0.0000000  -0.0000000  -0.0000000
 NQMom=    0.0000000  -8.1650000   0.0000000   0.0000000   0.0000000   0.0000000   2.0440000
 NMagM=    0.0000000   0.8218740   2.7928460   2.7928460   2.7928460   0.0000000   0.4037610
 AtZNuc=   6.0000000  17.0000000   1.0000000   1.0000000   1.0000000   6.0000000   7.0000000
 Leave Link  101 at Sun Oct 13 09:51:12 2024, MaxMem=  2684354560 cpu:               1.9 elap:               0.1
 (Enter /usr/local/g16_AVX//g16/l103.exe)

 GradGradGradGradGradGradGradGradGradGradGradGradGradGradGradGradGradGrad
 Berny optimization.
 Initialization pass.
 Trust Radius=3.00D-01 FncErr=1.00D-07 GrdErr=1.00D-07 EigMax=2.50D+02 EigMin=1.00D-04
 Number of steps in this run=      2 maximum allowed number of steps=      2.
 GradGradGradGradGradGradGradGradGradGradGradGradGradGradGradGradGradGrad

 Leave Link  103 at Sun Oct 13 09:51:12 2024, MaxMem=  2684354560 cpu:               0.4 elap:               0.0
 (Enter /usr/local/g16_AVX//g16/l202.exe)
                          Input orientation:                          
 ---------------------------------------------------------------------
 Center     Atomic      Atomic             Coordinates (Angstroms)
 Number     Number       Type             X           Y           Z
 ---------------------------------------------------------------------
      1          6           0       -0.180422    0.000007   -0.000167
      2         17           0       -2.169830   -0.000001    0.000044
      3          1           0        0.067083    0.002443   -1.051648
      4          1           0        0.067523    0.909444    0.527454
      5          1           0        0.067537   -0.911862    0.523235
      6          6           0        2.359180    0.000003   -0.000158
      7          7           0        3.536912   -0.000007    0.000236
 ---------------------------------------------------------------------
                    Distance matrix (angstroms):
                    1          2          3          4          5
     1  C    0.000000
     2  Cl   1.989408   0.000000
     3  H    1.080221   2.471809   0.000000
     4  H    1.080248   2.472044   1.821048   0.000000
     5  H    1.080249   2.472050   1.821046   1.821311   0.000000
     6  C    2.539602   4.529010   2.521774   2.521339   2.521322
     7  N    3.717334   5.706742   3.625766   3.625151   3.625130
                    6          7
     6  C    0.000000
     7  N    1.177732   0.000000
 Symmetry turned off by external request.
 Stoichiometry    C2H3ClN(1-)
 Framework group  C1[X(C2H3ClN)]
 Deg. of freedom    15
 Full point group                 C1      NOp   1
 Rotational constants (GHZ):         151.1985333           1.2366191           1.2366172
 Leave Link  202 at Sun Oct 13 09:51:12 2024, MaxMem=  2684354560 cpu:               0.2 elap:               0.0
 (Enter /usr/local/g16_AVX//g16/l301.exe)
 Standard basis: 6-31++G(d,p) (6D, 7F)
 Ernie: Thresh=  0.10000D-02 Tol=  0.10000D-05 Strict=F.
    98 basis functions,   176 primitive gaussians,    98 cartesian basis functions
    20 alpha electrons       20 beta electrons
       nuclear repulsion energy       109.8857755652 Hartrees.
 IExCor=  402 DFT=T Ex+Corr=B3LYP ExCW=0 ScaHFX=  0.200000
 ScaDFX=  0.800000  0.720000  1.000000  0.810000 ScalE2=  1.000000  1.000000
 IRadAn=      5 IRanWt=     -1 IRanGd=            0 ICorTp=0 IEmpDi=  4
 NAtoms=    7 NActive=    7 NUniq=    7 SFac= 1.00D+00 NAtFMM=   60 NAOKFM=F Big=F
 Integral buffers will be    131072 words long.
 Raffenetti 2 integral format.
 Two-electron integral symmetry is turned off.
 Leave Link  301 at Sun Oct 13 09:51:12 2024, MaxMem=  2684354560 cpu:               0.9 elap:               0.1
 (Enter /usr/local/g16_AVX//g16/l302.exe)
 NPDir=0 NMtPBC=     1 NCelOv=     1 NCel=       1 NClECP=     1 NCelD=      1
         NCelK=      1 NCelE2=     1 NClLst=     1 CellRange=     0.0.
 One-electron integrals computed using PRISM.
 NBasis=    98 RedAO= T EigKep=  1.28D-04  NBF=    98
 NBsUse=    98 1.00D-06 EigRej= -1.00D+00 NBFU=    98
 Precomputing XC quadrature grid using
 IXCGrd= 4 IRadAn=           5 IRanWt=          -1 IRanGd=           0 AccXCQ= 0.00D+00.
 Generated NRdTot=       0 NPtTot=           0 NUsed=           0 NTot=          32
 NSgBfM=    98    98    98    98    98 MxSgAt=     7 MxSgA2=     7.
 Leave Link  302 at Sun Oct 13 09:51:13 2024, MaxMem=  2684354560 cpu:               3.5 elap:               0.2
 (Enter /usr/local/g16_AVX//g16/l303.exe)
 DipDrv:  MaxL=1.
 Leave Link  303 at Sun Oct 13 09:51:13 2024, MaxMem=  2684354560 cpu:               0.6 elap:               0.1
 (Enter /usr/local/g16_AVX//g16/l401.exe)
 ExpMin= 3.60D-02 ExpMax= 2.52D+04 ExpMxC= 3.78D+03 IAcc=3 IRadAn=         5 AccDes= 0.00D+00
 Harris functional with IExCor=  402 and IRadAn=       5 diagonalized for initial guess.
 HarFok:  IExCor=  402 AccDes= 0.00D+00 IRadAn=         5 IDoV= 1 UseB2=F ITyADJ=14
 ICtDFT=  3500011 ScaDFX=  1.000000  1.000000  1.000000  1.000000
 FoFCou: FMM=F IPFlag=           0 FMFlag=      100000 FMFlg1=           0
         NFxFlg=           0 DoJE=T BraDBF=F KetDBF=T FulRan=T
         wScrn=  0.000000 ICntrl=       500 IOpCl=  0 I1Cent=   200000004 NGrid=           0
         NMat0=    1 NMatS0=      1 NMatT0=    0 NMatD0=    1 NMtDS0=    0 NMtDT0=    0
 Symmetry not used in FoFCou.
 Harris En= -593.064049910749    
 JPrj=0 DoOrth=F DoCkMO=F.
 Leave Link  401 at Sun Oct 13 09:51:13 2024, MaxMem=  2684354560 cpu:               6.2 elap:               0.3
 (Enter /usr/local/g16_AVX//g16/l502.exe)
 Keep R1 ints in memory in canonical form, NReq=35752935.
 FoFCou: FMM=F IPFlag=           0 FMFlag=           0 FMFlg1=           0
         NFxFlg=           0 DoJE=F BraDBF=F KetDBF=F FulRan=T
         wScrn=  0.000000 ICntrl=       600 IOpCl=  0 I1Cent=           0 NGrid=           0
         NMat0=    1 NMatS0=   4851 NMatT0=    0 NMatD0=    1 NMtDS0=    0 NMtDT0=    0
 Symmetry not used in FoFCou.
 Two-electron integral symmetry not used.
 Closed shell SCF:
 Using DIIS extrapolation, IDIIS=  1040.
 NGot=  2684354560 LenX=  2672563405 LenY=  2672553360
 Requested convergence on RMS density matrix=1.00D-08 within 128 cycles.
 Requested convergence on MAX density matrix=1.00D-06.
 Requested convergence on             energy=1.00D-06.
 No special actions if energy rises.

 Cycle   1  Pass 1  IDiag  1:
 E= -592.836937752966    
 DIIS: error= 3.44D-02 at cycle   1 NSaved=   1.
 NSaved= 1 IEnMin= 1 EnMin= -592.836937752966     IErMin= 1 ErrMin= 3.44D-02
 ErrMax= 3.44D-02  0.00D+00 EMaxC= 1.00D-01 BMatC= 1.29D-01 BMatP= 1.29D-01
 IDIUse=3 WtCom= 6.56D-01 WtEn= 3.44D-01
 Coeff-Com:  0.100D+01
 Coeff-En:   0.100D+01
 Coeff:      0.100D+01
 Gap=     0.388 Goal=   None    Shift=    0.000
 GapD=    0.388 DampG=1.000 DampE=0.500 DampFc=0.5000 IDamp=-1.
 Damping current iteration by 5.00D-01
 RMSDP=6.96D-02 MaxDP=2.34D+00              OVMax= 3.82D-01

 Cycle   2  Pass 1  IDiag  1:
 E= -592.872613554970     Delta-E=       -0.035675802003 Rises=F Damp=T
 DIIS: error= 1.10D-02 at cycle   2 NSaved=   2.
 NSaved= 2 IEnMin= 2 EnMin= -592.872613554970     IErMin= 2 ErrMin= 1.10D-02
 ErrMax= 1.10D-02  0.00D+00 EMaxC= 1.00D-01 BMatC= 1.69D-02 BMatP= 1.29D-01
 IDIUse=3 WtCom= 8.90D-01 WtEn= 1.10D-01
 Coeff-Com:  0.200D+00 0.800D+00
 Coeff-En:   0.374D+00 0.626D+00
 Coeff:      0.219D+00 0.781D+00
 Gap=     0.205 Goal=   None    Shift=    0.000
 RMSDP=3.36D-02 MaxDP=1.18D+00 DE=-3.57D-02 OVMax= 2.83D-01

 Cycle   3  Pass 1  IDiag  1:
 E= -592.978282743246     Delta-E=       -0.105669188276 Rises=F Damp=F
 DIIS: error= 1.56D-02 at cycle   3 NSaved=   3.
 NSaved= 3 IEnMin= 3 EnMin= -592.978282743246     IErMin= 2 ErrMin= 1.10D-02
 ErrMax= 1.56D-02  0.00D+00 EMaxC= 1.00D-01 BMatC= 1.27D-02 BMatP= 1.69D-02
 IDIUse=3 WtCom= 8.44D-01 WtEn= 1.56D-01
 Coeff-Com:  0.636D-01 0.465D+00 0.472D+00
 Coeff-En:   0.000D+00 0.000D+00 0.100D+01
 Coeff:      0.537D-01 0.392D+00 0.554D+00
 Gap=     0.204 Goal=   None    Shift=    0.000
 RMSDP=1.90D-03 MaxDP=3.63D-02 DE=-1.06D-01 OVMax= 6.38D-02

 Cycle   4  Pass 1  IDiag  1:
 E= -592.982831072372     Delta-E=       -0.004548329127 Rises=F Damp=F
 DIIS: error= 1.34D-02 at cycle   4 NSaved=   4.
 NSaved= 4 IEnMin= 4 EnMin= -592.982831072372     IErMin= 2 ErrMin= 1.10D-02
 ErrMax= 1.34D-02  0.00D+00 EMaxC= 1.00D-01 BMatC= 8.12D-03 BMatP= 1.27D-02
 IDIUse=3 WtCom= 8.66D-01 WtEn= 1.34D-01
 Coeff-Com: -0.107D-01 0.982D-01 0.437D+00 0.476D+00
 Coeff-En:   0.000D+00 0.000D+00 0.410D+00 0.590D+00
 Coeff:     -0.926D-02 0.850D-01 0.433D+00 0.491D+00
 Gap=     0.191 Goal=   None    Shift=    0.000
 RMSDP=1.17D-03 MaxDP=1.77D-02 DE=-4.55D-03 OVMax= 3.28D-02

 Cycle   5  Pass 1  IDiag  1:
 E= -592.989896412630     Delta-E=       -0.007065340258 Rises=F Damp=F
 DIIS: error= 2.60D-03 at cycle   5 NSaved=   5.
 NSaved= 5 IEnMin= 5 EnMin= -592.989896412630     IErMin= 5 ErrMin= 2.60D-03
 ErrMax= 2.60D-03  0.00D+00 EMaxC= 1.00D-01 BMatC= 4.44D-04 BMatP= 8.12D-03
 IDIUse=3 WtCom= 9.74D-01 WtEn= 2.60D-02
 Coeff-Com: -0.980D-02 0.258D-01 0.207D+00 0.289D+00 0.489D+00
 Coeff-En:   0.000D+00 0.000D+00 0.000D+00 0.153D-01 0.985D+00
 Coeff:     -0.954D-02 0.251D-01 0.201D+00 0.282D+00 0.502D+00
 Gap=     0.195 Goal=   None    Shift=    0.000
 RMSDP=4.76D-04 MaxDP=6.91D-03 DE=-7.07D-03 OVMax= 1.11D-02

 Cycle   6  Pass 1  IDiag  1:
 E= -592.990382516484     Delta-E=       -0.000486103854 Rises=F Damp=F
 DIIS: error= 3.90D-04 at cycle   6 NSaved=   6.
 NSaved= 6 IEnMin= 6 EnMin= -592.990382516484     IErMin= 6 ErrMin= 3.90D-04
 ErrMax= 3.90D-04  0.00D+00 EMaxC= 1.00D-01 BMatC= 1.50D-05 BMatP= 4.44D-04
 IDIUse=3 WtCom= 9.96D-01 WtEn= 3.90D-03
 Coeff-Com: -0.318D-02 0.867D-03 0.578D-01 0.880D-01 0.230D+00 0.627D+00
 Coeff-En:   0.000D+00 0.000D+00 0.000D+00 0.000D+00 0.000D+00 0.100D+01
 Coeff:     -0.317D-02 0.864D-03 0.576D-01 0.876D-01 0.229D+00 0.628D+00
 Gap=     0.194 Goal=   None    Shift=    0.000
 RMSDP=7.73D-05 MaxDP=1.66D-03 DE=-4.86D-04 OVMax= 1.41D-03

 Cycle   7  Pass 1  IDiag  1:
 E= -592.990397739762     Delta-E=       -0.000015223278 Rises=F Damp=F
 DIIS: error= 6.24D-05 at cycle   7 NSaved=   7.
 NSaved= 7 IEnMin= 7 EnMin= -592.990397739762     IErMin= 7 ErrMin= 6.24D-05
 ErrMax= 6.24D-05  0.00D+00 EMaxC= 1.00D-01 BMatC= 5.26D-07 BMatP= 1.50D-05
 IDIUse=1 WtCom= 1.00D+00 WtEn= 0.00D+00
 Coeff-Com: -0.171D-03-0.102D-02 0.513D-02 0.797D-02 0.406D-01 0.220D+00
 Coeff-Com:  0.727D+00
 Coeff:     -0.171D-03-0.102D-02 0.513D-02 0.797D-02 0.406D-01 0.220D+00
 Coeff:      0.727D+00
 Gap=     0.194 Goal=   None    Shift=    0.000
 RMSDP=2.41D-05 MaxDP=4.17D-04 DE=-1.52D-05 OVMax= 4.60D-04

 Cycle   8  Pass 1  IDiag  1:
 E= -592.990398336576     Delta-E=       -0.000000596814 Rises=F Damp=F
 DIIS: error= 2.15D-05 at cycle   8 NSaved=   8.
 NSaved= 8 IEnMin= 8 EnMin= -592.990398336576     IErMin= 8 ErrMin= 2.15D-05
 ErrMax= 2.15D-05  0.00D+00 EMaxC= 1.00D-01 BMatC= 6.37D-08 BMatP= 5.26D-07
 IDIUse=1 WtCom= 1.00D+00 WtEn= 0.00D+00
 Coeff-Com:  0.237D-03-0.774D-03-0.196D-02-0.261D-02 0.267D-02 0.536D-01
 Coeff-Com:  0.320D+00 0.629D+00
 Coeff:      0.237D-03-0.774D-03-0.196D-02-0.261D-02 0.267D-02 0.536D-01
 Coeff:      0.320D+00 0.629D+00
 Gap=     0.194 Goal=   None    Shift=    0.000
 RMSDP=4.27D-06 MaxDP=1.15D-04 DE=-5.97D-07 OVMax= 8.86D-05

 Cycle   9  Pass 1  IDiag  1:
 E= -592.990398408814     Delta-E=       -0.000000072238 Rises=F Damp=F
 DIIS: error= 3.32D-06 at cycle   9 NSaved=   9.
 NSaved= 9 IEnMin= 9 EnMin= -592.990398408814     IErMin= 9 ErrMin= 3.32D-06
 ErrMax= 3.32D-06  0.00D+00 EMaxC= 1.00D-01 BMatC= 1.19D-09 BMatP= 6.37D-08
 IDIUse=1 WtCom= 1.00D+00 WtEn= 0.00D+00
 Coeff-Com:  0.759D-04-0.137D-03-0.619D-03-0.783D-03-0.992D-03 0.150D-02
 Coeff-Com:  0.375D-01 0.165D+00 0.798D+00
 Coeff:      0.759D-04-0.137D-03-0.619D-03-0.783D-03-0.992D-03 0.150D-02
 Coeff:      0.375D-01 0.165D+00 0.798D+00
 Gap=     0.194 Goal=   None    Shift=    0.000
 RMSDP=1.38D-06 MaxDP=3.15D-05 DE=-7.22D-08 OVMax= 9.87D-06

 Cycle  10  Pass 1  IDiag  1:
 E= -592.990398410176     Delta-E=       -0.000000001362 Rises=F Damp=F
 DIIS: error= 4.36D-07 at cycle  10 NSaved=  10.
 NSaved=10 IEnMin=10 EnMin= -592.990398410176     IErMin=10 ErrMin= 4.36D-07
 ErrMax= 4.36D-07  0.00D+00 EMaxC= 1.00D-01 BMatC= 1.44D-11 BMatP= 1.19D-09
 IDIUse=1 WtCom= 1.00D+00 WtEn= 0.00D+00
 Coeff-Com:  0.441D-05 0.920D-06-0.370D-04-0.424D-04-0.163D-03-0.862D-03
 Coeff-Com: -0.427D-02 0.104D-01 0.100D+00 0.895D+00
 Coeff:      0.441D-05 0.920D-06-0.370D-04-0.424D-04-0.163D-03-0.862D-03
 Coeff:     -0.427D-02 0.104D-01 0.100D+00 0.895D+00
 Gap=     0.194 Goal=   None    Shift=    0.000
 RMSDP=1.25D-07 MaxDP=3.06D-06 DE=-1.36D-09 OVMax= 2.26D-06

 Cycle  11  Pass 1  IDiag  1:
 E= -592.990398410195     Delta-E=       -0.000000000018 Rises=F Damp=F
 DIIS: error= 7.47D-08 at cycle  11 NSaved=  11.
 NSaved=11 IEnMin=11 EnMin= -592.990398410195     IErMin=11 ErrMin= 7.47D-08
 ErrMax= 7.47D-08  0.00D+00 EMaxC= 1.00D-01 BMatC= 3.67D-13 BMatP= 1.44D-11
 IDIUse=1 WtCom= 1.00D+00 WtEn= 0.00D+00
 Coeff-Com: -0.804D-06 0.192D-05-0.789D-06 0.497D-06-0.186D-04-0.778D-04
 Coeff-Com: -0.737D-03-0.508D-03 0.334D-02 0.111D+00 0.887D+00
 Coeff:     -0.804D-06 0.192D-05-0.789D-06 0.497D-06-0.186D-04-0.778D-04
 Coeff:     -0.737D-03-0.508D-03 0.334D-02 0.111D+00 0.887D+00
 Gap=     0.194 Goal=   None    Shift=    0.000
 RMSDP=1.12D-08 MaxDP=1.59D-07 DE=-1.84D-11 OVMax= 1.83D-07

 Cycle  12  Pass 1  IDiag  1:
 E= -592.990398410195     Delta-E=        0.000000000000 Rises=F Damp=F
 DIIS: error= 8.62D-09 at cycle  12 NSaved=  12.
 NSaved=12 IEnMin=11 EnMin= -592.990398410195     IErMin=12 ErrMin= 8.62D-09
 ErrMax= 8.62D-09  0.00D+00 EMaxC= 1.00D-01 BMatC= 7.88D-15 BMatP= 3.67D-13
 IDIUse=1 WtCom= 1.00D+00 WtEn= 0.00D+00
 Coeff-Com: -0.271D-06 0.353D-06-0.148D-06-0.773D-07-0.141D-05 0.362D-06
 Coeff-Com: -0.849D-05-0.329D-03-0.129D-02 0.203D-02 0.158D+00 0.841D+00
 Coeff:     -0.271D-06 0.353D-06-0.148D-06-0.773D-07-0.141D-05 0.362D-06
 Coeff:     -0.849D-05-0.329D-03-0.129D-02 0.203D-02 0.158D+00 0.841D+00
 Gap=     0.194 Goal=   None    Shift=    0.000
 RMSDP=4.03D-09 MaxDP=7.03D-08 DE= 0.00D+00 OVMax= 5.38D-08

 SCF Done:  E(RB3LYP) =  -592.990398410     A.U. after   12 cycles
            NFock= 12  Conv=0.40D-08     -V/T= 2.0046
 KE= 5.902754191363D+02 PE=-1.629730319502D+03 EE= 3.365787263899D+02
 Leave Link  502 at Sun Oct 13 09:51:15 2024, MaxMem=  2684354560 cpu:              46.5 elap:               2.1
 (Enter /usr/local/g16_AVX//g16/l801.exe)
 DoSCS=F DFT=T ScalE2(SS,OS)=  1.000000  1.000000
 Range of M.O.s used for correlation:     1    98
 NBasis=    98 NAE=    20 NBE=    20 NFC=     0 NFV=     0
 NROrb=     98 NOA=    20 NOB=    20 NVA=    78 NVB=    78

 **** Warning!!: The largest alpha MO coefficient is  0.29121729D+02

 Leave Link  801 at Sun Oct 13 09:51:15 2024, MaxMem=  2684354560 cpu:               0.4 elap:               0.0
 (Enter /usr/local/g16_AVX//g16/l1101.exe)
 Using compressed storage, NAtomX=     7.
 Will process      8 centers per pass.
 Leave Link 1101 at Sun Oct 13 09:51:15 2024, MaxMem=  2684354560 cpu:               3.3 elap:               0.2
 (Enter /usr/local/g16_AVX//g16/l1102.exe)
 Symmetrizing basis deriv contribution to polar:
 IMax=3 JMax=2 DiffMx= 0.00D+00
 Leave Link 1102 at Sun Oct 13 09:51:15 2024, MaxMem=  2684354560 cpu:               0.5 elap:               0.0
 (Enter /usr/local/g16_AVX//g16/l1110.exe)
 Forming Gx(P) for the SCF density, NAtomX=     7.
 Integral derivatives from FoFJK, PRISM(SPDF).
 Do as many integral derivatives as possible in FoFJK.
 G2DrvN: MDV=    2684353864.
 G2DrvN: will do     8 centers at a time, making    1 passes.
 Calling FoFCou, ICntrl=  3107 FMM=F I1Cent=   0 AccDes= 0.00D+00.
 FoFJK:  IHMeth= 1 ICntrl=    3107 DoSepK=F KAlg= 0 I1Cent=           0 FoldK=F
 IRaf=         0 NMat=       1 IRICut=       1 DoRegI=T DoRafI=F ISym2E= 0 IDoP0=0 IntGTp=1.
 FoFCou: FMM=F IPFlag=           0 FMFlag=      100000 FMFlg1=           0
         NFxFlg=           0 DoJE=F BraDBF=F KetDBF=F FulRan=T
         wScrn=  0.000000 ICntrl=      3107 IOpCl=  0 I1Cent=           0 NGrid=           0
         NMat0=    1 NMatS0=      1 NMatT0=    0 NMatD0=    1 NMtDS0=    0 NMtDT0=    0
 Symmetry not used in FoFCou.
 End of G2Drv F.D. properties file   721 does not exist.
 End of G2Drv F.D. properties file   722 does not exist.
 End of G2Drv F.D. properties file   788 does not exist.
 Leave Link 1110 at Sun Oct 13 09:51:18 2024, MaxMem=  2684354560 cpu:              55.7 elap:               2.2
 (Enter /usr/local/g16_AVX//g16/l1002.exe)
 Minotr:  Closed shell wavefunction.
          IDoAtm=1111111
          Direct CPHF calculation.
          Differentiating once with respect to electric field.
                with respect to dipole field.
          Differentiating once with respect to nuclear coordinates.
          Requested convergence is 1.0D-08 RMS, and 1.0D-07 maximum.
          Secondary convergence is 1.0D-12 RMS, and 1.0D-12 maximum.
          NewPWx=T KeepS1=F KeepF1=F KeepIn=T MapXYZ=F SortEE=F KeepMc=T.
         2136 words used for storage of precomputed grid.
 Keep R1 ints in memory in canonical form, NReq=35668397.
 FoFCou: FMM=F IPFlag=           0 FMFlag=           0 FMFlg1=           0
         NFxFlg=           0 DoJE=F BraDBF=F KetDBF=F FulRan=T
         wScrn=  0.000000 ICntrl=       600 IOpCl=  0 I1Cent=           0 NGrid=           0
         NMat0=    1 NMatS0=   4851 NMatT0=    0 NMatD0=    1 NMtDS0=    0 NMtDT0=    0
 Symmetry not used in FoFCou.
 Two-electron integral symmetry not used.
          MDV=    2684354560 using IRadAn=       1.
          Solving linear equations simultaneously, MaxMat=       0.
          There are    24 degrees of freedom in the 1st order CPHF.  IDoFFX=6 NUNeed=     3.
     21 vectors produced by pass  0 Test12= 6.50D-15 4.17D-09 XBig12= 1.17D+02 6.61D+00.
 AX will form    21 AO Fock derivatives at one time.
     21 vectors produced by pass  1 Test12= 6.50D-15 4.17D-09 XBig12= 4.26D+01 1.68D+00.
     21 vectors produced by pass  2 Test12= 6.50D-15 4.17D-09 XBig12= 7.03D-01 2.15D-01.
     21 vectors produced by pass  3 Test12= 6.50D-15 4.17D-09 XBig12= 8.07D-03 1.88D-02.
     21 vectors produced by pass  4 Test12= 6.50D-15 4.17D-09 XBig12= 3.19D-05 1.30D-03.
     17 vectors produced by pass  5 Test12= 6.50D-15 4.17D-09 XBig12= 7.08D-08 6.18D-05.
      6 vectors produced by pass  6 Test12= 6.50D-15 4.17D-09 XBig12= 6.27D-11 2.00D-06.
      1 vectors produced by pass  7 Test12= 6.50D-15 4.17D-09 XBig12= 4.64D-14 4.37D-08.
 InvSVY:  IOpt=1 It=  1 EMax= 4.44D-15
 Solved reduced A of dimension   129 with    24 vectors.
 FullF1:  Do perturbations      1 to       3.
 Isotropic polarizability for W=    0.000000       62.33 Bohr**3.
 End of Minotr F.D. properties file   721 does not exist.
 End of Minotr F.D. properties file   722 does not exist.
 End of Minotr F.D. properties file   788 does not exist.
 Leave Link 1002 at Sun Oct 13 09:51:20 2024, MaxMem=  2684354560 cpu:              67.9 elap:               2.7
 (Enter /usr/local/g16_AVX//g16/l601.exe)
 Copying SCF densities to generalized density rwf, IOpCl= 0 IROHF=0.

 **********************************************************************

            Population analysis using the SCF Density.

 **********************************************************************

 Alpha  occ. eigenvalues -- -101.38157 -14.10896 -10.10348  -9.97485  -9.29693
 Alpha  occ. eigenvalues --   -7.05917  -7.05210  -7.05210  -0.67053  -0.66317
 Alpha  occ. eigenvalues --   -0.53891  -0.30157  -0.30153  -0.24318  -0.19113
 Alpha  occ. eigenvalues --   -0.15762  -0.15761  -0.11147  -0.11147  -0.08179
 Alpha virt. eigenvalues --    0.11258   0.12775   0.14828   0.14828   0.16441
 Alpha virt. eigenvalues --    0.19425   0.20617   0.20617   0.22174   0.22176
 Alpha virt. eigenvalues --    0.24775   0.25015   0.25015   0.26627   0.26651
 Alpha virt. eigenvalues --    0.26651   0.31279   0.34236   0.34239   0.37186
 Alpha virt. eigenvalues --    0.38143   0.38143   0.38162   0.46452   0.47610
 Alpha virt. eigenvalues --    0.70633   0.75474   0.75735   0.75735   0.78952
 Alpha virt. eigenvalues --    0.78954   0.88452   0.88610   0.88611   0.98971
 Alpha virt. eigenvalues --    1.02246   1.02248   1.03681   1.06920   1.06923
 Alpha virt. eigenvalues --    1.09587   1.09593   1.12352   1.18265   1.18265
 Alpha virt. eigenvalues --    1.25403   1.32944   1.35687   1.50109   1.59920
 Alpha virt. eigenvalues --    1.59926   1.76669   1.76669   1.78995   1.78995
 Alpha virt. eigenvalues --    1.82258   2.14447   2.18586   2.18600   2.19001
 Alpha virt. eigenvalues --    2.19004   2.20561   2.55271   2.55286   2.61907
 Alpha virt. eigenvalues --    2.82153   2.82154   2.83797   2.95523   2.95546
 Alpha virt. eigenvalues --    3.26027   3.42161   3.56498   3.56516   4.20928
 Alpha virt. eigenvalues --    4.45827   4.47126   4.55886
          Condensed to atoms (all electrons):
               1          2          3          4          5          6
     1  C    5.476602  -0.172049   0.427783   0.427800   0.427802  -0.204894
     2  Cl  -0.172049  17.561325  -0.050435  -0.050398  -0.050397   0.108409
     3  H    0.427783  -0.050435   0.501233  -0.021959  -0.021959  -0.044353
     4  H    0.427800  -0.050398  -0.021959   0.501172  -0.021918  -0.044407
     5  H    0.427802  -0.050397  -0.021959  -0.021918   0.501171  -0.044410
     6  C   -0.204894   0.108409  -0.044353  -0.044407  -0.044410   5.910166
     7  N   -0.012813  -0.003682  -0.001028  -0.001027  -0.001027   0.696448
               7
     1  C   -0.012813
     2  Cl  -0.003682
     3  H   -0.001028
     4  H   -0.001027
     5  H   -0.001027
     6  C    0.696448
     7  N    6.865360
 Mulliken charges:
               1
     1  C   -0.370231
     2  Cl  -0.342773
     3  H    0.210719
     4  H    0.210737
     5  H    0.210739
     6  C   -0.376958
     7  N   -0.542232
 Sum of Mulliken charges =  -1.00000
 Mulliken charges with hydrogens summed into heavy atoms:
               1
     1  C    0.261963
     2  Cl  -0.342773
     6  C   -0.376958
     7  N   -0.542232
 APT charges:
               1
     1  C    0.952375
     2  Cl  -0.885314
     3  H    0.000287
     4  H    0.000352
     5  H    0.000353
     6  C   -0.424728
     7  N   -0.643325
 Sum of APT charges =  -1.00000
 APT charges with hydrogens summed into heavy atoms:
               1
     1  C    0.953368
     2  Cl  -0.885314
     6  C   -0.424728
     7  N   -0.643325
 Electronic spatial extent (au):  <R**2>=            848.4122
 Charge=             -1.0000 electrons
 Dipole moment (field-independent basis, Debye):
    X=             -7.5936    Y=              0.0000    Z=             -0.0006  Tot=              7.5936
 Quadrupole moment (field-independent basis, Debye-Ang):
   XX=            -88.0483   YY=            -35.3549   ZZ=            -35.3561
   XY=              0.0000   XZ=             -0.0010   YZ=              0.0000
 Traceless Quadrupole moment (field-independent basis, Debye-Ang):
   XX=            -35.1286   YY=             17.5649   ZZ=             17.5637
   XY=              0.0000   XZ=             -0.0010   YZ=              0.0000
 Octapole moment (field-independent basis, Debye-Ang**2):
  XXX=           -155.4977  YYY=             -0.0067  ZZZ=             -0.9647  XYY=             -9.4888
  XXY=              0.0002  XXZ=             -0.0083  XZZ=             -9.4895  YZZ=              0.0067
  YYZ=              0.9662  XYZ=             -0.0000
 Hexadecapole moment (field-independent basis, Debye-Ang**3):
 XXXX=          -1788.2985 YYYY=            -55.6886 ZZZZ=            -55.6878 XXXY=              0.0015
 XXXZ=             -0.0454 YYYX=             -0.0007 YYYZ=              0.0000 ZZZX=             -0.1457
 ZZZY=             -0.0000 XXYY=           -217.8905 XXZZ=           -217.8906 YYZZ=            -18.5636
 XXYZ=             -0.0000 YYXZ=              0.1386 ZZXY=              0.0011
 N-N= 1.098857755652D+02 E-N=-1.629730318477D+03  KE= 5.902754191363D+02
  Exact polarizability: 108.720  -0.000  39.135   0.003   0.000  39.134
 Approx polarizability: 136.348  -0.000  49.115   0.006   0.000  49.113
 No NMR shielding tensors so no spin-rotation constants.
 Leave Link  601 at Sun Oct 13 09:51:21 2024, MaxMem=  2684354560 cpu:               2.6 elap:               0.1
 (Enter /usr/local/g16_AVX//g16/l701.exe)
 ... and contract with generalized density number  0.
 Compute integral second derivatives.
 Leave Link  701 at Sun Oct 13 09:51:21 2024, MaxMem=  2684354560 cpu:               4.3 elap:               0.2
 (Enter /usr/local/g16_AVX//g16/l702.exe)
 L702 exits ... SP integral derivatives will be done elsewhere.
 Leave Link  702 at Sun Oct 13 09:51:21 2024, MaxMem=  2684354560 cpu:               0.4 elap:               0.0
 (Enter /usr/local/g16_AVX//g16/l703.exe)
 Integral derivatives from FoFJK, PRISM(SPDF).
 Compute integral second derivatives, UseDBF=F ICtDFT=           0.
 Calling FoFJK, ICntrl=    100127 FMM=F ISym2X=0 I1Cent= 0 IOpClX= 0 NMat=1 NMatS=1 NMatT=0.
 FoFJK:  IHMeth= 1 ICntrl=  100127 DoSepK=F KAlg= 0 I1Cent=           0 FoldK=F
 IRaf=         0 NMat=       1 IRICut=       1 DoRegI=T DoRafI=F ISym2E= 0 IDoP0=0 IntGTp=1.
 FoFCou: FMM=F IPFlag=           0 FMFlag=      100000 FMFlg1=         800
         NFxFlg=           0 DoJE=F BraDBF=F KetDBF=F FulRan=T
         wScrn=  0.000000 ICntrl=    100127 IOpCl=  0 I1Cent=           0 NGrid=           0
         NMat0=    1 NMatS0=      1 NMatT0=    0 NMatD0=    1 NMtDS0=    0 NMtDT0=    0
 Symmetry not used in FoFCou.
 Leave Link  703 at Sun Oct 13 09:51:25 2024, MaxMem=  2684354560 cpu:              99.1 elap:               3.9
 (Enter /usr/local/g16_AVX//g16/l716.exe)
 Dipole        =-2.98755205D+00 6.97863516D-06-2.17153177D-04
 Polarizability= 1.08720040D+02-8.29521554D-05 3.91345361D+01
                 3.28927515D-03 1.63926999D-06 3.91343490D+01
 Full mass-weighted force constant matrix:
 Low frequencies ---  -79.3986  -79.3939  -27.5553  -27.5466   -0.0066   -0.0063
 Low frequencies ---   -0.0056   85.1469  115.2870
 ******    2 imaginary frequencies (negative Signs) ****** 
 Diagonal vibrational polarizability:
     1993.0522240      10.1112677      10.1136343
 Harmonic frequencies (cm**-1), IR intensities (KM/Mole), Raman scattering
 activities (A**4/AMU), depolarization ratios for plane and unpolarized
 incident light, reduced masses (AMU), force constants (mDyne/A),
 and normal coordinates:
                      1                      2                      3
                      A                      A                      A
 Frequencies --    -78.4880               -78.4843                85.1469
 Red. masses --      9.6976                 9.6964                10.0764
 Frc consts  --      0.0352                 0.0352                 0.0430
 IR Inten    --      0.4417                 0.4420               517.3278
  Atom  AN      X      Y      Z        X      Y      Z        X      Y      Z
     1   6    -0.00   0.23  -0.02     0.00   0.02   0.23     0.67  -0.00   0.00
     2  17     0.00  -0.11   0.01    -0.00  -0.01  -0.11     0.05   0.00  -0.00
     3   1    -0.01   0.28  -0.02     0.18   0.02   0.27     0.25   0.00  -0.08
     4   1    -0.15   0.28  -0.02    -0.10   0.02   0.28     0.25   0.07   0.04
     5   1     0.17   0.28  -0.02    -0.08   0.02   0.28     0.25  -0.07   0.04
     6   6     0.00   0.62  -0.04    -0.00   0.04   0.62    -0.40   0.00  -0.00
     7   7    -0.00  -0.52   0.04     0.00  -0.04  -0.52    -0.41   0.00  -0.00
                      4                      5                      6
                      A                      A                      A
 Frequencies --    208.8770               208.8951               285.9055
 Red. masses --      4.1650                 4.1649                17.6071
 Frc consts  --      0.1071                 0.1071                 0.8480
 IR Inten    --     13.1438                13.1444               217.3522
  Atom  AN      X      Y      Z        X      Y      Z        X      Y      Z
     1   6    -0.00  -0.01   0.43     0.00   0.43   0.01    -0.61  -0.00   0.00
     2  17    -0.00   0.00  -0.10     0.00  -0.10  -0.00     0.51   0.00  -0.00
     3   1     0.18  -0.01   0.49     0.00   0.47   0.01    -0.09  -0.00   0.11
     4   1    -0.09  -0.01   0.47    -0.16   0.48   0.02    -0.09  -0.09  -0.05
     5   1    -0.10  -0.02   0.47     0.16   0.48   0.01    -0.09   0.09  -0.05
     6   6     0.00   0.01  -0.27    -0.00  -0.27  -0.01    -0.39   0.00   0.00
     7   7     0.00  -0.00   0.01    -0.00   0.01   0.00    -0.39   0.00  -0.00
                      7                      8                      9
                      A                      A                      A
 Frequencies --    989.1351               989.1907              1193.0596
 Red. masses --      1.0785                 1.0785                 1.0625
 Frc consts  --      0.6217                 0.6218                 0.8910
 IR Inten    --      0.0270                 0.0268                61.4894
  Atom  AN      X      Y      Z        X      Y      Z        X      Y      Z
     1   6    -0.00   0.00  -0.07     0.00   0.07   0.00    -0.06   0.00   0.00
     2  17    -0.00  -0.00   0.02     0.00  -0.02  -0.00    -0.02  -0.00   0.00
     3   1     0.79  -0.01   0.11    -0.04  -0.17  -0.01     0.56  -0.00   0.12
     4   1    -0.36  -0.03   0.15     0.70  -0.12   0.02     0.56  -0.11  -0.06
     5   1    -0.43   0.02   0.15    -0.66  -0.12  -0.03     0.56   0.11  -0.06
     6   6     0.00   0.00  -0.01    -0.00   0.01   0.00    -0.01  -0.00   0.00
     7   7     0.00  -0.00   0.00    -0.00  -0.00  -0.00    -0.01   0.00  -0.00
                     10                     11                     12
                      A                      A                      A
 Frequencies --   1433.6798              1433.8242              2171.7647
 Red. masses --      1.0798                 1.0798                12.7900
 Frc consts  --      1.3077                 1.3079                35.5423
 IR Inten    --      5.6775                 5.6714                 9.2487
  Atom  AN      X      Y      Z        X      Y      Z        X      Y      Z
     1   6    -0.00  -0.00  -0.08    -0.00  -0.08   0.00    -0.00   0.00   0.00
     2  17     0.00  -0.00  -0.00    -0.00  -0.00   0.00    -0.00   0.00   0.00
     3   1    -0.21   0.01  -0.11     0.00   0.78   0.00    -0.03   0.00  -0.01
     4   1     0.11  -0.39   0.55     0.18   0.11  -0.39    -0.03   0.01   0.00
     5   1     0.10   0.38   0.56    -0.18   0.11   0.38    -0.03  -0.01   0.00
     6   6    -0.00  -0.00  -0.00    -0.00  -0.00   0.00     0.76  -0.00   0.00
     7   7    -0.00   0.00   0.00     0.00   0.00  -0.00    -0.64   0.00  -0.00
                     13                     14                     15
                      A                      A                      A
 Frequencies --   3161.5163              3324.3804              3324.4697
 Red. masses --      1.0167                 1.1175                 1.1175
 Frc consts  --      5.9871                 7.2767                 7.2769
 IR Inten    --      4.6629                 0.1816                 0.1785
  Atom  AN      X      Y      Z        X      Y      Z        X      Y      Z
     1   6     0.03  -0.00   0.00    -0.00  -0.10   0.00     0.00  -0.00  -0.10
     2  17    -0.00   0.00  -0.00     0.00   0.00  -0.00    -0.00   0.00   0.00
     3   1    -0.11  -0.00   0.57     0.01  -0.02  -0.03    -0.18  -0.00   0.79
     4   1    -0.11  -0.49  -0.28     0.15   0.57   0.34     0.10   0.37   0.20
     5   1    -0.11   0.49  -0.28    -0.16   0.60  -0.36     0.08  -0.33   0.17
     6   6     0.00   0.00  -0.00    -0.00   0.00  -0.00     0.00   0.00   0.00
     7   7     0.00  -0.00   0.00    -0.00  -0.00   0.00     0.00  -0.00  -0.00

 -------------------
 - Thermochemistry -
 -------------------
 Temperature   298.150 Kelvin.  Pressure   1.00000 Atm.
 Atom     1 has atomic number  6 and mass  12.00000
 Atom     2 has atomic number 17 and mass  34.96885
 Atom     3 has atomic number  1 and mass   1.00783
 Atom     4 has atomic number  1 and mass   1.00783
 Atom     5 has atomic number  1 and mass   1.00783
 Atom     6 has atomic number  6 and mass  12.00000
 Atom     7 has atomic number  7 and mass  14.00307
 Molecular mass:    75.99540 amu.
 Principal axes and moments of inertia in atomic units:
                           1         2         3
     Eigenvalues --    11.936231459.415541459.41784
           X            1.00000   0.00000  -0.00001
           Y           -0.00000   0.99999  -0.00398
           Z            0.00001   0.00398   0.99999
 This molecule is an asymmetric top.
 Rotational symmetry number  1.
 Rotational temperatures (Kelvin)      7.25639     0.05935     0.05935
 Rotational constants (GHZ):         151.19853     1.23662     1.23662
    2 imaginary frequencies ignored.
 Zero-point vibrational energy     112507.9 (Joules/Mol)
                                   26.89002 (Kcal/Mol)
 Warning -- explicit consideration of   4 degrees of freedom as
           vibrations may cause significant error
 Vibrational temperatures:    122.51   300.53   300.55   411.35  1423.14
          (Kelvin)           1423.22  1716.55  2062.75  2062.95  3124.68
                             4548.72  4783.04  4783.17
 
 Zero-point correction=                           0.042852 (Hartree/Particle)
 Thermal correction to Energy=                    0.048087
 Thermal correction to Enthalpy=                  0.049031
 Thermal correction to Gibbs Free Energy=         0.014210
 Sum of electronic and zero-point Energies=           -592.947546
 Sum of electronic and thermal Energies=              -592.942311
 Sum of electronic and thermal Enthalpies=            -592.941367
 Sum of electronic and thermal Free Energies=         -592.976189
 
                     E (Thermal)             CV                S
                      KCal/Mol        Cal/Mol-Kelvin    Cal/Mol-Kelvin
 Total                   30.175             14.458             73.288
 Electronic               0.000              0.000              0.000
 Translational            0.889              2.981             38.900
 Rotational               0.889              2.981             24.745
 Vibrational             28.398              8.496              9.643
 Vibration     1          0.601              1.959              3.769
 Vibration     2          0.642              1.827              2.053
 Vibration     3          0.642              1.827              2.053
 Vibration     4          0.684              1.700              1.498
                       Q            Log10(Q)             Ln(Q)
 Total Bot       0.291008D-06         -6.536095        -15.049915
 Total V=0       0.149427D+14         13.174430         30.335246
 Vib (Bot)       0.195799D-18        -18.708189        -43.077196
 Vib (Bot)    1  0.241669D+01          0.383222          0.882401
 Vib (Bot)    2  0.951302D+00         -0.021682         -0.049924
 Vib (Bot)    3  0.951213D+00         -0.021722         -0.050017
 Vib (Bot)    4  0.670353D+00         -0.173696         -0.399951
 Vib (V=0)       0.100539D+02          1.002336          2.307965
 Vib (V=0)    1  0.296788D+01          0.472446          1.087847
 Vib (V=0)    2  0.157470D+01          0.197197          0.454064
 Vib (V=0)    3  0.157462D+01          0.197176          0.454013
 Vib (V=0)    4  0.133629D+01          0.125899          0.289894
 Electronic      0.100000D+01          0.000000          0.000000
 Translational   0.260396D+08          7.415635         17.075130
 Rotational      0.570767D+05          4.756459         10.952151
 
                                                       RxCoord=1.39967 DE=51.20
                                                             IR Spectrum
 
      3     3                                     2                           1        1                                             
      3     1                                     1                           4        1       9                          2  2       
      2     6                                     7                           3        9       8                          8  0   8   
      4     2                                     2                           4        3       9                          6  9   5   
 
      X     X                                     X                           X        X       X                          X  X   X   
                                                                                       X                                  X      X   
                                                                                                                          X      X   
                                                                                                                          X      X   
                                                                                                                          X      X   
                                                                                                                          X      X   
                                                                                                                          X      X   
                                                                                                                          X      X   
                                                                                                                                 X   
                                                                                                                                 X   
                                                                                                                                 X   
                                                                                                                                 X   
                                                                                                                                 X   
                                                                                                                                 X   
                                                                                                                                 X   
                                                                                                                                 X   
                                                                                                                                 X   
                                                                                                                                 X   
                                                                                                                                 X   
                                                                                                                                 X   
 
 -------------------------------------------------------------------
 Center     Atomic                   Forces (Hartrees/Bohr)
 Number     Number              X              Y              Z
 -------------------------------------------------------------------
      1        6          -0.012068145   -0.000000591   -0.000017374
      2       17           0.002437187   -0.000000122    0.000007657
      3        1           0.000198977   -0.000002205    0.000987360
      4        1           0.000178710   -0.000887264   -0.000488757
      5        1           0.000177903    0.000890056   -0.000484833
      6        6           0.003461797    0.000000185   -0.000006187
      7        7           0.005613571   -0.000000059    0.000002135
 -------------------------------------------------------------------
 Cartesian Forces:  Max     0.012068145 RMS     0.003072211
 Z-matrix is all fixed cartesians, so copy forces.
 Force constants in Cartesian coordinates: 
                1             2             3             4             5 
      1  0.778347D-01
      2 -0.289053D-05  0.643354D+00
      3  0.106561D-03  0.151562D-05  0.643256D+00
      4  0.365889D-02  0.000000D+00  0.000000D+00  0.865822D-01
      5  0.000000D+00 -0.300728D-01  0.000000D+00  0.000000D+00  0.168836D-01
      6  0.000000D+00  0.000000D+00 -0.300674D-01 -0.160484D-04  0.000000D+00
      7 -0.339341D-01 -0.165260D-03  0.713307D-01 -0.224582D-01 -0.343148D-04
      8 -0.156310D-03 -0.512360D-01  0.698717D-03  0.132094D-04  0.385869D-03
      9  0.675407D-01  0.698650D-03 -0.352814D+00 -0.575637D-02 -0.142365D-04
     10 -0.339868D-01 -0.617980D-01 -0.358615D-01 -0.224497D-01 -0.127696D-01
     11 -0.585146D-01 -0.276787D+00 -0.130864D+00  0.498422D-02  0.498792D-02
     12 -0.339603D-01 -0.130856D+00 -0.127161D+00  0.289732D-02  0.267284D-02
     13 -0.339881D-01  0.619662D-01 -0.355772D-01 -0.224494D-01  0.128034D-01
     14  0.586741D-01 -0.277992D+00  0.130164D+00 -0.499793D-02  0.501273D-02
     15 -0.336911D-01  0.130155D+00 -0.125951D+00  0.287431D-02 -0.265857D-02
     16  0.617542D-02  0.000000D+00  0.210200D-05 -0.129831D-01  0.000000D+00
     17  0.000000D+00 -0.943174D-02  0.000000D+00  0.000000D+00  0.338112D-02
     18 -0.229995D-05  0.000000D+00 -0.942763D-02  0.507727D-05  0.000000D+00
     19  0.142400D-01  0.000000D+00 -0.149793D-05 -0.990077D-02  0.000000D+00
     20  0.000000D+00  0.216585D-02  0.000000D+00  0.000000D+00 -0.578448D-03
     21  0.602978D-05  0.000000D+00  0.216525D-02 -0.503439D-05  0.000000D+00
                6             7             8             9            10 
      6  0.168844D-01
      7  0.147740D-01  0.582797D-01
      8 -0.140787D-04  0.161735D-03  0.457037D-01
      9  0.653517D-02 -0.698107D-01 -0.732596D-03  0.361879D+00
     10 -0.740919D-02  0.271209D-02  0.528531D-02  0.374672D-02  0.583363D-01
     11  0.267014D-02 -0.572573D-03  0.321717D-02  0.323878D-02  0.604799D-01
     12  0.193520D-02 -0.646276D-02 -0.242386D-01 -0.903219D-02  0.350938D-01
     13 -0.734995D-02  0.271224D-02 -0.530259D-02  0.372236D-02  0.271190D-02
     14 -0.265601D-02  0.602604D-03  0.311947D-02 -0.318233D-02  0.588474D-02
     15  0.191056D-02 -0.646033D-02  0.242948D-01 -0.893474D-02  0.273695D-02
     16  0.000000D+00 -0.660786D-02  0.000000D+00 -0.480663D-04 -0.661895D-02
     17  0.000000D+00  0.884321D-05 -0.156934D-02 -0.108985D-04  0.330473D-02
     18  0.338036D-02 -0.381797D-02 -0.109175D-04  0.312616D-02  0.191856D-02
     19  0.000000D+00 -0.703935D-03 -0.141143D-05  0.605321D-03 -0.704949D-03
     20  0.000000D+00 -0.103322D-05  0.379120D-03  0.263023D-05 -0.387123D-03
     21 -0.578346D-03  0.447009D-03  0.264322D-05 -0.759672D-03 -0.225321D-03
               11            12            13            14            15 
     11  0.282157D+00
     12  0.137202D+00  0.125307D+00
     13 -0.589713D-02  0.270953D-02  0.583376D-01
     14 -0.150458D-01  0.136772D-01 -0.606445D-01  0.283421D+00
     15 -0.137896D-01  0.924553D-02  0.348155D-01 -0.136468D+00  0.124039D+00
     16  0.434866D-04  0.259725D-04 -0.661931D-02 -0.437020D-04  0.257921D-04
     17  0.194356D-02  0.203690D-02 -0.331357D-02  0.196241D-02 -0.202608D-02
     18  0.203779D-02 -0.387117D-03  0.190326D-02 -0.202693D-02 -0.405842D-03
     19 -0.523324D-03 -0.303527D-03 -0.704970D-03  0.524721D-03 -0.301102D-03
     20 -0.473110D-03 -0.494393D-03  0.388188D-03 -0.477696D-03  0.491769D-03
     21 -0.494733D-03  0.920641D-04 -0.223532D-03  0.492093D-03  0.966345D-04
               16            17            18            19            20 
     16  0.117254D+01
     17 -0.949706D-05  0.294027D-02
     18  0.376153D-03  0.000000D+00  0.294105D-02
     19 -0.114589D+01  0.973385D-05 -0.382778D-03  0.114366D+01
     20  0.969319D-05  0.773724D-03  0.000000D+00 -0.972347D-05 -0.178944D-02
     21 -0.381920D-03  0.000000D+00  0.773019D-03  0.382768D-03  0.000000D+00
               21 
     21 -0.178895D-02
 Leave Link  716 at Sun Oct 13 09:51:25 2024, MaxMem=  2684354560 cpu:               0.6 elap:               0.1
 (Enter /usr/local/g16_AVX//g16/l103.exe)

 GradGradGradGradGradGradGradGradGradGradGradGradGradGradGradGradGradGrad
 Berny optimization.
 Search for a local minimum.
 Step number   1 out of a maximum of    2
 All quantities printed in internal units (Hartrees-Bohrs-Radians)
 Second derivative matrix not updated -- analytic derivatives used.
 ITU=  0
     Eigenvalues ---   -0.00260  -0.00260   0.00287   0.00932   0.00932
     Eigenvalues ---    0.05073   0.05073   0.05961   0.09681   0.10797
     Eigenvalues ---    0.10798   0.42130   0.94506   0.94513   2.30311
 Eigenvalue     1 is  -2.60D-03 should be greater than     0.000000 Eigenvector:
                          Y6        Y7        Y2        Y3        Y4
   1                    0.63374  -0.61493  -0.20445   0.19019   0.18600
                          Y5        X5        X4        Y1        Z6
   1                    0.18576   0.16274  -0.15496   0.14518  -0.02534
 Eigenvalue     2 is  -2.60D-03 should be greater than     0.000000 Eigenvector:
                          Z6        Z7        Z2        Z5        Z4
   1                    0.63368  -0.61491  -0.20447   0.18911   0.18884
                          Z3        X3        Z1        X4        X5
   1                    0.18412   0.18344   0.14521  -0.09850  -0.08506
 Quadratic step=4.192D+00 exceeds max=3.000D-01 adjusted using Lamda=-3.819D-02.
 Angle between NR and scaled steps=  11.40 degrees.
 Angle between quadratic step and forces=  19.88 degrees.
 Linear search not attempted -- first point.
 B after Tr=     0.014321   -0.000000    0.000005
         Rot=    1.000000    0.000000   -0.000002   -0.000000 Ang=  -0.00 deg.
 Variable       Old X    -DE/DX   Delta X   Delta X   Delta X     New X
                                 (Linear)    (Quad)   (Total)
    X1       -0.34095  -0.01207   0.00000  -0.22898  -0.21466  -0.55561
    Y1        0.00001  -0.00000   0.00000  -0.00000  -0.00000   0.00001
    Z1       -0.00032  -0.00002   0.00000  -0.00010  -0.00009  -0.00041
    X2       -4.10038   0.00244   0.00000   0.02084   0.03516  -4.06522
    Y2       -0.00000  -0.00000   0.00000  -0.00000  -0.00000  -0.00000
    Z2        0.00008   0.00001   0.00000   0.00004   0.00007   0.00015
    X3        0.12677   0.00020   0.00000  -0.04287  -0.02856   0.09821
    Y3        0.00462  -0.00000   0.00000  -0.00008  -0.00008   0.00454
    Z3       -1.98733   0.00099   0.00000   0.03421   0.03421  -1.95312
    X4        0.12760   0.00018   0.00000  -0.04310  -0.02877   0.09883
    Y4        1.71860  -0.00089   0.00000  -0.02984  -0.02984   1.68876
    Z4        0.99674  -0.00049   0.00000  -0.01715  -0.01714   0.97960
    X5        0.12763   0.00018   0.00000  -0.04310  -0.02878   0.09885
    Y5       -1.72317   0.00089   0.00000   0.02992   0.02992  -1.69325
    Z5        0.98877  -0.00048   0.00000  -0.01701  -0.01700   0.97177
    X6        4.45820   0.00346   0.00000   0.11677   0.13110   4.58930
    Y6        0.00001   0.00000   0.00000   0.00000   0.00000   0.00001
    Z6       -0.00030  -0.00001   0.00000  -0.00008  -0.00009  -0.00039
    X7        6.68380   0.00561   0.00000   0.12019   0.13451   6.81831
    Y7       -0.00001  -0.00000   0.00000  -0.00000  -0.00000  -0.00001
    Z7        0.00045   0.00000   0.00000   0.00008   0.00006   0.00050
         Item               Value     Threshold  Converged?
 Maximum Force            0.012068     0.000450     NO 
 RMS     Force            0.003072     0.000300     NO 
 Maximum Displacement     0.214664     0.001800     NO 
 RMS     Displacement     0.064957     0.001200     NO 
 Predicted change in Energy=-3.705850D-03
 GradGradGradGradGradGradGradGradGradGradGradGradGradGradGradGradGradGrad

 Leave Link  103 at Sun Oct 13 09:51:25 2024, MaxMem=  2684354560 cpu:               0.6 elap:               0.1
 (Enter /usr/local/g16_AVX//g16/l9999.exe)

 ----------------------------------------------------------------------

 Electric dipole moment (input orientation):
 (Debye = 10**-18 statcoulomb cm , SI units = C m)
                  (au)            (Debye)         (10**-30 SI)
   Tot        0.298755D+01      0.759360D+01      0.253295D+02
   x         -0.298755D+01     -0.759360D+01     -0.253295D+02
   y          0.000000D+00      0.000000D+00      0.000000D+00
   z         -0.217153D-03     -0.551948D-03     -0.184110D-02

 Dipole polarizability, Alpha (input orientation).
 (esu units = cm**3 , SI units = C**2 m**2 J**-1)
 Alpha(0;0):
               (au)            (10**-24 esu)      (10**-40 SI)
   iso        0.623296D+02      0.923630D+01      0.102768D+02
   aniso      0.695856D+02      0.103115D+02      0.114731D+02
   xx         0.108720D+03      0.161106D+02      0.179255D+02
   yx        -0.829522D-04     -0.122922D-04     -0.136770D-04
   yy         0.391345D+02      0.579914D+01      0.645241D+01
   zx         0.328928D-02      0.487420D-03      0.542328D-03
   zy         0.000000D+00      0.000000D+00      0.000000D+00
   zz         0.391343D+02      0.579911D+01      0.645238D+01

 ----------------------------------------------------------------------

 Dipole orientation:
     6         -0.00029080          0.00001243          0.34094819
    17          0.00038119         -0.00001147          4.10038442
     1         -1.98733590          0.00462154         -0.12662404
     1          0.99673834          1.71859806         -0.12766841
     1          0.98875754         -1.72317145         -0.12770233
     6         -0.00062263          0.00001608         -4.45820405
     7         -0.00003984          0.00000238         -6.68379502

 Electric dipole moment (dipole orientation):
 (Debye = 10**-18 statcoulomb cm , SI units = C m)
                  (au)            (Debye)         (10**-30 SI)
   Tot        0.298755D+01      0.759360D+01      0.253295D+02
   x          0.000000D+00      0.000000D+00      0.000000D+00
   y          0.000000D+00      0.000000D+00      0.000000D+00
   z          0.298755D+01      0.759360D+01      0.253295D+02

 Dipole polarizability, Alpha (dipole orientation).
 (esu units = cm**3 , SI units = C**2 m**2 J**-1)
 Alpha(0;0):
               (au)            (10**-24 esu)      (10**-40 SI)
   iso        0.623296D+02      0.923630D+01      0.102768D+02
   aniso      0.695856D+02      0.103115D+02      0.114731D+02
   xx         0.391343D+02      0.579911D+01      0.645238D+01
   yx         0.000000D+00      0.000000D+00      0.000000D+00
   yy         0.391345D+02      0.579914D+01      0.645241D+01
   zx         0.176863D-02      0.262084D-03      0.291608D-03
   zy        -0.795972D-04     -0.117951D-04     -0.131238D-04
   zz         0.108720D+03      0.161106D+02      0.179255D+02

 ----------------------------------------------------------------------
 1\1\GINC-NODO11\Freq\RB3LYP\6-31++G(d,p)\C2H3Cl1N1(1-)\ALANQF\13-Oct-2
 024\0\\#p b3lyp 6-31++g(d,p) scf=verytight NoSymm freq=noraman int=ult
 rafine\\RxCoord=1.39967 DE=51.20\\-1,1\C,-0.180422,0.000007,-0.000167\
 Cl,-2.16983,-0.000001,0.000044\H,0.067083,0.002443,-1.051648\H,0.06752
 3,0.909444,0.527454\H,0.067537,-0.911862,0.523235\C,2.35918,0.000003,-
 0.000158\N,3.536912,-0.000007,0.000236\\Version=ES64L-G16RevB.01\HF=-5
 92.9903984\RMSD=4.028e-09\RMSF=3.072e-03\ZeroPoint=0.042852\Thermal=0.
 0480872\Dipole=-2.9320249,0.0000079,-0.0002418\DipoleDeriv=2.7133291,0
 .000004,-0.0001253,0.0000091,0.0718646,0.0000003,-0.0003006,0.0000002,
 0.0719324,-1.8696657,-0.000002,0.0000815,-0.0000039,-0.393144,0.,0.000
 078,0.,-0.3931334,-0.0914218,0.0000136,-0.0060762,0.0000504,0.0735165,
 0.0001267,-0.0224102,0.0001269,0.018767,-0.0913484,0.0052694,0.0030607
 ,0.0194843,0.0326435,-0.0237435,0.0113582,-0.0237153,0.0597601,-0.0913
 447,-0.0052843,0.0030361,-0.0195411,0.0324249,0.0236166,0.0112688,0.02
 35883,0.0599798,-0.4760545,-0.0000034,0.0001133,-0.0000061,-0.3990621,
 -0.0000002,0.000302,-0.0000002,-0.3990688,-1.093494,0.0000028,-0.00009
 02,0.0000072,-0.4182434,0.,-0.0002961,0.,-0.418237\Polar=108.7200404,-
 0.000083,39.1345361,0.0032893,0.0000016,39.134349\Quadrupole=-26.11721
 82,13.0590503,13.0581679,0.0000289,-0.0007712,0.000003\PG=C01 [X(C2H3C
 l1N1)]\NImag=2\\0.07783467,-0.00000289,0.64335413,0.00010656,0.0000015
 2,0.64325604,0.00365889,-0.00000001,0.00000074,0.08658215,0.,-0.030072
 81,0.,0.00000048,0.01688362,0.00000043,-0.00000001,-0.03006735,-0.0000
 1605,-0.00000003,0.01688441,-0.03393411,-0.00016526,0.07133074,-0.0224
 5817,-0.00003431,0.01477398,0.05827974,-0.00015631,-0.05123604,0.00069
 872,0.00001321,0.00038587,-0.00001408,0.00016173,0.04570375,0.06754071
 ,0.00069865,-0.35281408,-0.00575637,-0.00001424,0.00653517,-0.06981068
 ,-0.00073260,0.36187934,-0.03398678,-0.06179798,-0.03586149,-0.0224496
 6,-0.01276959,-0.00740919,0.00271209,0.00528531,0.00374672,0.05833634,
 -0.05851460,-0.27678706,-0.13086404,0.00498422,0.00498792,0.00267014,-
 0.00057257,0.00321717,0.00323878,0.06047992,0.28215728,-0.03396031,-0.
 13085556,-0.12716095,0.00289732,0.00267284,0.00193520,-0.00646276,-0.0
 2423858,-0.00903219,0.03509377,0.13720165,0.12530747,-0.03398811,0.061
 96616,-0.03557716,-0.02244940,0.01280345,-0.00734995,0.00271224,-0.005
 30259,0.00372236,0.00271190,-0.00589713,0.00270953,0.05833765,0.058674
 08,-0.27799234,0.13016378,-0.00499793,0.00501273,-0.00265601,0.0006026
 0,0.00311947,-0.00318233,0.00588474,-0.01504576,0.01367716,-0.06064451
 ,0.28342119,-0.03369112,0.13015539,-0.12595128,0.00287431,-0.00265857,
 0.00191056,-0.00646033,0.02429482,-0.00893474,0.00273695,-0.01378957,0
 .00924553,0.03481549,-0.13646776,0.12403913,0.00617542,-0.00000005,0.0
 0000210,-0.01298305,0.,-0.00000003,-0.00660786,0.00000006,-0.00004807,
 -0.00661895,0.00004349,0.00002597,-0.00661931,-0.00004370,0.00002579,1
 .17254368,-0.00000016,-0.00943174,0.00000004,-0.00000008,0.00338112,-0
 .00000001,0.00000884,-0.00156934,-0.00001090,0.00330473,0.00194356,0.0
 0203690,-0.00331357,0.00196241,-0.00202608,-0.00000950,0.00294027,-0.0
 0000230,0.00000003,-0.00942763,0.00000508,-0.00000001,0.00338036,-0.00
 381797,-0.00001092,0.00312616,0.00191856,0.00203779,-0.00038712,0.0019
 0326,-0.00202693,-0.00040584,0.00037615,0.00000004,0.00294105,0.014240
 02,0.00000003,-0.00000150,-0.00990077,-0.00000003,0.00000082,-0.000703
 94,-0.00000141,0.00060532,-0.00070495,-0.00052332,-0.00030353,-0.00070
 497,0.00052472,-0.00030110,-1.14588994,0.00000973,-0.00038278,1.143664
 55,-0.00000012,0.00216585,-0.00000001,0.00000012,-0.00057845,0.,-0.000
 00103,0.00037912,0.00000263,-0.00038712,-0.00047311,-0.00049439,0.0003
 8819,-0.00047770,0.00049177,0.00000969,0.00077372,0.,-0.00000972,-0.00
 178944,0.00000603,0.,0.00216525,-0.00000503,0.,-0.00057835,0.00044701,
 0.00000264,-0.00075967,-0.00022532,-0.00049473,0.00009206,-0.00022353,
 0.00049209,0.00009663,-0.00038192,0.,0.00077302,0.00038277,0.,-0.00178
 895\\0.01206815,0.00000059,0.00001737,-0.00243719,0.00000012,-0.000007
 66,-0.00019898,0.00000220,-0.00098736,-0.00017871,0.00088726,0.0004887
 6,-0.00017790,-0.00089006,0.00048483,-0.00346180,-0.00000018,0.0000061
 9,-0.00561357,0.00000006,-0.00000213\\\@


 FORGIVE MY NONSENSE AS I ALSO FORGIVE THOSE WHO THINK THEY TALK SENSE

                                                       -- ROBERT FROST
 Job cpu time:       0 days  0 hours  4 minutes 57.8 seconds.
 Elapsed time:       0 days  0 hours  0 minutes 12.4 seconds.
 File lengths (MBytes):  RWF=     88 Int=      0 D2E=      0 Chk=      2 Scr=      2
 Normal termination of Gaussian 16 at Sun Oct 13 09:51:25 2024.
