RxCoord=1.39967 DE=51.20                                                
Freq      RB3LYP                                                      6-31++G(d,p)        
Number of atoms                            I                7
Info1-9                                    I   N=           9
          16          16           0           0           0         100
           6          18        -502
Full Title                                 C   N=           2
RxCoord=1.39967 DE=51.20
Route                                      C   N=           6
#p b3lyp 6-31++g(d,p) scf=verytight NoSymm freq=noraman int=
ultrafine   
Charge                                     I               -1
Multiplicity                               I                1
Number of electrons                        I               40
Number of alpha electrons                  I               20
Number of beta electrons                   I               20
Number of basis functions                  I               98
Number of independent functions            I               98
Number of point charges in /Mol/           I                0
Number of translation vectors              I                0
Atomic numbers                             I   N=           7
           6          17           1           1           1           6
           7
Nuclear charges                            R   N=           7
  6.00000000E+00  1.70000000E+01  1.00000000E+00  1.00000000E+00  1.00000000E+00
  6.00000000E+00  7.00000000E+00
Current cartesian coordinates              R   N=          21
 -3.40948167E-01  1.32280829E-05 -3.15584263E-04 -4.10038444E+00 -1.88972612E-06
  8.31479495E-05  1.26768498E-01  4.61660092E-03 -1.98732670E+00  1.27599977E-01
  1.71860009E+00  9.96743603E-01  1.27626433E-01 -1.72316944E+00  9.88770849E-01
  4.45820408E+00  5.66917837E-06 -2.98576728E-04  6.68379501E+00 -1.32280829E-05
  4.45975365E-04
Number of symbols in /Mol/                 I                0
Force Field                                I                0
Atom Types                                 C   N=           7
                                                            
                        
Int Atom Types                             I   N=           7
           0           0           0           0           0           0
           0
MM charges                                 R   N=           7
  0.00000000E+00  0.00000000E+00  0.00000000E+00  0.00000000E+00  0.00000000E+00
  0.00000000E+00  0.00000000E+00
Integer atomic weights                     I   N=           7
          12          35           1           1           1          12
          14
Real atomic weights                        R   N=           7
  1.20000000E+01  3.49688527E+01  1.00782504E+00  1.00782504E+00  1.00782504E+00
  1.20000000E+01  1.40030740E+01
Atom fragment info                         I   N=           7
           0           0           0           0           0           0
           0
Atom residue num                           I   N=           7
           0           0           0           0           0           0
           0
Nuclear spins                              I   N=           7
           0           3           1           1           1           0
           2
Nuclear ZEff                               R   N=           7
 -3.60000000E+00 -1.42400000E+01 -1.00000000E+00 -1.00000000E+00 -1.00000000E+00
 -3.60000000E+00 -4.55000000E+00
Nuclear ZNuc                               R   N=           7
  6.00000000E+00  1.70000000E+01  1.00000000E+00  1.00000000E+00  1.00000000E+00
  6.00000000E+00  7.00000000E+00
Nuclear QMom                               R   N=           7
  0.00000000E+00 -8.16500000E+00  0.00000000E+00  0.00000000E+00  0.00000000E+00
  0.00000000E+00  2.04400000E+00
Nuclear GFac                               R   N=           7
  0.00000000E+00  8.21874000E-01  2.79284600E+00  2.79284600E+00  2.79284600E+00
  0.00000000E+00  4.03761000E-01
MicOpt                                     I   N=           7
          -1          -1          -1          -1          -1          -1
          -1
Number of residues                         I                0
Number of secondary structures             I                0
Number of contracted shells                I               33
Number of primitive shells                 I               72
Pure/Cartesian d shells                    I                1
Pure/Cartesian f shells                    I                0
Highest angular momentum                   I                2
Largest degree of contraction              I                6
Shell types                                I   N=          33
           0          -1          -1          -1           2           0
          -1          -1          -1          -1           2           0
           0           0           1           0           0           0
           1           0           0           0           1           0
          -1          -1          -1           2           0          -1
          -1          -1           2
Number of primitives per shell             I   N=          33
           6           3           1           1           1           6
           6           3           1           1           1           3
           1           1           1           3           1           1
           1           3           1           1           1           6
           3           1           1           1           6           3
           1           1           1
Shell to atom map                          I   N=          33
           1           1           1           1           1           2
           2           2           2           2           2           3
           3           3           3           4           4           4
           4           5           5           5           5           6
           6           6           6           6           7           7
           7           7           7
Primitive exponents                        R   N=          72
  3.04752488E+03  4.57369518E+02  1.03948685E+02  2.92101553E+01  9.28666296E+00
  3.16392696E+00  7.86827235E+00  1.88128854E+00  5.44249258E-01  1.68714478E-01
  4.38000000E-02  8.00000000E-01  2.51801000E+04  3.78035000E+03  8.60474000E+02
  2.42145000E+02  7.73349000E+01  2.62470000E+01  4.91765000E+02  1.16984000E+02
  3.74153000E+01  1.37834000E+01  5.45215000E+00  2.22588000E+00  3.18649000E+00
  1.14427000E+00  4.20377000E-01  1.42657000E-01  4.83000000E-02  7.50000000E-01
  1.87311370E+01  2.82539436E+00  6.40121692E-01  1.61277759E-01  3.60000000E-02
  1.10000000E+00  1.87311370E+01  2.82539436E+00  6.40121692E-01  1.61277759E-01
  3.60000000E-02  1.10000000E+00  1.87311370E+01  2.82539436E+00  6.40121692E-01
  1.61277759E-01  3.60000000E-02  1.10000000E+00  3.04752488E+03  4.57369518E+02
  1.03948685E+02  2.92101553E+01  9.28666296E+00  3.16392696E+00  7.86827235E+00
  1.88128854E+00  5.44249258E-01  1.68714478E-01  4.38000000E-02  8.00000000E-01
  4.17351146E+03  6.27457911E+02  1.42902093E+02  4.02343293E+01  1.28202129E+01
  4.39043701E+00  1.16263619E+01  2.71627981E+00  7.72218397E-01  2.12031498E-01
  6.39000000E-02  8.00000000E-01
Contraction coefficients                   R   N=          72
  1.83473713E-03  1.40373228E-02  6.88426223E-02  2.32184443E-01  4.67941348E-01
  3.62311985E-01 -1.19332420E-01 -1.60854152E-01  1.14345644E+00  1.00000000E+00
  1.00000000E+00  1.00000000E+00  1.83295985E-03  1.40341988E-02  6.90973943E-02
  2.37451980E-01  4.83033960E-01  3.39855972E-01 -2.29739142E-03 -3.07137189E-02
 -1.12528069E-01  4.50163278E-02  5.89353363E-01  4.65206287E-01 -2.51828028E-01
  6.15892514E-02  1.06018433E+00  1.00000000E+00  1.00000000E+00  1.00000000E+00
  3.34946043E-02  2.34726953E-01  8.13757326E-01  1.00000000E+00  1.00000000E+00
  1.00000000E+00  3.34946043E-02  2.34726953E-01  8.13757326E-01  1.00000000E+00
  1.00000000E+00  1.00000000E+00  3.34946043E-02  2.34726953E-01  8.13757326E-01
  1.00000000E+00  1.00000000E+00  1.00000000E+00  1.83473713E-03  1.40373228E-02
  6.88426223E-02  2.32184443E-01  4.67941348E-01  3.62311985E-01 -1.19332420E-01
 -1.60854152E-01  1.14345644E+00  1.00000000E+00  1.00000000E+00  1.00000000E+00
  1.83477216E-03  1.39946270E-02  6.85865518E-02  2.32240873E-01  4.69069948E-01
  3.60455199E-01 -1.14961182E-01 -1.69117479E-01  1.14585195E+00  1.00000000E+00
  1.00000000E+00  1.00000000E+00
P(S=P) Contraction coefficients            R   N=          72
  0.00000000E+00  0.00000000E+00  0.00000000E+00  0.00000000E+00  0.00000000E+00
  0.00000000E+00  6.89990666E-02  3.16423961E-01  7.44308291E-01  1.00000000E+00
  1.00000000E+00  0.00000000E+00  0.00000000E+00  0.00000000E+00  0.00000000E+00
  0.00000000E+00  0.00000000E+00  0.00000000E+00  3.98940088E-03  3.03177067E-02
  1.29880029E-01  3.27951072E-01  4.53527100E-01  2.52154056E-01 -1.42993147E-02
  3.23572333E-01  7.43507765E-01  1.00000000E+00  1.00000000E+00  0.00000000E+00
  0.00000000E+00  0.00000000E+00  0.00000000E+00  0.00000000E+00  0.00000000E+00
  0.00000000E+00  0.00000000E+00  0.00000000E+00  0.00000000E+00  0.00000000E+00
  0.00000000E+00  0.00000000E+00  0.00000000E+00  0.00000000E+00  0.00000000E+00
  0.00000000E+00  0.00000000E+00  0.00000000E+00  0.00000000E+00  0.00000000E+00
  0.00000000E+00  0.00000000E+00  0.00000000E+00  0.00000000E+00  6.89990666E-02
  3.16423961E-01  7.44308291E-01  1.00000000E+00  1.00000000E+00  0.00000000E+00
  0.00000000E+00  0.00000000E+00  0.00000000E+00  0.00000000E+00  0.00000000E+00
  0.00000000E+00  6.75797439E-02  3.23907296E-01  7.40895140E-01  1.00000000E+00
  1.00000000E+00  0.00000000E+00
Coordinates of each shell                  R   N=          99
 -3.40948167E-01  1.32280829E-05 -3.15584263E-04 -3.40948167E-01  1.32280829E-05
 -3.15584263E-04 -3.40948167E-01  1.32280829E-05 -3.15584263E-04 -3.40948167E-01
  1.32280829E-05 -3.15584263E-04 -3.40948167E-01  1.32280829E-05 -3.15584263E-04
 -4.10038444E+00 -1.88972612E-06  8.31479495E-05 -4.10038444E+00 -1.88972612E-06
  8.31479495E-05 -4.10038444E+00 -1.88972612E-06  8.31479495E-05 -4.10038444E+00
 -1.88972612E-06  8.31479495E-05 -4.10038444E+00 -1.88972612E-06  8.31479495E-05
 -4.10038444E+00 -1.88972612E-06  8.31479495E-05  1.26768498E-01  4.61660092E-03
 -1.98732670E+00  1.26768498E-01  4.61660092E-03 -1.98732670E+00  1.26768498E-01
  4.61660092E-03 -1.98732670E+00  1.26768498E-01  4.61660092E-03 -1.98732670E+00
  1.27599977E-01  1.71860009E+00  9.96743603E-01  1.27599977E-01  1.71860009E+00
  9.96743603E-01  1.27599977E-01  1.71860009E+00  9.96743603E-01  1.27599977E-01
  1.71860009E+00  9.96743603E-01  1.27626433E-01 -1.72316944E+00  9.88770849E-01
  1.27626433E-01 -1.72316944E+00  9.88770849E-01  1.27626433E-01 -1.72316944E+00
  9.88770849E-01  1.27626433E-01 -1.72316944E+00  9.88770849E-01  4.45820408E+00
  5.66917837E-06 -2.98576728E-04  4.45820408E+00  5.66917837E-06 -2.98576728E-04
  4.45820408E+00  5.66917837E-06 -2.98576728E-04  4.45820408E+00  5.66917837E-06
 -2.98576728E-04  4.45820408E+00  5.66917837E-06 -2.98576728E-04  6.68379501E+00
 -1.32280829E-05  4.45975365E-04  6.68379501E+00 -1.32280829E-05  4.45975365E-04
  6.68379501E+00 -1.32280829E-05  4.45975365E-04  6.68379501E+00 -1.32280829E-05
  4.45975365E-04  6.68379501E+00 -1.32280829E-05  4.45975365E-04
Num ILSW                                   I              100
ILSW                                       I   N=         100
           0           1           0           0           2           0
           0           0           0           0         402          -1
           5           0           0           0           2           0
           0           0           0           0           1           0
           1           1           0           0           0           0
           0           0      100000           0          -1           0
           0           0           0           0           0           0
           0           0           0           1           0           0
           0 -2000000000           1           0           0           0
           0           0           4          52           0           0
           0           0           5           0           0           0
           0           0           0           7           0           1
           0           0           0           0           0           0
           0           0           0           0           0           0
           0           0           0           0           0           0
           0           0           0           0           0           0
           0           0           0           0
Num RLSW                                   I               52
RLSW                                       R   N=          52
  8.00000000E-01  7.20000000E-01  1.00000000E+00  8.10000000E-01  2.00000000E-01
  0.00000000E+00  0.00000000E+00  1.00000000E+00  0.00000000E+00  0.00000000E+00
  0.00000000E+00  0.00000000E+00  1.00000000E+00  0.00000000E+00  0.00000000E+00
  0.00000000E+00  0.00000000E+00  1.00000000E+00  0.00000000E+00  0.00000000E+00
  0.00000000E+00  0.00000000E+00  1.00000000E+00  0.00000000E+00  0.00000000E+00
  0.00000000E+00  0.00000000E+00  1.00000000E+00  0.00000000E+00  0.00000000E+00
  0.00000000E+00  0.00000000E+00  1.00000000E+00  0.00000000E+00  0.00000000E+00
  0.00000000E+00  0.00000000E+00  0.00000000E+00  1.00000000E+00  1.00000000E+00
  0.00000000E+00  1.00000000E+00  0.00000000E+00  0.00000000E+00  0.00000000E+00
  0.00000000E+00  0.00000000E+00  0.00000000E+00  0.00000000E+00  0.00000000E+00
  0.00000000E+00  0.00000000E+00
MxBond                                     I                4
NBond                                      I   N=           7
           4           1           1           1           1           1
           1
IBond                                      I   N=          28
           2           3           4           5           1           0
           0           0           1           0           0           0
           1           0           0           0           1           0
           0           0           7           0           0           0
           6           0           0           0
RBond                                      R   N=          28
  1.00000000E+00  1.00000000E+00  1.00000000E+00  1.00000000E+00  1.00000000E+00
  0.00000000E+00  0.00000000E+00  0.00000000E+00  1.00000000E+00  0.00000000E+00
  0.00000000E+00  0.00000000E+00  1.00000000E+00  0.00000000E+00  0.00000000E+00
  0.00000000E+00  1.00000000E+00  0.00000000E+00  0.00000000E+00  0.00000000E+00
  3.00000000E+00  0.00000000E+00  0.00000000E+00  0.00000000E+00  3.00000000E+00
  0.00000000E+00  0.00000000E+00  0.00000000E+00
Virial Ratio                               R      2.004599512678081E+00
SCF Energy                                 R     -5.929903984101945E+02
Total Energy                               R     -5.929903984101945E+02
RMS Force                                  R      3.072210912648921E-03
RMS Density                                R      4.027735350305509E-09
NImag                                      I                2
Job Status                                 I                1
Nuclear derivative order                   I                2
External E-field                           R   N=          35
  0.00000000E+00  0.00000000E+00  0.00000000E+00  0.00000000E+00  0.00000000E+00
  0.00000000E+00  0.00000000E+00  0.00000000E+00  0.00000000E+00  0.00000000E+00
  0.00000000E+00  0.00000000E+00  0.00000000E+00  0.00000000E+00  0.00000000E+00
  0.00000000E+00  0.00000000E+00  0.00000000E+00  0.00000000E+00  0.00000000E+00
  0.00000000E+00  0.00000000E+00  0.00000000E+00  0.00000000E+00  0.00000000E+00
  0.00000000E+00  0.00000000E+00  0.00000000E+00  0.00000000E+00  0.00000000E+00
  0.00000000E+00  0.00000000E+00  0.00000000E+00  0.00000000E+00  0.00000000E+00
IOpCl                                      I                0
IROHF                                      I                0
Alpha Orbital Energies                     R   N=          98
 -1.01381571E+02 -1.41089560E+01 -1.01034809E+01 -9.97484591E+00 -9.29693059E+00
 -7.05916940E+00 -7.05209949E+00 -7.05209932E+00 -6.70529989E-01 -6.63174164E-01
 -5.38909951E-01 -3.01571101E-01 -3.01533970E-01 -2.43182012E-01 -1.91125350E-01
 -1.57620169E-01 -1.57614404E-01 -1.11466212E-01 -1.11465864E-01 -8.17884004E-02
  1.12583881E-01  1.27753412E-01  1.48280745E-01  1.48283093E-01  1.64405068E-01
  1.94246880E-01  2.06170533E-01  2.06172099E-01  2.21742048E-01  2.21763849E-01
  2.47754446E-01  2.50147074E-01  2.50151641E-01  2.66269712E-01  2.66509521E-01
  2.66512378E-01  3.12794548E-01  3.42360199E-01  3.42389338E-01  3.71860328E-01
  3.81429353E-01  3.81429414E-01  3.81624100E-01  4.64519043E-01  4.76099610E-01
  7.06327360E-01  7.54739802E-01  7.57347102E-01  7.57352178E-01  7.89524446E-01
  7.89541790E-01  8.84524089E-01  8.86096217E-01  8.86109834E-01  9.89714574E-01
  1.02246258E+00  1.02248372E+00  1.03681483E+00  1.06920454E+00  1.06923027E+00
  1.09586790E+00  1.09592567E+00  1.12352137E+00  1.18264523E+00  1.18264929E+00
  1.25403005E+00  1.32944069E+00  1.35686972E+00  1.50108978E+00  1.59919508E+00
  1.59926215E+00  1.76668966E+00  1.76669181E+00  1.78994625E+00  1.78994773E+00
  1.82257820E+00  2.14446544E+00  2.18585682E+00  2.18599526E+00  2.19000783E+00
  2.19003766E+00  2.20560927E+00  2.55270782E+00  2.55286199E+00  2.61906592E+00
  2.82153435E+00  2.82154100E+00  2.83797430E+00  2.95522853E+00  2.95545540E+00
  3.26027255E+00  3.42160577E+00  3.56498447E+00  3.56516233E+00  4.20928492E+00
  4.45827402E+00  4.47126445E+00  4.55885837E+00
Alpha MO coefficients                      R   N=        9604
 -3.51559573E-06 -4.28144610E-05 -3.64352842E-05 -2.08052236E-10  6.03661460E-09
  3.03912122E-05 -9.89238932E-05 -1.20828305E-10 -8.22426068E-09 -1.38433063E-04
 -7.05651215E-05 -3.19482620E-10  2.42097476E-08  6.65287127E-05  1.86725164E-05
  1.86616093E-05  1.37615339E-10 -8.26872047E-10  7.11890376E-11  9.95997376E-01
  1.51505844E-02  3.04351027E-05  1.08920314E-10 -2.58738377E-09 -2.10559822E-02
 -1.46292912E-05 -4.42007278E-11  1.86109480E-09  1.86025505E-03 -6.38351615E-05
 -3.35719412E-10  8.15709090E-09 -3.48748420E-04 -1.30833046E-06  2.93636714E-11
 -1.13132755E-09  7.49775324E-03  7.52683199E-03  7.52683205E-03 -1.62509880E-10
  4.77873212E-09 -9.73167212E-13 -1.31094551E-05 -1.10626617E-05  4.45768544E-05
  2.21433627E-05  1.47428178E-08 -6.32826848E-06 -1.30961873E-05 -1.10631747E-05
  4.45492805E-05  2.21471190E-05  5.47491137E-06  3.17700500E-06 -1.30957282E-05
 -1.10636663E-05  4.45492914E-05  2.21471543E-05 -5.48947651E-06  3.15165532E-06
 -1.56285344E-06 -3.03343307E-06  2.38457852E-06  6.54594714E-11 -3.46538234E-09
 -1.43755173E-04 -1.55546095E-04  8.36996998E-10 -2.92325548E-08  7.88379245E-06
 -9.98971934E-05  3.11316658E-10 -1.28782008E-09 -1.15067895E-05 -1.57074873E-06
 -1.57089060E-06  1.57390536E-10 -6.62738557E-09 -3.20660257E-12 -3.14279732E-06
 -1.31252837E-05 -9.09034213E-07 -2.59385366E-11  1.21698510E-09  1.83186047E-04
 -8.97307537E-05  9.30101461E-10 -3.75042733E-08  1.15412526E-04  1.17772904E-05
  2.73534467E-10 -1.68902048E-08  3.32436607E-06 -8.37199438E-06 -8.37196062E-06
 -1.46455657E-10  6.04304607E-09  4.95816177E-13 -3.96990329E-07  1.33754913E-05
 -1.78622616E-05 -2.70591525E-12  1.07527368E-09  2.10993804E-05  2.22907388E-05
  3.93478305E-10 -3.94977254E-08  1.19917876E-03  3.60018444E-04  1.12106511E-09
 -1.34306969E-07 -1.90143512E-05  1.18047348E-06  1.18004543E-06 -1.25092974E-10
  2.98736840E-09 -1.37317708E-12  1.26936807E-07  1.86624064E-06 -8.97641457E-08
  1.50583317E-11 -3.17582228E-10  4.49236612E-06  1.63126324E-07 -8.75503182E-11
  1.78287180E-09 -4.95480597E-05 -4.07175247E-06  2.72378153E-10 -2.98831899E-09
  8.83604317E-05 -1.14587489E-05 -9.53939215E-10  4.91513329E-08  6.11298730E-06
  2.59168286E-06  2.59207695E-06  1.91905853E-11  8.07754995E-10  6.22196976E-12
  3.62730422E-06 -7.88548302E-05 -1.68750721E-04 -4.67792373E-06  1.30369570E-08
 -5.62945800E-06  3.61155640E-06 -7.87613186E-05 -1.68908663E-04 -4.67889917E-06
  4.86591009E-06  2.82507384E-06  3.61098012E-06 -7.87597730E-05 -1.68915973E-04
 -4.67898021E-06 -4.87893241E-06  2.80249471E-06  8.42235065E-05  2.04802909E-04
 -3.06282431E-04  2.55901970E-09 -9.97488122E-08 -2.25810336E-04 -3.90421978E-04
  3.60494325E-09 -1.46019934E-07  1.10663430E-03  1.23216180E-03 -1.02773607E-08
  3.63438319E-07 -7.81620949E-04 -1.06926318E-05 -1.06936357E-05  7.58915907E-09
 -2.98370470E-07 -9.80811281E-12  9.92699238E-01  3.44590506E-02 -1.44596889E-03
  1.20874340E-08 -4.77354398E-07  5.18201701E-03  1.37689620E-04 -1.12534160E-09
  4.37486453E-08 -3.03431177E-03  2.14881567E-06 -4.74118670E-11  2.23568857E-08
 -7.68945717E-03 -8.42460169E-03 -8.42460177E-03 -7.18757019E-09  2.82828466E-07
 -6.78828087E-12  9.93049844E-01  4.93680199E-02 -4.04730343E-04  4.10868384E-09
 -2.44079943E-07 -1.62264769E-02  1.23172411E-04 -7.03138940E-09  1.32977901E-06
  5.73007878E-03 -3.25362351E-03 -1.45637215E-08  1.13219638E-06 -9.28211279E-03
 -8.66530174E-03 -8.66550100E-03 -3.48810614E-09  1.49241245E-07  2.96688474E-09
 -7.46343018E-06 -5.93964513E-05 -2.69290901E-05 -3.10162252E-10  7.86115666E-09
 -2.25839035E-04  2.23652348E-04  2.16179237E-09 -5.13529100E-08  2.35994820E-03
  1.37742109E-03  1.58244336E-09 -1.55572702E-07 -4.87945544E-03 -1.75658593E-03
 -4.81555976E-09  1.58026164E-08  1.05334165E-04 -1.34720727E-04 -1.34737412E-04
  4.20980085E-10 -4.56010999E-08 -2.54981549E-10 -1.69467448E-04  3.04075586E-03
 -9.39027717E-04  5.53045413E-05  3.36173630E-07 -1.44662297E-04 -1.69578098E-04
  3.03934320E-03 -9.40002042E-04  5.53499452E-05  1.25155845E-04  7.25814551E-05
 -1.69574240E-04  3.03933195E-03 -9.39985335E-04  5.53483951E-05 -1.25487952E-04
  7.20006162E-05 -1.16231190E-05 -1.45113629E-04  4.69177852E-05 -1.72427567E-09
  3.34137919E-08 -1.21115487E-03 -1.99771757E-03  1.99741362E-08 -6.17114944E-07
  1.84551207E-03  4.05293182E-04  1.77992681E-08 -4.38063081E-07  3.25955672E-05
 -3.96098688E-05 -3.95847905E-05  3.02465870E-10 -3.19142427E-08  3.53003423E-10
 -5.56559409E-05 -2.29853919E-04  2.05899044E-05 -5.51828044E-10  3.52919006E-08
  2.48345902E-03 -8.90793557E-04  8.39945913E-09 -3.94953674E-07 -5.92019852E-04
 -2.12745822E-04 -1.42913788E-08  4.12965147E-07 -5.84474741E-05 -1.24179508E-04
 -1.24182311E-04  7.24043225E-11  8.30446274E-09 -1.36698366E-11 -3.69282298E-05
 -1.65981368E-04 -8.48760991E-05 -3.46665747E-10  2.03996487E-08  5.07997524E-04
  7.47379296E-04  6.56633716E-09 -3.51613212E-07 -1.24450881E-03  8.85002172E-03
  1.11861266E-08 -5.22258272E-07  6.43181247E-05 -3.69020759E-05 -3.69047894E-05
  9.45789274E-11 -2.07413440E-08  2.17485428E-10  2.59889697E-07  9.16744633E-06
  8.39806689E-06  1.64032856E-10 -4.03848976E-09  2.04650953E-05 -5.52454871E-05
 -9.71947272E-10  2.34094306E-08 -2.88500903E-04  4.73553974E-04  3.81116263E-09
 -8.07423790E-08  9.03494423E-03  2.30259922E-03  1.54907307E-08 -3.50148247E-07
  6.22220632E-05 -1.92538081E-07 -1.87580698E-07  6.38057675E-10 -9.50455139E-09
  7.14586963E-11 -3.60678102E-05 -4.58038442E-04  1.97760404E-04 -2.38307165E-05
 -4.26153376E-09  1.59888148E-06 -3.60831554E-05 -4.57569046E-04  1.97769517E-04
 -2.37224147E-05 -1.43020247E-06 -8.04212295E-07 -3.60842682E-05 -4.57556433E-04
  1.97756200E-04 -2.37179847E-05  1.43488125E-06 -7.98778803E-07  9.92834390E-01
  4.94264168E-02  1.78958293E-03 -1.67803058E-08  6.78328721E-07 -1.06112827E-02
 -2.28730497E-04  7.21876076E-09 -3.59517648E-07 -1.21746513E-02  1.91333803E-03
 -5.78613624E-09 -4.32409939E-07 -8.46168891E-03 -9.72786925E-03 -9.72787442E-03
 -1.21053151E-08  4.83577273E-07 -4.92571400E-11 -4.83781300E-04  1.04733923E-04
  4.12704066E-04 -3.13530971E-09  1.27772938E-07 -1.77243503E-03  8.23834065E-04
 -9.64222819E-09  3.62956841E-07  9.19580028E-03 -3.89181383E-03  3.49372091E-08
 -1.05299714E-06 -2.39707202E-04  2.00503525E-04  2.00504002E-04  4.58477426E-09
 -1.86437181E-07 -6.45558429E-14 -6.57635639E-05  1.07772073E-04  2.16206397E-04
  4.27661093E-10  7.23141622E-09  2.24163863E-03 -1.67227536E-03 -6.90222315E-09
  2.55089607E-08 -1.88563516E-02  3.51015238E-02  8.15390320E-08 -2.77766846E-06
 -4.93876328E-04 -6.75377385E-05 -6.76213662E-05 -2.02001006E-09  3.22035080E-08
 -5.17558765E-10 -2.84614290E-01  1.02275639E+00  3.56502026E-03  1.35207140E-08
 -3.06941777E-07  7.58868905E-02  4.93239518E-04  1.52061885E-09 -5.32150697E-08
 -2.54931281E-02 -1.64083377E-03 -4.41222708E-09  1.60408940E-07  5.18629810E-02
  1.51791431E-02  8.03087466E-08 -2.02191695E-06 -1.53597703E-02 -1.55538254E-02
 -1.55538307E-02  1.50783001E-09 -2.66045177E-08  7.20890611E-11 -5.28479636E-05
 -6.92358816E-04  3.14031912E-04 -5.24576417E-05  2.78719907E-09 -1.39321296E-06
 -5.28811369E-05 -6.92224137E-04  3.15230914E-04 -5.22741333E-05  1.21280473E-06
  7.27223805E-07 -5.28833335E-05 -6.92221624E-04  3.15240073E-04 -5.22688138E-05
 -1.21687968E-06  7.21503905E-07  1.79446804E-05  7.85481809E-05  3.84142001E-05
 -6.77383766E-10  5.96517216E-08 -3.99333665E-04  7.60401916E-05  8.41257831E-10
 -1.39223185E-07 -2.48201656E-02  1.19726187E-02 -6.71875647E-08  4.25925037E-07
  8.91579749E-05  1.79895425E-05  1.79843389E-05  8.35447305E-11  1.65315644E-09
 -7.00640511E-11 -1.11106124E-05 -2.36817721E-05 -1.53563274E-05 -1.42011108E-10
  3.34370473E-08  9.39557897E-05  2.76263231E-04 -2.24478318E-09 -3.83350949E-08
  6.42420961E-04 -2.77068998E-03  2.57450350E-08  2.90711325E-08 -7.44774219E-05
 -2.20191595E-05 -2.20177224E-05  3.93498352E-10 -2.44983785E-08  6.19272382E-12
  9.18307807E-05  1.15709232E-03 -2.12150104E-04 -5.35027562E-10 -1.75002795E-08
 -3.65873097E-04  1.20577210E-03 -1.86877316E-08  9.56762309E-07  2.25081867E-02
 -6.19264726E-02 -9.22903297E-08  2.46728865E-06 -1.12212234E-03  2.92476401E-04
  2.92246398E-04 -5.51221041E-09  1.13824785E-07 -2.71586235E-09  1.05327020E-03
 -3.99311797E-03  9.90445169E-01  3.19338466E-06 -6.67612163E-05 -1.11957033E-04
  3.11368645E-02  1.03018202E-07 -2.21625014E-06  3.61173680E-03 -1.34496887E-02
 -4.68661722E-08  1.08027291E-06 -6.45194602E-02 -1.30079592E-02 -1.06541432E-07
  2.57457360E-06  3.24670377E-04 -2.99568792E-04 -2.99581265E-04  2.22927154E-09
 -7.47883847E-08 -1.64143265E-10 -2.36603784E-04  1.46773972E-03 -5.57472913E-03
 -2.97695630E-04  9.54332159E-08 -4.11134049E-05 -2.37063710E-04  1.46704401E-03
 -5.57505384E-03 -2.97412962E-04  3.56942282E-05  2.06983104E-05 -2.37073513E-04
  1.46701885E-03 -5.57507857E-03 -2.97406356E-04 -3.57943000E-05  2.05356114E-05
 -3.99300408E-05 -1.96607509E-04 -9.51467523E-05  5.20498701E-10 -9.50081675E-08
  3.15924776E-03  1.74743205E-03 -1.60386794E-08  9.01540377E-07  5.95918420E-02
 -2.32023876E-02  1.00893906E-07  1.02825590E-08  4.60949090E-05 -6.88396330E-05
 -6.88360949E-05 -3.27763307E-09  1.18664175E-07  4.08524643E-11 -9.08338715E-06
 -1.11592960E-05  3.34089843E-05 -3.05138089E-11 -4.31545853E-08 -9.69978550E-04
  8.10208047E-04 -5.26756612E-09  4.02709178E-07 -9.80337176E-03  6.99617361E-03
 -6.56805130E-08  6.91554272E-07 -1.02066475E-04 -3.10907975E-06 -3.11392929E-06
  1.31023109E-09 -3.05880505E-08 -2.87683220E-11  1.20032994E-09  6.47543524E-09
  1.82843086E-09 -6.16871135E-05  1.32981056E-07 -3.64453234E-08 -1.09436175E-08
  3.06302400E-04 -6.64186088E-07 -2.08316940E-08 -3.90089480E-07  3.00908054E-04
 -6.43127669E-07  1.60571587E-09  6.90855275E-07 -6.90079745E-07 -3.28962256E-05
  7.14635405E-08 -8.76563762E-05  6.67547369E-10 -3.21782628E-09 -3.33990923E-06
  9.90846395E-01 -2.13511776E-03 -9.87870969E-10 -9.62834381E-08  2.95820636E-02
 -6.37445176E-05  2.06748727E-08  3.08108202E-08 -1.15984250E-02  2.49928666E-05
 -3.54535823E-07 -1.09232885E-07  5.16149654E-03 -1.11229754E-05 -2.23291215E-09
 -4.11450264E-08  4.06841344E-08  2.28957678E-04 -4.93248189E-07  5.26815791E-06
 -3.45735300E-07  2.54378701E-06 -1.97177400E-05 -9.61628024E-07 -2.76123743E-05
  3.40419311E-07 -6.68098028E-05  4.86993362E-04 -3.80750739E-03 -1.85776174E-04
 -7.43803508E-05 -2.70186292E-05  6.71590752E-05 -4.89460129E-04  3.82719672E-03
  1.86735381E-04 -7.47438784E-05  2.70582834E-05 -7.64577398E-10 -3.08567067E-09
  3.35907195E-10  5.59114075E-05 -1.20529216E-07 -1.69910828E-09 -2.24783199E-08
 -2.28648731E-04  4.93098680E-07  3.60435330E-07 -1.95795462E-07  1.02974624E-03
 -2.22300858E-06 -1.75555913E-09 -2.65127364E-08  2.42715259E-08 -8.62764930E-07
  1.81473356E-09  3.22962957E-06 -4.68351453E-10 -2.16803852E-09  3.62352051E-11
 -2.27085259E-05  4.89552631E-08  2.52302400E-08 -1.14536713E-08  1.37384264E-04
 -2.96213093E-07 -1.31166993E-08  5.46298673E-08 -3.74696854E-04  8.08512563E-07
  1.76272656E-11 -2.06455275E-08  1.89503676E-08 -1.63421023E-05  3.52375843E-08
  2.51513781E-06 -3.13555275E-08 -1.80101538E-07  9.30481474E-10 -1.32955243E-07
 -6.17266864E-05  8.67587761E-07 -5.90554874E-08  6.55309503E-07  3.06042355E-04
 -2.70132813E-06  1.29324864E-05  6.50496388E-07  2.99430441E-04 -3.98822543E-08
 -7.60467971E-05  7.60363665E-05 -7.02492443E-08 -3.28685965E-05 -8.00027521E-07
 -2.23774930E-08  1.07637773E-07  6.68342319E-05  2.13511791E-03  9.90846403E-01
  3.79344015E-08  1.86025461E-06  6.37447601E-05  2.95820208E-02 -7.29460991E-07
 -5.63229910E-07 -2.49924151E-05 -1.15982981E-02  1.24624596E-05  3.74113259E-06
  1.11215548E-05  5.16154086E-03  3.13011194E-08  4.62441805E-06 -4.59089226E-06
  4.93510661E-07  2.28968458E-04  4.91135073E-08  7.72062335E-05 -5.64847532E-04
  4.40680873E-03  2.15179697E-04  8.67534876E-08 -9.03222888E-05 -3.89623435E-05
  2.83841699E-04 -2.21903078E-03 -1.08321914E-04 -2.73332912E-05 -4.34493857E-05
 -3.83660411E-05  2.79467258E-04 -2.18491282E-03 -1.06654780E-04  2.68646807E-05
 -4.30822006E-05  1.85267171E-08  8.11389045E-08 -4.21500558E-09  1.20376189E-07