RxCoord=1.49965 DE=50.76                                                
Freq      RB3LYP                                                      6-31++G(d,p)        
Number of atoms                            I                7
Info1-9                                    I   N=           9
          16          16           0           0           0         100
           6          18        -502
Full Title                                 C   N=           2
RxCoord=1.49965 DE=50.76
Route                                      C   N=           6
#p b3lyp 6-31++g(d,p) scf=verytight NoSymm freq=noraman int=
ultrafine   
Charge                                     I               -1
Multiplicity                               I                1
Number of electrons                        I               40
Number of alpha electrons                  I               20
Number of beta electrons                   I               20
Number of basis functions                  I               98
Number of independent functions            I               98
Number of point charges in /Mol/           I                0
Number of translation vectors              I                0
Atomic numbers                             I   N=           7
           6          17           1           1           1           6
           7
Nuclear charges                            R   N=           7
  6.00000000E+00  1.70000000E+01  1.00000000E+00  1.00000000E+00  1.00000000E+00
  6.00000000E+00  7.00000000E+00
Current cartesian coordinates              R   N=          21
 -3.66457580E-01  1.32280829E-05 -3.23143167E-04 -4.09624783E+00 -1.88972612E-06
  8.50376756E-05  1.18404570E-01  4.60337284E-03 -1.98391007E+00  1.19239829E-01
  1.71562566E+00  9.95012614E-01  1.19270064E-01 -1.72017990E+00  9.87062536E-01
  4.46526976E+00  5.66917837E-06 -2.94797275E-04  6.69107801E+00 -1.32280829E-05
  4.49754818E-04
Number of symbols in /Mol/                 I                0
Force Field                                I                0
Atom Types                                 C   N=           7
                                                            
                        
Int Atom Types                             I   N=           7
           0           0           0           0           0           0
           0
MM charges                                 R   N=           7
  0.00000000E+00  0.00000000E+00  0.00000000E+00  0.00000000E+00  0.00000000E+00
  0.00000000E+00  0.00000000E+00
Integer atomic weights                     I   N=           7
          12          35           1           1           1          12
          14
Real atomic weights                        R   N=           7
  1.20000000E+01  3.49688527E+01  1.00782504E+00  1.00782504E+00  1.00782504E+00
  1.20000000E+01  1.40030740E+01
Atom fragment info                         I   N=           7
           0           0           0           0           0           0
           0
Atom residue num                           I   N=           7
           0           0           0           0           0           0
           0
Nuclear spins                              I   N=           7
           0           3           1           1           1           0
           2
Nuclear ZEff                               R   N=           7
 -3.60000000E+00 -1.42400000E+01 -1.00000000E+00 -1.00000000E+00 -1.00000000E+00
 -3.60000000E+00 -4.55000000E+00
Nuclear ZNuc                               R   N=           7
  6.00000000E+00  1.70000000E+01  1.00000000E+00  1.00000000E+00  1.00000000E+00
  6.00000000E+00  7.00000000E+00
Nuclear QMom                               R   N=           7
  0.00000000E+00 -8.16500000E+00  0.00000000E+00  0.00000000E+00  0.00000000E+00
  0.00000000E+00  2.04400000E+00
Nuclear GFac                               R   N=           7
  0.00000000E+00  8.21874000E-01  2.79284600E+00  2.79284600E+00  2.79284600E+00
  0.00000000E+00  4.03761000E-01
MicOpt                                     I   N=           7
          -1          -1          -1          -1          -1          -1
          -1
Number of residues                         I                0
Number of secondary structures             I                0
Number of contracted shells                I               33
Number of primitive shells                 I               72
Pure/Cartesian d shells                    I                1
Pure/Cartesian f shells                    I                0
Highest angular momentum                   I                2
Largest degree of contraction              I                6
Shell types                                I   N=          33
           0          -1          -1          -1           2           0
          -1          -1          -1          -1           2           0
           0           0           1           0           0           0
           1           0           0           0           1           0
          -1          -1          -1           2           0          -1
          -1          -1           2
Number of primitives per shell             I   N=          33
           6           3           1           1           1           6
           6           3           1           1           1           3
           1           1           1           3           1           1
           1           3           1           1           1           6
           3           1           1           1           6           3
           1           1           1
Shell to atom map                          I   N=          33
           1           1           1           1           1           2
           2           2           2           2           2           3
           3           3           3           4           4           4
           4           5           5           5           5           6
           6           6           6           6           7           7
           7           7           7
Primitive exponents                        R   N=          72
  3.04752488E+03  4.57369518E+02  1.03948685E+02  2.92101553E+01  9.28666296E+00
  3.16392696E+00  7.86827235E+00  1.88128854E+00  5.44249258E-01  1.68714478E-01
  4.38000000E-02  8.00000000E-01  2.51801000E+04  3.78035000E+03  8.60474000E+02
  2.42145000E+02  7.73349000E+01  2.62470000E+01  4.91765000E+02  1.16984000E+02
  3.74153000E+01  1.37834000E+01  5.45215000E+00  2.22588000E+00  3.18649000E+00
  1.14427000E+00  4.20377000E-01  1.42657000E-01  4.83000000E-02  7.50000000E-01
  1.87311370E+01  2.82539436E+00  6.40121692E-01  1.61277759E-01  3.60000000E-02
  1.10000000E+00  1.87311370E+01  2.82539436E+00  6.40121692E-01  1.61277759E-01
  3.60000000E-02  1.10000000E+00  1.87311370E+01  2.82539436E+00  6.40121692E-01
  1.61277759E-01  3.60000000E-02  1.10000000E+00  3.04752488E+03  4.57369518E+02
  1.03948685E+02  2.92101553E+01  9.28666296E+00  3.16392696E+00  7.86827235E+00
  1.88128854E+00  5.44249258E-01  1.68714478E-01  4.38000000E-02  8.00000000E-01
  4.17351146E+03  6.27457911E+02  1.42902093E+02  4.02343293E+01  1.28202129E+01
  4.39043701E+00  1.16263619E+01  2.71627981E+00  7.72218397E-01  2.12031498E-01
  6.39000000E-02  8.00000000E-01
Contraction coefficients                   R   N=          72
  1.83473713E-03  1.40373228E-02  6.88426223E-02  2.32184443E-01  4.67941348E-01
  3.62311985E-01 -1.19332420E-01 -1.60854152E-01  1.14345644E+00  1.00000000E+00
  1.00000000E+00  1.00000000E+00  1.83295985E-03  1.40341988E-02  6.90973943E-02
  2.37451980E-01  4.83033960E-01  3.39855972E-01 -2.29739142E-03 -3.07137189E-02
 -1.12528069E-01  4.50163278E-02  5.89353363E-01  4.65206287E-01 -2.51828028E-01
  6.15892514E-02  1.06018433E+00  1.00000000E+00  1.00000000E+00  1.00000000E+00
  3.34946043E-02  2.34726953E-01  8.13757326E-01  1.00000000E+00  1.00000000E+00
  1.00000000E+00  3.34946043E-02  2.34726953E-01  8.13757326E-01  1.00000000E+00
  1.00000000E+00  1.00000000E+00  3.34946043E-02  2.34726953E-01  8.13757326E-01
  1.00000000E+00  1.00000000E+00  1.00000000E+00  1.83473713E-03  1.40373228E-02
  6.88426223E-02  2.32184443E-01  4.67941348E-01  3.62311985E-01 -1.19332420E-01
 -1.60854152E-01  1.14345644E+00  1.00000000E+00  1.00000000E+00  1.00000000E+00
  1.83477216E-03  1.39946270E-02  6.85865518E-02  2.32240873E-01  4.69069948E-01
  3.60455199E-01 -1.14961182E-01 -1.69117479E-01  1.14585195E+00  1.00000000E+00
  1.00000000E+00  1.00000000E+00
P(S=P) Contraction coefficients            R   N=          72
  0.00000000E+00  0.00000000E+00  0.00000000E+00  0.00000000E+00  0.00000000E+00
  0.00000000E+00  6.89990666E-02  3.16423961E-01  7.44308291E-01  1.00000000E+00
  1.00000000E+00  0.00000000E+00  0.00000000E+00  0.00000000E+00  0.00000000E+00
  0.00000000E+00  0.00000000E+00  0.00000000E+00  3.98940088E-03  3.03177067E-02
  1.29880029E-01  3.27951072E-01  4.53527100E-01  2.52154056E-01 -1.42993147E-02
  3.23572333E-01  7.43507765E-01  1.00000000E+00  1.00000000E+00  0.00000000E+00
  0.00000000E+00  0.00000000E+00  0.00000000E+00  0.00000000E+00  0.00000000E+00
  0.00000000E+00  0.00000000E+00  0.00000000E+00  0.00000000E+00  0.00000000E+00
  0.00000000E+00  0.00000000E+00  0.00000000E+00  0.00000000E+00  0.00000000E+00
  0.00000000E+00  0.00000000E+00  0.00000000E+00  0.00000000E+00  0.00000000E+00
  0.00000000E+00  0.00000000E+00  0.00000000E+00  0.00000000E+00  6.89990666E-02
  3.16423961E-01  7.44308291E-01  1.00000000E+00  1.00000000E+00  0.00000000E+00
  0.00000000E+00  0.00000000E+00  0.00000000E+00  0.00000000E+00  0.00000000E+00
  0.00000000E+00  6.75797439E-02  3.23907296E-01  7.40895140E-01  1.00000000E+00
  1.00000000E+00  0.00000000E+00
Coordinates of each shell                  R   N=          99
 -3.66457580E-01  1.32280829E-05 -3.23143167E-04 -3.66457580E-01  1.32280829E-05
 -3.23143167E-04 -3.66457580E-01  1.32280829E-05 -3.23143167E-04 -3.66457580E-01
  1.32280829E-05 -3.23143167E-04 -3.66457580E-01  1.32280829E-05 -3.23143167E-04
 -4.09624783E+00 -1.88972612E-06  8.50376756E-05 -4.09624783E+00 -1.88972612E-06
  8.50376756E-05 -4.09624783E+00 -1.88972612E-06  8.50376756E-05 -4.09624783E+00
 -1.88972612E-06  8.50376756E-05 -4.09624783E+00 -1.88972612E-06  8.50376756E-05
 -4.09624783E+00 -1.88972612E-06  8.50376756E-05  1.18404570E-01  4.60337284E-03
 -1.98391007E+00  1.18404570E-01  4.60337284E-03 -1.98391007E+00  1.18404570E-01
  4.60337284E-03 -1.98391007E+00  1.18404570E-01  4.60337284E-03 -1.98391007E+00
  1.19239829E-01  1.71562566E+00  9.95012614E-01  1.19239829E-01  1.71562566E+00
  9.95012614E-01  1.19239829E-01  1.71562566E+00  9.95012614E-01  1.19239829E-01
  1.71562566E+00  9.95012614E-01  1.19270064E-01 -1.72017990E+00  9.87062536E-01
  1.19270064E-01 -1.72017990E+00  9.87062536E-01  1.19270064E-01 -1.72017990E+00
  9.87062536E-01  1.19270064E-01 -1.72017990E+00  9.87062536E-01  4.46526976E+00
  5.66917837E-06 -2.94797275E-04  4.46526976E+00  5.66917837E-06 -2.94797275E-04
  4.46526976E+00  5.66917837E-06 -2.94797275E-04  4.46526976E+00  5.66917837E-06
 -2.94797275E-04  4.46526976E+00  5.66917837E-06 -2.94797275E-04  6.69107801E+00
 -1.32280829E-05  4.49754818E-04  6.69107801E+00 -1.32280829E-05  4.49754818E-04
  6.69107801E+00 -1.32280829E-05  4.49754818E-04  6.69107801E+00 -1.32280829E-05
  4.49754818E-04  6.69107801E+00 -1.32280829E-05  4.49754818E-04
Num ILSW                                   I              100
ILSW                                       I   N=         100
           0           1           0           0           2           0
           0           0           0           0         402          -1
           5           0           0           0           2           0
           0           0           0           0           1           0
           1           1           0           0           0           0
           0           0      100000           0          -1           0
           0           0           0           0           0           0
           0           0           0           1           0           0
           0 -2000000000           1           0           0           0
           0           0           4          52           0           0
           0           0           5           0           0           0
           0           0           0           7           0           1
           0           0           0           0           0           0
           0           0           0           0           0           0
           0           0           0           0           0           0
           0           0           0           0           0           0
           0           0           0           0
Num RLSW                                   I               52
RLSW                                       R   N=          52
  8.00000000E-01  7.20000000E-01  1.00000000E+00  8.10000000E-01  2.00000000E-01
  0.00000000E+00  0.00000000E+00  1.00000000E+00  0.00000000E+00  0.00000000E+00
  0.00000000E+00  0.00000000E+00  1.00000000E+00  0.00000000E+00  0.00000000E+00
  0.00000000E+00  0.00000000E+00  1.00000000E+00  0.00000000E+00  0.00000000E+00
  0.00000000E+00  0.00000000E+00  1.00000000E+00  0.00000000E+00  0.00000000E+00
  0.00000000E+00  0.00000000E+00  1.00000000E+00  0.00000000E+00  0.00000000E+00
  0.00000000E+00  0.00000000E+00  1.00000000E+00  0.00000000E+00  0.00000000E+00
  0.00000000E+00  0.00000000E+00  0.00000000E+00  1.00000000E+00  1.00000000E+00
  0.00000000E+00  1.00000000E+00  0.00000000E+00  0.00000000E+00  0.00000000E+00
  0.00000000E+00  0.00000000E+00  0.00000000E+00  0.00000000E+00  0.00000000E+00
  0.00000000E+00  0.00000000E+00
MxBond                                     I                4
NBond                                      I   N=           7
           4           1           1           1           1           1
           1
IBond                                      I   N=          28
           2           3           4           5           1           0
           0           0           1           0           0           0
           1           0           0           0           1           0
           0           0           7           0           0           0
           6           0           0           0
RBond                                      R   N=          28
  1.00000000E+00  1.00000000E+00  1.00000000E+00  1.00000000E+00  1.00000000E+00
  0.00000000E+00  0.00000000E+00  0.00000000E+00  1.00000000E+00  0.00000000E+00
  0.00000000E+00  0.00000000E+00  1.00000000E+00  0.00000000E+00  0.00000000E+00
  0.00000000E+00  1.00000000E+00  0.00000000E+00  0.00000000E+00  0.00000000E+00
  3.00000000E+00  0.00000000E+00  0.00000000E+00  0.00000000E+00  3.00000000E+00
  0.00000000E+00  0.00000000E+00  0.00000000E+00
Virial Ratio                               R      2.004590066035294E+00
SCF Energy                                 R     -5.929907818528844E+02
Total Energy                               R     -5.929907818528844E+02
RMS Force                                  R      2.988189136626685E-03
RMS Density                                R      4.173841600720836E-09
NImag                                      I                2
Job Status                                 I                1
Nuclear derivative order                   I                2
External E-field                           R   N=          35
  0.00000000E+00  0.00000000E+00  0.00000000E+00  0.00000000E+00  0.00000000E+00
  0.00000000E+00  0.00000000E+00  0.00000000E+00  0.00000000E+00  0.00000000E+00
  0.00000000E+00  0.00000000E+00  0.00000000E+00  0.00000000E+00  0.00000000E+00
  0.00000000E+00  0.00000000E+00  0.00000000E+00  0.00000000E+00  0.00000000E+00
  0.00000000E+00  0.00000000E+00  0.00000000E+00  0.00000000E+00  0.00000000E+00
  0.00000000E+00  0.00000000E+00  0.00000000E+00  0.00000000E+00  0.00000000E+00
  0.00000000E+00  0.00000000E+00  0.00000000E+00  0.00000000E+00  0.00000000E+00
IOpCl                                      I                0
IROHF                                      I                0
Alpha Orbital Energies                     R   N=          98
 -1.01384085E+02 -1.41073976E+01 -1.01026321E+01 -9.97301119E+00 -9.29951820E+00
 -7.06183359E+00 -7.05463724E+00 -7.05463707E+00 -6.74216766E-01 -6.61644919E-01
 -5.38483252E-01 -3.01317960E-01 -3.01282847E-01 -2.45773131E-01 -1.90458749E-01
 -1.59275823E-01 -1.59269878E-01 -1.09963666E-01 -1.09963331E-01 -8.03861079E-02
  1.12532624E-01  1.28206364E-01  1.48176231E-01  1.48178162E-01  1.65143089E-01
  1.95016241E-01  2.06210113E-01  2.06211824E-01  2.21719648E-01  2.21741649E-01
  2.47405705E-01  2.50301336E-01  2.50306166E-01  2.66979366E-01  2.67397529E-01
  2.67400771E-01  3.13126919E-01  3.42238761E-01  3.42268009E-01  3.71072297E-01
  3.82060761E-01  3.82110540E-01  3.82111748E-01  4.65082583E-01  4.76864407E-01
  7.02642285E-01  7.53144426E-01  7.56393786E-01  7.56398498E-01  7.88178760E-01
  7.88194416E-01  8.84582622E-01  8.87449743E-01  8.87464034E-01  9.89760323E-01
  1.02017742E+00  1.02019752E+00  1.04237554E+00  1.06756630E+00  1.06759261E+00
  1.09605071E+00  1.09610793E+00  1.12303666E+00  1.18371912E+00  1.18372315E+00
  1.25538131E+00  1.32593354E+00  1.35633168E+00  1.49958897E+00  1.59959172E+00
  1.59965748E+00  1.76828996E+00  1.76829209E+00  1.79164081E+00  1.79164261E+00
  1.82054530E+00  2.14620474E+00  2.18879661E+00  2.18887286E+00  2.19285105E+00
  2.19293340E+00  2.21208861E+00  2.54603137E+00  2.54617999E+00  2.62442361E+00
  2.82308359E+00  2.82308981E+00  2.83935674E+00  2.95743524E+00  2.95764809E+00
  3.26110141E+00  3.41836185E+00  3.56433180E+00  3.56449487E+00  4.21040861E+00
  4.45655417E+00  4.46923549E+00  4.55863829E+00
Alpha MO coefficients                      R   N=        9604
 -3.85377425E-06 -3.71602878E-05 -3.85349037E-05 -2.43764710E-10  6.35375605E-09
  3.56952370E-05 -9.52368410E-05 -7.75865831E-11 -8.52194521E-09 -1.30095274E-04
 -8.16197469E-05 -4.02283215E-10  2.39271178E-08  6.06940660E-05  1.85258371E-05
  1.85145477E-05  8.17606416E-11 -5.21359321E-10  6.69687585E-11  9.95997346E-01
  1.51505830E-02  3.14002805E-05  1.01205420E-10 -2.75709527E-09 -2.10559868E-02
 -1.53059874E-05 -4.63218912E-11  1.91120142E-09  1.86130774E-03 -6.35808752E-05
 -3.37158263E-10  8.61431656E-09 -3.62250246E-04 -4.94626648E-06  9.04881260E-12
 -6.18968189E-10  7.49730574E-03  7.52657226E-03  7.52657233E-03 -1.68421865E-10
  4.97051896E-09 -1.10417364E-12 -1.42247094E-05 -1.20467146E-05  4.38272555E-05
  2.22087956E-05  1.62197116E-08 -6.97522487E-06 -1.42116349E-05 -1.20473705E-05
  4.38018672E-05  2.22137242E-05  6.03422122E-06  3.50151164E-06 -1.42110903E-05
 -1.20479319E-05  4.38017788E-05  2.22138257E-05 -6.05028294E-06  3.47360960E-06
 -1.53594321E-06 -2.65831719E-06  2.29554417E-06  6.73960816E-11 -3.48321173E-09
 -1.43210360E-04 -1.52757548E-04  8.15873901E-10 -2.88846975E-08  1.59821056E-05
 -1.02698812E-04  3.25506489E-10 -1.69871219E-09 -1.18780515E-05 -1.51970755E-06
 -1.51986379E-06  1.60125942E-10 -6.59724793E-09 -3.92561767E-12 -3.11858697E-06
 -1.29469256E-05 -9.92309135E-07 -2.51981560E-11  1.12638712E-09  1.81159083E-04
 -8.90447341E-05  9.23672706E-10 -3.70192844E-08  1.13313563E-04  1.28569705E-05
  2.65054658E-10 -1.64648836E-08  3.42575308E-06 -8.37056577E-06 -8.37053057E-06
 -1.47528590E-10  6.07019432E-09  5.15938821E-13  2.07390017E-09  1.40901891E-05
 -1.65397187E-05 -7.17325094E-12  7.51650152E-10  1.51529128E-05  1.85800294E-05
  4.17685523E-10 -3.74007592E-08  1.19047675E-03  3.27544881E-04  9.90748010E-10
 -1.28215369E-07 -1.77482005E-05  2.02315315E-06  2.02307765E-06 -1.36795273E-10
  2.82598469E-09  1.11244747E-12  1.23534436E-07  1.88686652E-06 -1.41817442E-07
  1.60087945E-11 -3.13745135E-10  4.36566616E-06  4.71165746E-07 -9.29419663E-11
  1.76375228E-09 -4.91630654E-05 -5.68730217E-06  2.85596879E-10 -2.89579983E-09
  5.81811892E-05 -1.97184123E-05 -1.01423235E-09  5.02831611E-08  6.07985673E-06
  2.71853644E-06  2.71891725E-06  2.00885010E-11  8.09899924E-10  7.96395457E-12
  3.95477032E-06 -7.66134736E-05 -1.71134242E-04 -4.38511562E-06  1.27476374E-08
 -5.51095523E-06  3.93896915E-06 -7.65225526E-05 -1.71299374E-04 -4.38659013E-06
  4.76339726E-06  2.76538756E-06  3.93834835E-06 -7.65209629E-05 -1.71307411E-04
 -4.38670310E-06 -4.77612993E-06  2.74331168E-06  8.42451358E-05  2.04839526E-04
 -3.03959686E-04  2.54557802E-09 -9.91443685E-08 -2.29627889E-04 -3.95095450E-04
  3.61350334E-09 -1.46552026E-07  1.15029181E-03  1.20952721E-03 -1.03291509E-08
  3.63600942E-07 -7.79214650E-04 -1.09025528E-05 -1.09035451E-05  7.56692407E-09
 -2.97441053E-07 -1.11156012E-11  9.92698830E-01  3.44582854E-02 -1.44082381E-03
  1.20409620E-08 -4.75591169E-07  5.18839493E-03  1.33634493E-04 -1.08895172E-09
  4.23633942E-08 -3.03468336E-03  8.39378179E-06 -8.85910781E-12  2.18802819E-08
 -7.69163987E-03 -8.42504809E-03 -8.42504817E-03 -7.17129000E-09  2.82183006E-07
 -6.87244193E-12  9.93044949E-01  4.93897491E-02 -4.33457222E-04  3.91321940E-09
 -2.36486886E-07 -1.62401648E-02  1.90973887E-04 -7.29012129E-09  1.27813442E-06
  5.86651330E-03 -3.22075691E-03 -1.51020239E-08  1.11601131E-06 -9.28304132E-03
 -8.68324825E-03 -8.68343298E-03 -3.92203320E-09  1.45928653E-07  2.89521214E-09
 -7.45737400E-06 -5.93023609E-05 -2.52359188E-05 -3.42272243E-10  7.73930502E-09
 -2.08353657E-04  2.23830937E-04  2.41569011E-09 -5.21152771E-08  2.43101029E-03
  1.41812019E-03  9.17083376E-10 -1.65149353E-07 -4.94049834E-03 -1.76661012E-03
 -4.24801804E-09  2.58184797E-08  8.63066482E-05 -1.38340078E-04 -1.38356700E-04
  1.98187118E-10 -4.43322986E-08 -3.22581887E-10 -1.67401790E-04  3.03990330E-03
 -9.37784740E-04  5.35661353E-05  3.23961312E-07 -1.39474795E-04 -1.67506420E-04
  3.03854972E-03 -9.38725100E-04  5.36087406E-05  1.20660914E-04  6.99737090E-05
 -1.67503062E-04  3.03853949E-03 -9.38705749E-04  5.36069142E-05 -1.20980016E-04
  6.94142763E-05 -1.21070038E-05 -1.38166657E-04  4.64597042E-05 -1.99730090E-09
  3.53064306E-08 -1.13099142E-03 -1.87767251E-03  2.04753468E-08 -5.99709573E-07
  1.78992849E-03  4.64588761E-04  1.93071103E-08 -4.38115465E-07  2.98201096E-05
 -3.93453654E-05 -3.93202779E-05  1.79076692E-10 -2.87801009E-08  3.99054400E-10
 -5.34485566E-05 -2.19560096E-04  1.91252327E-05 -4.39232639E-10  3.28686794E-08
  2.35439564E-03 -8.35645919E-04  7.39596444E-09 -3.67103671E-07 -6.43424195E-04
 -2.20409833E-04 -1.55490773E-08  4.20576450E-07 -5.70359589E-05 -1.19690758E-04
 -1.19693538E-04  2.08373916E-10  6.01995812E-09 -1.63884823E-11 -3.52041185E-05
 -1.60486646E-04 -8.74556045E-05 -4.03296192E-10  2.05782655E-08  4.97239975E-04
  7.40896807E-04  7.08194764E-09 -3.52760835E-07 -1.49371129E-03  8.50318304E-03
  1.07209877E-08 -5.11858873E-07  5.81212404E-05 -3.62457232E-05 -3.62483007E-05
  1.39178725E-10 -2.01765365E-08  2.22305969E-10  2.58258844E-07  9.00073285E-06
  8.06102417E-06  1.69547802E-10 -4.06077265E-09  2.04654191E-05 -5.29149603E-05
 -1.00371653E-09  2.35050910E-08 -2.75923733E-04  4.67119889E-04  3.90452426E-09
 -8.11436783E-08  8.86167032E-03  2.24074309E-03  1.49331914E-08 -3.53514638E-07
  6.11926014E-05 -3.43826183E-07 -3.38779980E-07  6.33943537E-10 -9.50786197E-09
  8.35822428E-11 -3.67514243E-05 -4.58642246E-04  1.81955148E-04 -2.43277044E-05
 -1.34580214E-09  3.22987878E-07 -3.67687352E-05 -4.58168637E-04  1.81936628E-04
 -2.42192749E-05 -3.27677052E-07 -1.64319527E-07 -3.67699906E-05 -4.58155358E-04
  1.81920770E-04 -2.42144292E-05  3.29533717E-07 -1.64123618E-07  9.92834545E-01
  4.94215529E-02  1.80302002E-03 -1.68255077E-08  6.78725885E-07 -1.06371986E-02
 -2.78801837E-04  7.32958186E-09 -3.61848178E-07 -1.17029531E-02  1.70222440E-03
 -5.61105142E-09 -4.00729696E-07 -8.46028217E-03 -9.72745546E-03 -9.72746056E-03
 -1.20849579E-08  4.83466232E-07 -5.86540172E-11 -4.84687718E-04  9.97053054E-05
  4.16225659E-04 -3.17408701E-09  1.28662628E-07 -1.71594835E-03  8.01439730E-04
 -9.39124200E-09  3.55174282E-07  9.17665370E-03 -3.84306540E-03  3.50386887E-08
 -1.07264744E-06 -2.44608169E-04  1.98285272E-04  1.98285706E-04  4.59579925E-09
 -1.86664095E-07 -1.97617745E-13 -6.90717730E-05  1.14875152E-04  2.27439600E-04
  4.03728551E-10  5.88847325E-09  2.32466309E-03 -1.65200661E-03 -8.06671664E-09
  2.04002480E-08 -2.05317361E-02  3.56601633E-02  8.53592478E-08 -2.85004529E-06
 -5.26184189E-04 -7.29349240E-05 -7.30153729E-05 -2.17460897E-09  3.75366211E-08
 -8.05057127E-10 -2.84613375E-01  1.02275606E+00  3.68009667E-03  1.25382336E-08
 -3.28390312E-07  7.59054486E-02  4.97287012E-04  1.48954707E-09 -5.33388622E-08
 -2.56066338E-02 -1.63695722E-03 -4.17579615E-09  1.61246031E-07  5.33112804E-02
  1.55052287E-02  8.27212348E-08 -2.13598169E-06 -1.53471794E-02 -1.55559040E-02
 -1.55559089E-02  1.59428774E-09 -2.97832507E-08  7.52844180E-11 -5.27837571E-05
 -7.08115070E-04  4.13483866E-04 -5.36003785E-05  3.01391253E-09 -1.49225934E-06
 -5.28151895E-05 -7.07972178E-04  4.14634786E-04 -5.34171835E-05  1.29496573E-06
  7.75765206E-07 -5.28177355E-05 -7.07971948E-04  4.14650443E-04 -5.34105269E-05
 -1.29939262E-06  7.69748885E-07  1.82071253E-05  8.01729351E-05  3.93013782E-05
 -6.03635056E-10  6.00732843E-08 -3.48012205E-04  1.26985936E-04  1.51756744E-10
 -1.29571942E-07 -2.48564386E-02  1.20242244E-02 -6.70856194E-08  5.21937210E-07
  8.92345344E-05  1.78861852E-05  1.78810312E-05  8.47488024E-11  2.19208311E-09
 -8.38521907E-11 -8.75940309E-06 -1.47722803E-05 -1.59056769E-05 -1.46866407E-10
  3.10257830E-08  3.49713767E-06  3.06809235E-04 -2.43843563E-09 -1.65285372E-08
  7.16364554E-04 -2.82328657E-03  2.62095881E-08 -2.59115624E-08 -7.16713932E-05
 -1.66538167E-05 -1.66523448E-05  3.94974010E-10 -2.59049395E-08  1.02985531E-11
  8.97751601E-05  1.20546622E-03 -1.68634375E-04 -5.17772942E-10 -2.49524785E-08
 -3.50225027E-04  1.27643580E-03 -2.16460482E-08  9.47527428E-07  2.50882505E-02
 -6.17851405E-02 -9.42429908E-08  2.56888068E-06 -1.21353545E-03  2.85439250E-04
  2.85211399E-04 -5.98604416E-09  1.34620013E-07 -3.54096397E-09  1.08646048E-03
 -4.12456274E-03  9.90435713E-01  2.93214279E-06 -7.08402925E-05 -1.38324591E-04
  3.11645749E-02  9.54054495E-08 -2.34596693E-06  3.79532172E-03 -1.34013835E-02
 -4.37111936E-08  1.12231480E-06 -6.58569922E-02 -1.32779292E-02 -1.09135225E-07
  2.70203751E-06  3.49533645E-04 -3.19946001E-04 -3.19958642E-04  2.50458552E-09
 -8.34366093E-08 -1.88096696E-10 -2.37775801E-04  1.45528713E-03 -5.63107873E-03
 -2.99432278E-04  1.01345668E-07 -4.36390528E-05 -2.38229708E-04  1.45458694E-03
 -5.63144153E-03 -2.99150542E-04  3.78752585E-05  2.19636006E-05 -2.38242623E-04
  1.45455982E-03 -5.63147084E-03 -2.99141768E-04 -3.79815100E-05  2.17914743E-05
 -3.80377727E-05 -1.91213400E-04 -9.67280181E-05  3.75527021E-10 -8.93606701E-08
  3.20026255E-03  1.82398118E-03 -1.59683970E-08  9.05536553E-07  5.84188514E-02
 -2.27512540E-02  9.87124296E-08 -1.84432292E-07  5.53151171E-05 -6.61368776E-05
 -6.61336474E-05 -3.39610428E-09  1.22104209E-07  4.81234251E-11 -7.80994899E-06
 -5.21874552E-06  3.37567609E-05 -3.34466356E-12 -3.98130962E-08 -1.05392331E-03
  8.57726151E-04 -5.85824857E-09  4.04469841E-07 -9.80100038E-03  6.92581372E-03
 -6.55159349E-08  7.97978889E-07 -1.05588217E-04  3.82943741E-07  3.78154611E-07
  1.41434725E-09 -3.44042430E-08 -3.20854768E-11  1.50466293E-09  8.43342173E-09
  1.85894175E-09 -6.29638107E-05  2.44965527E-07 -4.55554636E-08 -1.09020961E-08
  3.09586937E-04 -1.20901008E-06 -7.82087214E-09 -4.46128222E-07  3.09354970E-04
 -1.19513581E-06  1.57442079E-09  8.36070798E-07 -8.35092203E-07 -1.95068994E-05
  7.64327110E-08 -8.91692570E-05  6.14411891E-10 -3.18647721E-09 -3.21056948E-06
  9.90840987E-01 -3.85298020E-03 -1.27460173E-09 -9.16293324E-08  2.95828777E-02
 -1.15035574E-04  2.52914515E-08  2.90927545E-08 -1.16026129E-02  4.51177295E-05
 -4.13282974E-07 -1.23747955E-07  5.16535302E-03 -2.00863777E-05 -2.06607184E-09
 -4.98132247E-08  4.88961355E-08  2.36101545E-04 -9.17934654E-07  5.31627645E-06
 -4.65676046E-07  3.51859599E-06 -2.75151355E-05 -1.36457211E-06 -2.75934847E-05
  4.82700419E-07 -6.48076215E-05  4.85621892E-04 -3.82729035E-03 -1.89819159E-04
 -7.26105443E-05 -2.59537027E-05  6.52776311E-05 -4.89046280E-04  3.85477351E-03
  1.91179877E-04 -7.30501748E-05  2.61437682E-05 -8.47079057E-10 -3.44310916E-09
  3.14968189E-10  5.56343667E-05 -2.16339577E-07 -2.02861418E-10 -2.35077244E-08
 -2.26772141E-04  8.82013196E-07  4.01946616E-07 -2.17999705E-07  1.03053160E-03
 -4.01091432E-06 -1.86327542E-09 -3.21052501E-08  2.96088788E-08 -1.11814871E-06
  4.29712439E-09  3.29600717E-06 -4.92696072E-10 -2.28922067E-09  6.59228428E-11
 -2.25990956E-05  8.79098024E-08  2.63388420E-08 -1.19881783E-08  1.36784929E-04
 -5.32069844E-07 -1.61428251E-08  6.10572125E-08 -3.76378301E-04  1.46474385E-06
  1.44270619E-11 -2.43011892E-08  2.25350121E-08 -1.62322463E-05  6.31260116E-08
  2.49973472E-06 -3.16870719E-08 -1.85696592E-07 -3.97799863E-09 -2.44873811E-07
 -6.30046593E-05  8.83271566E-07 -3.43461928E-08  1.19766900E-06  3.09323281E-04
 -3.06853443E-06  1.29864077E-05  1.20506052E-06  3.07888474E-04 -3.44614683E-08
 -7.73555620E-05  7.73464598E-05 -7.51710753E-08 -1.94798564E-05 -9.67989640E-07
 -2.17795469E-08  1.06229162E-07  7.09108315E-05  3.85298032E-03  9.90840994E-01
  4.00186887E-08  1.98130351E-06  1.15035977E-04  2.95828350E-02 -7.48992695E-07
 -6.07226393E-07 -4.51175140E-05 -1.16024837E-02  1.27593533E-05  3.81147722E-06
  2.00857335E-05  5.16539416E-03  3.53489035E-08  4.66782781E-06 -4.63508074E-06
  9.18315961E-07  2.36112683E-04  5.87099393E-08  7.49595608E-05 -5.63827319E-04
  4.43409418E-03  2.20080955E-04  3.36038368E-08 -8.80246901E-05 -3.79451177E-05
  2.84150640E-04 -2.23944994E-03 -1.11122442E-04 -2.64635208E-05 -4.28982808E-05
 -3.71417194E-05  2.78094656E-04 -2.19182317E-03 -1.08757340E-04  2.57547736E-05
 -4.24545443E-05  1.86075021E-08  8.10405768E-08 -4.03593254E-09  2.16240691E-07