 Entering Gaussian System, Link 0=g16
 Initial command:
 /usr/local/g16_AVX//g16/l1.exe "/scratch/alanqf/0116-54558.ixchel.mda.cinvestav.mx/Gau-17604.inp" -scrdir="/scratch/alanqf/0116-54558.ixchel.mda.cinvestav.mx/"
 Entering Link 1 = /usr/local/g16_AVX//g16/l1.exe PID=     17605.
  
 Copyright (c) 1988-2017, Gaussian, Inc.  All Rights Reserved.
  
 This is part of the Gaussian(R) 16 program.  It is based on
 the Gaussian(R) 09 system (copyright 2009, Gaussian, Inc.),
 the Gaussian(R) 03 system (copyright 2003, Gaussian, Inc.),
 the Gaussian(R) 98 system (copyright 1998, Gaussian, Inc.),
 the Gaussian(R) 94 system (copyright 1995, Gaussian, Inc.),
 the Gaussian 92(TM) system (copyright 1992, Gaussian, Inc.),
 the Gaussian 90(TM) system (copyright 1990, Gaussian, Inc.),
 the Gaussian 88(TM) system (copyright 1988, Gaussian, Inc.),
 the Gaussian 86(TM) system (copyright 1986, Carnegie Mellon
 University), and the Gaussian 82(TM) system (copyright 1983,
 Carnegie Mellon University). Gaussian is a federally registered
 trademark of Gaussian, Inc.
  
 This software contains proprietary and confidential information,
 including trade secrets, belonging to Gaussian, Inc.
  
 This software is provided under written license and may be
 used, copied, transmitted, or stored only in accord with that
 written license.
  
 The following legend is applicable only to US Government
 contracts under FAR:
  
                    RESTRICTED RIGHTS LEGEND
  
 Use, reproduction and disclosure by the US Government is
 subject to restrictions as set forth in subparagraphs (a)
 and (c) of the Commercial Computer Software - Restricted
 Rights clause in FAR 52.227-19.
  
 Gaussian, Inc.
 340 Quinnipiac St., Bldg. 40, Wallingford CT 06492
  
  
 ---------------------------------------------------------------
 Warning -- This program may not be used in any manner that
 competes with the business of Gaussian, Inc. or will provide
 assistance to any competitor of Gaussian, Inc.  The licensee
 of this program is prohibited from giving any competitor of
 Gaussian, Inc. access to this program.  By using this program,
 the user acknowledges that Gaussian, Inc. is engaged in the
 business of creating and licensing software in the field of
 computational chemistry and represents and warrants to the
 licensee that it is not a competitor of Gaussian, Inc. and that
 it will not use this program in any manner prohibited above.
 ---------------------------------------------------------------
  

 Cite this work as:
 Gaussian 16, Revision B.01,
 M. J. Frisch, G. W. Trucks, H. B. Schlegel, G. E. Scuseria, 
 M. A. Robb, J. R. Cheeseman, G. Scalmani, V. Barone, 
 G. A. Petersson, H. Nakatsuji, X. Li, M. Caricato, A. V. Marenich, 
 J. Bloino, B. G. Janesko, R. Gomperts, B. Mennucci, H. P. Hratchian, 
 J. V. Ortiz, A. F. Izmaylov, J. L. Sonnenberg, D. Williams-Young, 
 F. Ding, F. Lipparini, F. Egidi, J. Goings, B. Peng, A. Petrone, 
 T. Henderson, D. Ranasinghe, V. G. Zakrzewski, J. Gao, N. Rega, 
 G. Zheng, W. Liang, M. Hada, M. Ehara, K. Toyota, R. Fukuda, 
 J. Hasegawa, M. Ishida, T. Nakajima, Y. Honda, O. Kitao, H. Nakai, 
 T. Vreven, K. Throssell, J. A. Montgomery, Jr., J. E. Peralta, 
 F. Ogliaro, M. J. Bearpark, J. J. Heyd, E. N. Brothers, K. N. Kudin, 
 V. N. Staroverov, T. A. Keith, R. Kobayashi, J. Normand, 
 K. Raghavachari, A. P. Rendell, J. C. Burant, S. S. Iyengar, 
 J. Tomasi, M. Cossi, J. M. Millam, M. Klene, C. Adamo, R. Cammi, 
 J. W. Ochterski, R. L. Martin, K. Morokuma, O. Farkas, 
 J. B. Foresman, and D. J. Fox, Gaussian, Inc., Wallingford CT, 2016.
 
 ******************************************
 Gaussian 16:  ES64L-G16RevB.01 20-Dec-2017
                13-Oct-2024 
 ******************************************
 %NProcShared=26
 Will use up to   26 processors via shared memory.
 %MEM=20GB
 %chk=CHKfiles/0116.chk
 ---------------------------------------------------------------------
 #p b3lyp 6-31++g(d,p) scf=verytight NoSymm freq=noraman int=ultrafine
 ---------------------------------------------------------------------
 1/10=4,30=1,38=1/1,3;
 2/12=2,15=1,17=6,18=5,40=1/2;
 3/5=1,6=6,7=1111,11=2,25=1,30=1,71=2,74=-5,75=-5,140=1/1,2,3;
 4//1;
 5/5=2,17=3,38=5,98=1/2;
 8/6=4,10=90,11=11/1;
 11/6=1,8=1,9=11,15=111,16=1,31=1/1,2,10;
 10/6=1,31=1/2;
 6/7=2,8=2,9=2,10=2,28=1/1;
 7/8=1,10=1,25=1,30=1/1,2,3,16;
 1/10=4,30=1/3;
 99//99;
 Leave Link    1 at Sun Oct 13 09:51:15 2024, MaxMem=  2684354560 cpu:               1.2 elap:               0.1
 (Enter /usr/local/g16_AVX//g16/l101.exe)
 ------------------------
 RxCoord=1.49965 DE=50.76
 ------------------------
 Symbolic Z-matrix:
 Charge = -1 Multiplicity = 1
 C                    -0.19392   0.00001  -0.00017 
 Cl                   -2.16764  0.         0.00005 
 H                     0.06266   0.00244  -1.04984 
 H                     0.0631    0.90787   0.52654 
 H                     0.06312  -0.91028   0.52233 
 C                     2.36292   0.       -0.00016 
 N                     3.54077  -0.00001   0.00024 
 
 ITRead=  0  0  0  0  0  0  0
 MicOpt= -1 -1 -1 -1 -1 -1 -1
 NAtoms=      7 NQM=        7 NQMF=       0 NMMI=      0 NMMIF=      0
                NMic=       0 NMicF=      0.
                    Isotopes and Nuclear Properties:
 (Nuclear quadrupole moments (NQMom) in fm**2, nuclear magnetic moments (NMagM)
  in nuclear magnetons)

  Atom         1           2           3           4           5           6           7
 IAtWgt=          12          35           1           1           1          12          14
 AtmWgt=  12.0000000  34.9688527   1.0078250   1.0078250   1.0078250  12.0000000  14.0030740
 NucSpn=           0           3           1           1           1           0           2
 AtZEff=  -0.0000000  -0.0000000  -0.0000000  -0.0000000  -0.0000000  -0.0000000  -0.0000000
 NQMom=    0.0000000  -8.1650000   0.0000000   0.0000000   0.0000000   0.0000000   2.0440000
 NMagM=    0.0000000   0.8218740   2.7928460   2.7928460   2.7928460   0.0000000   0.4037610
 AtZNuc=   6.0000000  17.0000000   1.0000000   1.0000000   1.0000000   6.0000000   7.0000000
 Leave Link  101 at Sun Oct 13 09:51:15 2024, MaxMem=  2684354560 cpu:               2.8 elap:               0.1
 (Enter /usr/local/g16_AVX//g16/l103.exe)

 GradGradGradGradGradGradGradGradGradGradGradGradGradGradGradGradGradGrad
 Berny optimization.
 Initialization pass.
 Trust Radius=3.00D-01 FncErr=1.00D-07 GrdErr=1.00D-07 EigMax=2.50D+02 EigMin=1.00D-04
 Number of steps in this run=      2 maximum allowed number of steps=      2.
 GradGradGradGradGradGradGradGradGradGradGradGradGradGradGradGradGradGrad

 Leave Link  103 at Sun Oct 13 09:51:15 2024, MaxMem=  2684354560 cpu:               0.5 elap:               0.1
 (Enter /usr/local/g16_AVX//g16/l202.exe)
                          Input orientation:                          
 ---------------------------------------------------------------------
 Center     Atomic      Atomic             Coordinates (Angstroms)
 Number     Number       Type             X           Y           Z
 ---------------------------------------------------------------------
      1          6           0       -0.193921    0.000007   -0.000171
      2         17           0       -2.167641   -0.000001    0.000045
      3          1           0        0.062657    0.002436   -1.049840
      4          1           0        0.063099    0.907870    0.526538
      5          1           0        0.063115   -0.910280    0.522331
      6          6           0        2.362919    0.000003   -0.000156
      7          7           0        3.540766   -0.000007    0.000238
 ---------------------------------------------------------------------
                    Distance matrix (angstroms):
                    1          2          3          4          5
     1  C    0.000000
     2  Cl   1.973720   0.000000
     3  H    1.080575   2.465054   0.000000
     4  H    1.080600   2.465284   1.817905   0.000000
     5  H    1.080601   2.465292   1.817903   1.818155   0.000000
     6  C    2.556840   4.530560   2.528448   2.528003   2.527985
     7  N    3.734687   5.708407   3.633168   3.632547   3.632525
                    6          7
     6  C    0.000000
     7  N    1.177847   0.000000
 Symmetry turned off by external request.
 Stoichiometry    C2H3ClN(1-)
 Framework group  C1[X(C2H3ClN)]
 Deg. of freedom    15
 Full point group                 C1      NOp   1
 Rotational constants (GHZ):         151.7224877           1.2356668           1.2356650
 Leave Link  202 at Sun Oct 13 09:51:15 2024, MaxMem=  2684354560 cpu:               0.3 elap:               0.1
 (Enter /usr/local/g16_AVX//g16/l301.exe)
 Standard basis: 6-31++G(d,p) (6D, 7F)
 Ernie: Thresh=  0.10000D-02 Tol=  0.10000D-05 Strict=F.
    98 basis functions,   176 primitive gaussians,    98 cartesian basis functions
    20 alpha electrons       20 beta electrons
       nuclear repulsion energy       110.0262925195 Hartrees.
 IExCor=  402 DFT=T Ex+Corr=B3LYP ExCW=0 ScaHFX=  0.200000
 ScaDFX=  0.800000  0.720000  1.000000  0.810000 ScalE2=  1.000000  1.000000
 IRadAn=      5 IRanWt=     -1 IRanGd=            0 ICorTp=0 IEmpDi=  4
 NAtoms=    7 NActive=    7 NUniq=    7 SFac= 1.00D+00 NAtFMM=   60 NAOKFM=F Big=F
 Integral buffers will be    131072 words long.
 Raffenetti 2 integral format.
 Two-electron integral symmetry is turned off.
 Leave Link  301 at Sun Oct 13 09:51:15 2024, MaxMem=  2684354560 cpu:               1.4 elap:               0.1
 (Enter /usr/local/g16_AVX//g16/l302.exe)
 NPDir=0 NMtPBC=     1 NCelOv=     1 NCel=       1 NClECP=     1 NCelD=      1
         NCelK=      1 NCelE2=     1 NClLst=     1 CellRange=     0.0.
 One-electron integrals computed using PRISM.
 NBasis=    98 RedAO= T EigKep=  1.28D-04  NBF=    98
 NBsUse=    98 1.00D-06 EigRej= -1.00D+00 NBFU=    98
 Precomputing XC quadrature grid using
 IXCGrd= 4 IRadAn=           5 IRanWt=          -1 IRanGd=           0 AccXCQ= 0.00D+00.
 Generated NRdTot=       0 NPtTot=           0 NUsed=           0 NTot=          32
 NSgBfM=    98    98    98    98    98 MxSgAt=     7 MxSgA2=     7.
 Leave Link  302 at Sun Oct 13 09:51:16 2024, MaxMem=  2684354560 cpu:               3.9 elap:               0.2
 (Enter /usr/local/g16_AVX//g16/l303.exe)
 DipDrv:  MaxL=1.
 Leave Link  303 at Sun Oct 13 09:51:16 2024, MaxMem=  2684354560 cpu:               0.8 elap:               0.1
 (Enter /usr/local/g16_AVX//g16/l401.exe)
 ExpMin= 3.60D-02 ExpMax= 2.52D+04 ExpMxC= 3.78D+03 IAcc=3 IRadAn=         5 AccDes= 0.00D+00
 Harris functional with IExCor=  402 and IRadAn=       5 diagonalized for initial guess.
 HarFok:  IExCor=  402 AccDes= 0.00D+00 IRadAn=         5 IDoV= 1 UseB2=F ITyADJ=14
 ICtDFT=  3500011 ScaDFX=  1.000000  1.000000  1.000000  1.000000
 FoFCou: FMM=F IPFlag=           0 FMFlag=      100000 FMFlg1=           0
         NFxFlg=           0 DoJE=T BraDBF=F KetDBF=T FulRan=T
         wScrn=  0.000000 ICntrl=       500 IOpCl=  0 I1Cent=   200000004 NGrid=           0
         NMat0=    1 NMatS0=      1 NMatT0=    0 NMatD0=    1 NMtDS0=    0 NMtDT0=    0
 Symmetry not used in FoFCou.
 Harris En= -593.065615111164    
 JPrj=0 DoOrth=F DoCkMO=F.
 Leave Link  401 at Sun Oct 13 09:51:16 2024, MaxMem=  2684354560 cpu:               5.8 elap:               0.3
 (Enter /usr/local/g16_AVX//g16/l502.exe)
 Keep R1 ints in memory in canonical form, NReq=35752935.
 FoFCou: FMM=F IPFlag=           0 FMFlag=           0 FMFlg1=           0
         NFxFlg=           0 DoJE=F BraDBF=F KetDBF=F FulRan=T
         wScrn=  0.000000 ICntrl=       600 IOpCl=  0 I1Cent=           0 NGrid=           0
         NMat0=    1 NMatS0=   4851 NMatT0=    0 NMatD0=    1 NMtDS0=    0 NMtDT0=    0
 Symmetry not used in FoFCou.
 Two-electron integral symmetry not used.
 Closed shell SCF:
 Using DIIS extrapolation, IDIIS=  1040.
 NGot=  2684354560 LenX=  2672563405 LenY=  2672553360
 Requested convergence on RMS density matrix=1.00D-08 within 128 cycles.
 Requested convergence on MAX density matrix=1.00D-06.
 Requested convergence on             energy=1.00D-06.
 No special actions if energy rises.

 Cycle   1  Pass 1  IDiag  1:
 E= -592.836824089242    
 DIIS: error= 3.44D-02 at cycle   1 NSaved=   1.
 NSaved= 1 IEnMin= 1 EnMin= -592.836824089242     IErMin= 1 ErrMin= 3.44D-02
 ErrMax= 3.44D-02  0.00D+00 EMaxC= 1.00D-01 BMatC= 1.30D-01 BMatP= 1.30D-01
 IDIUse=3 WtCom= 6.56D-01 WtEn= 3.44D-01
 Coeff-Com:  0.100D+01
 Coeff-En:   0.100D+01
 Coeff:      0.100D+01
 Gap=     0.390 Goal=   None    Shift=    0.000
 GapD=    0.390 DampG=1.000 DampE=0.500 DampFc=0.5000 IDamp=-1.
 Damping current iteration by 5.00D-01
 RMSDP=7.38D-02 MaxDP=2.51D+00              OVMax= 3.85D-01

 Cycle   2  Pass 1  IDiag  1:
 E= -592.872177479124     Delta-E=       -0.035353389882 Rises=F Damp=T
 DIIS: error= 1.11D-02 at cycle   2 NSaved=   2.
 NSaved= 2 IEnMin= 2 EnMin= -592.872177479124     IErMin= 2 ErrMin= 1.11D-02
 ErrMax= 1.11D-02  0.00D+00 EMaxC= 1.00D-01 BMatC= 1.70D-02 BMatP= 1.30D-01
 IDIUse=3 WtCom= 8.89D-01 WtEn= 1.11D-01
 Coeff-Com:  0.200D+00 0.800D+00
 Coeff-En:   0.375D+00 0.625D+00
 Coeff:      0.219D+00 0.781D+00
 Gap=     0.202 Goal=   None    Shift=    0.000
 RMSDP=3.58D-02 MaxDP=1.26D+00 DE=-3.54D-02 OVMax= 2.85D-01

 Cycle   3  Pass 1  IDiag  1:
 E= -592.978589070178     Delta-E=       -0.106411591054 Rises=F Damp=F
 DIIS: error= 1.57D-02 at cycle   3 NSaved=   3.
 NSaved= 3 IEnMin= 3 EnMin= -592.978589070178     IErMin= 2 ErrMin= 1.11D-02
 ErrMax= 1.57D-02  0.00D+00 EMaxC= 1.00D-01 BMatC= 1.28D-02 BMatP= 1.70D-02
 IDIUse=3 WtCom= 8.43D-01 WtEn= 1.57D-01
 Coeff-Com:  0.630D-01 0.466D+00 0.471D+00
 Coeff-En:   0.000D+00 0.000D+00 0.100D+01
 Coeff:      0.531D-01 0.393D+00 0.554D+00
 Gap=     0.203 Goal=   None    Shift=    0.000
 RMSDP=1.89D-03 MaxDP=3.66D-02 DE=-1.06D-01 OVMax= 6.42D-02

 Cycle   4  Pass 1  IDiag  1:
 E= -592.983133287716     Delta-E=       -0.004544217538 Rises=F Damp=F
 DIIS: error= 1.35D-02 at cycle   4 NSaved=   4.
 NSaved= 4 IEnMin= 4 EnMin= -592.983133287716     IErMin= 2 ErrMin= 1.11D-02
 ErrMax= 1.35D-02  0.00D+00 EMaxC= 1.00D-01 BMatC= 8.22D-03 BMatP= 1.28D-02
 IDIUse=3 WtCom= 8.65D-01 WtEn= 1.35D-01
 Coeff-Com: -0.114D-01 0.986D-01 0.438D+00 0.475D+00
 Coeff-En:   0.000D+00 0.000D+00 0.411D+00 0.589D+00
 Coeff:     -0.986D-02 0.852D-01 0.434D+00 0.490D+00
 Gap=     0.189 Goal=   None    Shift=    0.000
 RMSDP=1.17D-03 MaxDP=1.76D-02 DE=-4.54D-03 OVMax= 3.30D-02

 Cycle   5  Pass 1  IDiag  1:
 E= -592.990301313898     Delta-E=       -0.007168026182 Rises=F Damp=F
 DIIS: error= 2.56D-03 at cycle   5 NSaved=   5.
 NSaved= 5 IEnMin= 5 EnMin= -592.990301313898     IErMin= 5 ErrMin= 2.56D-03
 ErrMax= 2.56D-03  0.00D+00 EMaxC= 1.00D-01 BMatC= 4.26D-04 BMatP= 8.22D-03
 IDIUse=3 WtCom= 9.74D-01 WtEn= 2.56D-02
 Coeff-Com: -0.100D-01 0.263D-01 0.205D+00 0.285D+00 0.493D+00
 Coeff-En:   0.000D+00 0.000D+00 0.000D+00 0.903D-02 0.991D+00
 Coeff:     -0.977D-02 0.256D-01 0.200D+00 0.278D+00 0.506D+00
 Gap=     0.193 Goal=   None    Shift=    0.000
 RMSDP=4.74D-04 MaxDP=7.02D-03 DE=-7.17D-03 OVMax= 1.07D-02

 Cycle   6  Pass 1  IDiag  1:
 E= -592.990765931069     Delta-E=       -0.000464617171 Rises=F Damp=F
 DIIS: error= 3.94D-04 at cycle   6 NSaved=   6.
 NSaved= 6 IEnMin= 6 EnMin= -592.990765931069     IErMin= 6 ErrMin= 3.94D-04
 ErrMax= 3.94D-04  0.00D+00 EMaxC= 1.00D-01 BMatC= 1.51D-05 BMatP= 4.26D-04
 IDIUse=3 WtCom= 9.96D-01 WtEn= 3.94D-03
 Coeff-Com: -0.325D-02 0.979D-03 0.572D-01 0.864D-01 0.232D+00 0.627D+00
 Coeff-En:   0.000D+00 0.000D+00 0.000D+00 0.000D+00 0.000D+00 0.100D+01
 Coeff:     -0.324D-02 0.975D-03 0.569D-01 0.860D-01 0.231D+00 0.628D+00
 Gap=     0.193 Goal=   None    Shift=    0.000
 RMSDP=7.80D-05 MaxDP=1.68D-03 DE=-4.65D-04 OVMax= 1.40D-03

 Cycle   7  Pass 1  IDiag  1:
 E= -592.990781220181     Delta-E=       -0.000015289113 Rises=F Damp=F
 DIIS: error= 6.26D-05 at cycle   7 NSaved=   7.
 NSaved= 7 IEnMin= 7 EnMin= -592.990781220181     IErMin= 7 ErrMin= 6.26D-05
 ErrMax= 6.26D-05  0.00D+00 EMaxC= 1.00D-01 BMatC= 4.98D-07 BMatP= 1.51D-05
 IDIUse=1 WtCom= 1.00D+00 WtEn= 0.00D+00
 Coeff-Com: -0.154D-03-0.103D-02 0.478D-02 0.727D-02 0.396D-01 0.215D+00
 Coeff-Com:  0.734D+00
 Coeff:     -0.154D-03-0.103D-02 0.478D-02 0.727D-02 0.396D-01 0.215D+00
 Coeff:      0.734D+00
 Gap=     0.193 Goal=   None    Shift=    0.000
 RMSDP=2.43D-05 MaxDP=4.03D-04 DE=-1.53D-05 OVMax= 4.46D-04

 Cycle   8  Pass 1  IDiag  1:
 E= -592.990781784090     Delta-E=       -0.000000563908 Rises=F Damp=F
 DIIS: error= 2.05D-05 at cycle   8 NSaved=   8.
 NSaved= 8 IEnMin= 8 EnMin= -592.990781784090     IErMin= 8 ErrMin= 2.05D-05
 ErrMax= 2.05D-05  0.00D+00 EMaxC= 1.00D-01 BMatC= 5.93D-08 BMatP= 4.98D-07
 IDIUse=1 WtCom= 1.00D+00 WtEn= 0.00D+00
 Coeff-Com:  0.237D-03-0.764D-03-0.185D-02-0.251D-02 0.274D-02 0.531D-01
 Coeff-Com:  0.321D+00 0.628D+00
 Coeff:      0.237D-03-0.764D-03-0.185D-02-0.251D-02 0.274D-02 0.531D-01
 Coeff:      0.321D+00 0.628D+00
 Gap=     0.193 Goal=   None    Shift=    0.000
 RMSDP=4.28D-06 MaxDP=1.14D-04 DE=-5.64D-07 OVMax= 8.68D-05

 Cycle   9  Pass 1  IDiag  1:
 E= -592.990781851449     Delta-E=       -0.000000067360 Rises=F Damp=F
 DIIS: error= 3.21D-06 at cycle   9 NSaved=   9.
 NSaved= 9 IEnMin= 9 EnMin= -592.990781851449     IErMin= 9 ErrMin= 3.21D-06
 ErrMax= 3.21D-06  0.00D+00 EMaxC= 1.00D-01 BMatC= 1.23D-09 BMatP= 5.93D-08
 IDIUse=1 WtCom= 1.00D+00 WtEn= 0.00D+00
 Coeff-Com:  0.758D-04-0.136D-03-0.585D-03-0.744D-03-0.966D-03 0.164D-02
 Coeff-Com:  0.379D-01 0.171D+00 0.792D+00
 Coeff:      0.758D-04-0.136D-03-0.585D-03-0.744D-03-0.966D-03 0.164D-02
 Coeff:      0.379D-01 0.171D+00 0.792D+00
 Gap=     0.193 Goal=   None    Shift=    0.000
 RMSDP=1.38D-06 MaxDP=3.14D-05 DE=-6.74D-08 OVMax= 1.00D-05

 Cycle  10  Pass 1  IDiag  1:
 E= -592.990781852866     Delta-E=       -0.000000001417 Rises=F Damp=F
 DIIS: error= 4.40D-07 at cycle  10 NSaved=  10.
 NSaved=10 IEnMin=10 EnMin= -592.990781852866     IErMin=10 ErrMin= 4.40D-07
 ErrMax= 4.40D-07  0.00D+00 EMaxC= 1.00D-01 BMatC= 1.44D-11 BMatP= 1.23D-09
 IDIUse=1 WtCom= 1.00D+00 WtEn= 0.00D+00
 Coeff-Com:  0.428D-05 0.108D-05-0.347D-04-0.381D-04-0.165D-03-0.876D-03
 Coeff-Com: -0.449D-02 0.110D-01 0.994D-01 0.895D+00
 Coeff:      0.428D-05 0.108D-05-0.347D-04-0.381D-04-0.165D-03-0.876D-03
 Coeff:     -0.449D-02 0.110D-01 0.994D-01 0.895D+00
 Gap=     0.193 Goal=   None    Shift=    0.000
 RMSDP=1.24D-07 MaxDP=3.06D-06 DE=-1.42D-09 OVMax= 2.28D-06

 Cycle  11  Pass 1  IDiag  1:
 E= -592.990781852883     Delta-E=       -0.000000000017 Rises=F Damp=F
 DIIS: error= 7.62D-08 at cycle  11 NSaved=  11.
 NSaved=11 IEnMin=11 EnMin= -592.990781852883     IErMin=11 ErrMin= 7.62D-08
 ErrMax= 7.62D-08  0.00D+00 EMaxC= 1.00D-01 BMatC= 3.74D-13 BMatP= 1.44D-11
 IDIUse=1 WtCom= 1.00D+00 WtEn= 0.00D+00
 Coeff-Com: -0.805D-06 0.190D-05-0.117D-05 0.368D-06-0.191D-04-0.800D-04
 Coeff-Com: -0.737D-03-0.502D-03 0.352D-02 0.109D+00 0.889D+00
 Coeff:     -0.805D-06 0.190D-05-0.117D-05 0.368D-06-0.191D-04-0.800D-04
 Coeff:     -0.737D-03-0.502D-03 0.352D-02 0.109D+00 0.889D+00
 Gap=     0.193 Goal=   None    Shift=    0.000
 RMSDP=1.18D-08 MaxDP=1.71D-07 DE=-1.68D-11 OVMax= 1.91D-07

 Cycle  12  Pass 1  IDiag  1:
 E= -592.990781852884     Delta-E=       -0.000000000002 Rises=F Damp=F
 DIIS: error= 8.68D-09 at cycle  12 NSaved=  12.
 NSaved=12 IEnMin=12 EnMin= -592.990781852884     IErMin=12 ErrMin= 8.68D-09
 ErrMax= 8.68D-09  0.00D+00 EMaxC= 1.00D-01 BMatC= 7.96D-15 BMatP= 3.74D-13
 IDIUse=1 WtCom= 1.00D+00 WtEn= 0.00D+00
 Coeff-Com: -0.267D-06 0.342D-06-0.277D-06-0.211D-06-0.143D-05 0.989D-07
 Coeff-Com: -0.405D-05-0.340D-03-0.122D-02 0.183D-02 0.159D+00 0.841D+00
 Coeff:     -0.267D-06 0.342D-06-0.277D-06-0.211D-06-0.143D-05 0.989D-07
 Coeff:     -0.405D-05-0.340D-03-0.122D-02 0.183D-02 0.159D+00 0.841D+00
 Gap=     0.193 Goal=   None    Shift=    0.000
 RMSDP=4.17D-09 MaxDP=7.31D-08 DE=-1.82D-12 OVMax= 5.52D-08

 SCF Done:  E(RB3LYP) =  -592.990781853     A.U. after   12 cycles
            NFock= 12  Conv=0.42D-08     -V/T= 2.0046
 KE= 5.902813514702D+02 PE=-1.629995622017D+03 EE= 3.366971961748D+02
 Leave Link  502 at Sun Oct 13 09:51:18 2024, MaxMem=  2684354560 cpu:              35.6 elap:               1.7
 (Enter /usr/local/g16_AVX//g16/l801.exe)
 DoSCS=F DFT=T ScalE2(SS,OS)=  1.000000  1.000000
 Range of M.O.s used for correlation:     1    98
 NBasis=    98 NAE=    20 NBE=    20 NFC=     0 NFV=     0
 NROrb=     98 NOA=    20 NOB=    20 NVA=    78 NVB=    78

 **** Warning!!: The largest alpha MO coefficient is  0.30204041D+02

 Leave Link  801 at Sun Oct 13 09:51:18 2024, MaxMem=  2684354560 cpu:               0.7 elap:               0.1
 (Enter /usr/local/g16_AVX//g16/l1101.exe)
 Using compressed storage, NAtomX=     7.
 Will process      8 centers per pass.
 Leave Link 1101 at Sun Oct 13 09:51:18 2024, MaxMem=  2684354560 cpu:               3.6 elap:               0.2
 (Enter /usr/local/g16_AVX//g16/l1102.exe)
 Symmetrizing basis deriv contribution to polar:
 IMax=3 JMax=2 DiffMx= 0.00D+00
 Leave Link 1102 at Sun Oct 13 09:51:18 2024, MaxMem=  2684354560 cpu:               0.7 elap:               0.1
 (Enter /usr/local/g16_AVX//g16/l1110.exe)
 Forming Gx(P) for the SCF density, NAtomX=     7.
 Integral derivatives from FoFJK, PRISM(SPDF).
 Do as many integral derivatives as possible in FoFJK.
 G2DrvN: MDV=    2684353864.
 G2DrvN: will do     8 centers at a time, making    1 passes.
 Calling FoFCou, ICntrl=  3107 FMM=F I1Cent=   0 AccDes= 0.00D+00.
 FoFJK:  IHMeth= 1 ICntrl=    3107 DoSepK=F KAlg= 0 I1Cent=           0 FoldK=F
 IRaf=         0 NMat=       1 IRICut=       1 DoRegI=T DoRafI=F ISym2E= 0 IDoP0=0 IntGTp=1.
 FoFCou: FMM=F IPFlag=           0 FMFlag=      100000 FMFlg1=           0
         NFxFlg=           0 DoJE=F BraDBF=F KetDBF=F FulRan=T
         wScrn=  0.000000 ICntrl=      3107 IOpCl=  0 I1Cent=           0 NGrid=           0
         NMat0=    1 NMatS0=      1 NMatT0=    0 NMatD0=    1 NMtDS0=    0 NMtDT0=    0
 Symmetry not used in FoFCou.
 End of G2Drv F.D. properties file   721 does not exist.
 End of G2Drv F.D. properties file   722 does not exist.
 End of G2Drv F.D. properties file   788 does not exist.
 Leave Link 1110 at Sun Oct 13 09:51:20 2024, MaxMem=  2684354560 cpu:              38.7 elap:               1.5
 (Enter /usr/local/g16_AVX//g16/l1002.exe)
 Minotr:  Closed shell wavefunction.
          IDoAtm=1111111
          Direct CPHF calculation.
          Differentiating once with respect to electric field.
                with respect to dipole field.
          Differentiating once with respect to nuclear coordinates.
          Requested convergence is 1.0D-08 RMS, and 1.0D-07 maximum.
          Secondary convergence is 1.0D-12 RMS, and 1.0D-12 maximum.
          NewPWx=T KeepS1=F KeepF1=F KeepIn=T MapXYZ=F SortEE=F KeepMc=T.
         2136 words used for storage of precomputed grid.
 Keep R1 ints in memory in canonical form, NReq=35668397.
 FoFCou: FMM=F IPFlag=           0 FMFlag=           0 FMFlg1=           0
         NFxFlg=           0 DoJE=F BraDBF=F KetDBF=F FulRan=T
         wScrn=  0.000000 ICntrl=       600 IOpCl=  0 I1Cent=           0 NGrid=           0
         NMat0=    1 NMatS0=   4851 NMatT0=    0 NMatD0=    1 NMtDS0=    0 NMtDT0=    0
 Symmetry not used in FoFCou.
 Two-electron integral symmetry not used.
          MDV=    2684354560 using IRadAn=       1.
          Solving linear equations simultaneously, MaxMat=       0.
          There are    24 degrees of freedom in the 1st order CPHF.  IDoFFX=6 NUNeed=     3.
     21 vectors produced by pass  0 Test12= 6.50D-15 4.17D-09 XBig12= 1.14D+02 6.41D+00.
 AX will form    21 AO Fock derivatives at one time.
     21 vectors produced by pass  1 Test12= 6.50D-15 4.17D-09 XBig12= 4.27D+01 1.72D+00.
     21 vectors produced by pass  2 Test12= 6.50D-15 4.17D-09 XBig12= 7.30D-01 2.09D-01.
     21 vectors produced by pass  3 Test12= 6.50D-15 4.17D-09 XBig12= 9.20D-03 2.02D-02.
     21 vectors produced by pass  4 Test12= 6.50D-15 4.17D-09 XBig12= 3.60D-05 1.36D-03.
     17 vectors produced by pass  5 Test12= 6.50D-15 4.17D-09 XBig12= 8.38D-08 6.50D-05.
      6 vectors produced by pass  6 Test12= 6.50D-15 4.17D-09 XBig12= 7.49D-11 2.10D-06.
      1 vectors produced by pass  7 Test12= 6.50D-15 4.17D-09 XBig12= 5.34D-14 4.30D-08.
 InvSVY:  IOpt=1 It=  1 EMax= 4.91D-15
 Solved reduced A of dimension   129 with    24 vectors.
 FullF1:  Do perturbations      1 to       3.
 Isotropic polarizability for W=    0.000000       61.78 Bohr**3.
 End of Minotr F.D. properties file   721 does not exist.
 End of Minotr F.D. properties file   722 does not exist.
 End of Minotr F.D. properties file   788 does not exist.
 Leave Link 1002 at Sun Oct 13 09:51:22 2024, MaxMem=  2684354560 cpu:              52.7 elap:               2.1
 (Enter /usr/local/g16_AVX//g16/l601.exe)
 Copying SCF densities to generalized density rwf, IOpCl= 0 IROHF=0.

 **********************************************************************

            Population analysis using the SCF Density.

 **********************************************************************

 Alpha  occ. eigenvalues -- -101.38408 -14.10740 -10.10263  -9.97301  -9.29952
 Alpha  occ. eigenvalues --   -7.06183  -7.05464  -7.05464  -0.67422  -0.66164
 Alpha  occ. eigenvalues --   -0.53848  -0.30132  -0.30128  -0.24577  -0.19046
 Alpha  occ. eigenvalues --   -0.15928  -0.15927  -0.10996  -0.10996  -0.08039
 Alpha virt. eigenvalues --    0.11253   0.12821   0.14818   0.14818   0.16514
 Alpha virt. eigenvalues --    0.19502   0.20621   0.20621   0.22172   0.22174
 Alpha virt. eigenvalues --    0.24741   0.25030   0.25031   0.26698   0.26740
 Alpha virt. eigenvalues --    0.26740   0.31313   0.34224   0.34227   0.37107
 Alpha virt. eigenvalues --    0.38206   0.38211   0.38211   0.46508   0.47686
 Alpha virt. eigenvalues --    0.70264   0.75314   0.75639   0.75640   0.78818
 Alpha virt. eigenvalues --    0.78819   0.88458   0.88745   0.88746   0.98976
 Alpha virt. eigenvalues --    1.02018   1.02020   1.04238   1.06757   1.06759
 Alpha virt. eigenvalues --    1.09605   1.09611   1.12304   1.18372   1.18372
 Alpha virt. eigenvalues --    1.25538   1.32593   1.35633   1.49959   1.59959
 Alpha virt. eigenvalues --    1.59966   1.76829   1.76829   1.79164   1.79164
 Alpha virt. eigenvalues --    1.82055   2.14620   2.18880   2.18887   2.19285
 Alpha virt. eigenvalues --    2.19293   2.21209   2.54603   2.54618   2.62442
 Alpha virt. eigenvalues --    2.82308   2.82309   2.83936   2.95744   2.95765
 Alpha virt. eigenvalues --    3.26110   3.41836   3.56433   3.56449   4.21041
 Alpha virt. eigenvalues --    4.45655   4.46924   4.55864
          Condensed to atoms (all electrons):
               1          2          3          4          5          6
     1  C    5.481957  -0.169354   0.427401   0.427417   0.427418  -0.209391
     2  Cl  -0.169354  17.544482  -0.050580  -0.050538  -0.050536   0.107767
     3  H    0.427401  -0.050580   0.501848  -0.022139  -0.022139  -0.044198
     4  H    0.427417  -0.050538  -0.022139   0.501784  -0.022098  -0.044256
     5  H    0.427418  -0.050536  -0.022139  -0.022098   0.501783  -0.044259
     6  C   -0.209391   0.107767  -0.044198  -0.044256  -0.044259   5.931801
     7  N   -0.011567  -0.003753  -0.000935  -0.000934  -0.000934   0.693744
               7
     1  C   -0.011567
     2  Cl  -0.003753
     3  H   -0.000935
     4  H   -0.000934
     5  H   -0.000934
     6  C    0.693744
     7  N    6.864076
 Mulliken charges:
               1
     1  C   -0.373880
     2  Cl  -0.327490
     3  H    0.210742
     4  H    0.210764
     5  H    0.210766
     6  C   -0.391207
     7  N   -0.539695
 Sum of Mulliken charges =  -1.00000
 Mulliken charges with hydrogens summed into heavy atoms:
               1
     1  C    0.258391
     2  Cl  -0.327490
     6  C   -0.391207
     7  N   -0.539695
 APT charges:
               1
     1  C    0.926048
     2  Cl  -0.868257
     3  H    0.001863
     4  H    0.001929
     5  H    0.001931
     6  C   -0.421388
     7  N   -0.642127
 Sum of APT charges =  -1.00000
 APT charges with hydrogens summed into heavy atoms:
               1
     1  C    0.931771
     2  Cl  -0.868257
     6  C   -0.421388
     7  N   -0.642127
 Electronic spatial extent (au):  <R**2>=            848.9884
 Charge=             -1.0000 electrons
 Dipole moment (field-independent basis, Debye):
    X=             -7.8100    Y=              0.0000    Z=             -0.0006  Tot=              7.8100
 Quadrupole moment (field-independent basis, Debye-Ang):
   XX=            -88.0732   YY=            -35.3635   ZZ=            -35.3646
   XY=              0.0000   XZ=             -0.0011   YZ=              0.0000
 Traceless Quadrupole moment (field-independent basis, Debye-Ang):
   XX=            -35.1395   YY=             17.5703   ZZ=             17.5692
   XY=              0.0000   XZ=             -0.0011   YZ=              0.0000
 Octapole moment (field-independent basis, Debye-Ang**2):
  XXX=           -157.8639  YYY=             -0.0067  ZZZ=             -0.9555  XYY=             -9.7102
  XXY=              0.0002  XXZ=             -0.0085  XZZ=             -9.7109  YZZ=              0.0066
  YYZ=              0.9570  XYZ=             -0.0000
 Hexadecapole moment (field-independent basis, Debye-Ang**3):
 XXXX=          -1792.4038 YYYY=            -55.7232 ZZZZ=            -55.7224 XXXY=              0.0015
 XXXZ=             -0.0462 YYYX=             -0.0007 YYYZ=              0.0000 ZZZX=             -0.1428
 ZZZY=             -0.0000 XXYY=           -218.1384 XXZZ=           -218.1386 YYZZ=            -18.5752
 XXYZ=             -0.0000 YYXZ=              0.1353 ZZXY=              0.0010
 N-N= 1.100262925195D+02 E-N=-1.629995620990D+03  KE= 5.902813514702D+02
  Exact polarizability: 106.995  -0.000  39.177   0.003   0.000  39.177
 Approx polarizability: 133.816  -0.000  49.164   0.006   0.000  49.162
 No NMR shielding tensors so no spin-rotation constants.
 Leave Link  601 at Sun Oct 13 09:51:22 2024, MaxMem=  2684354560 cpu:               2.7 elap:               0.1
 (Enter /usr/local/g16_AVX//g16/l701.exe)
 ... and contract with generalized density number  0.
 Compute integral second derivatives.
 Leave Link  701 at Sun Oct 13 09:51:22 2024, MaxMem=  2684354560 cpu:               4.8 elap:               0.2
 (Enter /usr/local/g16_AVX//g16/l702.exe)
 L702 exits ... SP integral derivatives will be done elsewhere.
 Leave Link  702 at Sun Oct 13 09:51:22 2024, MaxMem=  2684354560 cpu:               0.6 elap:               0.1
 (Enter /usr/local/g16_AVX//g16/l703.exe)
 Integral derivatives from FoFJK, PRISM(SPDF).
 Compute integral second derivatives, UseDBF=F ICtDFT=           0.
 Calling FoFJK, ICntrl=    100127 FMM=F ISym2X=0 I1Cent= 0 IOpClX= 0 NMat=1 NMatS=1 NMatT=0.
 FoFJK:  IHMeth= 1 ICntrl=  100127 DoSepK=F KAlg= 0 I1Cent=           0 FoldK=F
 IRaf=         0 NMat=       1 IRICut=       1 DoRegI=T DoRafI=F ISym2E= 0 IDoP0=0 IntGTp=1.
 FoFCou: FMM=F IPFlag=           0 FMFlag=      100000 FMFlg1=         800
         NFxFlg=           0 DoJE=F BraDBF=F KetDBF=F FulRan=T
         wScrn=  0.000000 ICntrl=    100127 IOpCl=  0 I1Cent=           0 NGrid=           0
         NMat0=    1 NMatS0=      1 NMatT0=    0 NMatD0=    1 NMtDS0=    0 NMtDT0=    0
 Symmetry not used in FoFCou.
 Leave Link  703 at Sun Oct 13 09:51:25 2024, MaxMem=  2684354560 cpu:              66.2 elap:               2.6
 (Enter /usr/local/g16_AVX//g16/l716.exe)
 Dipole        =-3.07270734D+00 6.90904386D-06-2.18238814D-04
 Polarizability= 1.06994815D+02-8.72184197D-05 3.91769920D+01
                 3.34497228D-03 4.10364501D-06 3.91768652D+01
 Full mass-weighted force constant matrix:
 Low frequencies ---  -83.2234  -83.2191  -29.4895  -29.4819   -0.0048   -0.0010
 Low frequencies ---   -0.0006  114.7100  128.3328
 ******    2 imaginary frequencies (negative Signs) ****** 
 Diagonal vibrational polarizability:
      732.7244439       9.8525189       9.8551984
 Harmonic frequencies (cm**-1), IR intensities (KM/Mole), Raman scattering
 activities (A**4/AMU), depolarization ratios for plane and unpolarized
 incident light, reduced masses (AMU), force constants (mDyne/A),
 and normal coordinates:
                      1                      2                      3
                      A                      A                      A
 Frequencies --    -82.5471               -82.5436               128.3328
 Red. masses --      9.8125                 9.8111                10.3381
 Frc consts  --      0.0394                 0.0394                 0.1003
 IR Inten    --      0.3220                 0.3224               395.5967
  Atom  AN      X      Y      Z        X      Y      Z        X      Y      Z
     1   6    -0.00   0.23  -0.02     0.00   0.02   0.23     0.61  -0.00   0.00
     2  17     0.00  -0.11   0.01    -0.00  -0.01  -0.11     0.10   0.00  -0.00
     3   1    -0.02   0.27  -0.02     0.18   0.02   0.27     0.26   0.00  -0.07
     4   1    -0.15   0.27  -0.03    -0.10   0.02   0.27     0.26   0.06   0.04
     5   1     0.17   0.27  -0.02    -0.08   0.03   0.27     0.26  -0.06   0.04
     6   6     0.00   0.62  -0.05    -0.00   0.05   0.62    -0.45   0.00  -0.00
     7   7    -0.00  -0.52   0.04     0.00  -0.04  -0.52    -0.46   0.00  -0.00
                      4                      5                      6
                      A                      A                      A
 Frequencies --    203.0277               203.0494               307.6351
 Red. masses --      4.0947                 4.0946                16.2378
 Frc consts  --      0.0994                 0.0995                 0.9054
 IR Inten    --     13.0272                13.0276               299.5288
  Atom  AN      X      Y      Z        X      Y      Z        X      Y      Z
     1   6    -0.00  -0.01   0.43     0.00   0.43   0.01    -0.70  -0.00   0.00
     2  17    -0.00   0.00  -0.10     0.00  -0.10  -0.00     0.48   0.00  -0.00
     3   1     0.19  -0.01   0.49     0.01   0.47   0.01    -0.14  -0.00   0.12
     4   1    -0.09  -0.01   0.47    -0.17   0.48   0.02    -0.14  -0.10  -0.06
     5   1    -0.10  -0.02   0.47     0.16   0.48   0.01    -0.14   0.10  -0.06
     6   6     0.00   0.01  -0.26    -0.00  -0.26  -0.01    -0.30   0.00   0.00
     7   7     0.00  -0.00   0.01    -0.00   0.01   0.00    -0.30   0.00  -0.00
                      7                      8                      9
                      A                      A                      A
 Frequencies --    991.4160               991.4627              1203.9044
 Red. masses --      1.0842                 1.0842                 1.0643
 Frc consts  --      0.6279                 0.6279                 0.9088
 IR Inten    --      0.0318                 0.0316                57.4606
  Atom  AN      X      Y      Z        X      Y      Z        X      Y      Z
     1   6    -0.00   0.01  -0.08     0.00   0.08   0.01    -0.06   0.00   0.00
     2  17    -0.00  -0.00   0.02     0.00  -0.02  -0.00    -0.02  -0.00   0.00
     3   1     0.78  -0.02   0.11    -0.07  -0.17  -0.01     0.56  -0.00   0.13
     4   1    -0.33  -0.04   0.16     0.71  -0.12   0.01     0.56  -0.11  -0.07
     5   1    -0.45   0.02   0.15    -0.65  -0.13  -0.04     0.56   0.11  -0.06
     6   6     0.00   0.00  -0.01    -0.00   0.01   0.00    -0.01   0.00   0.00
     7   7     0.00  -0.00   0.00    -0.00  -0.00  -0.00    -0.01   0.00  -0.00
                     10                     11                     12
                      A                      A                      A
 Frequencies --   1435.7702              1435.9114              2170.9489
 Red. masses --      1.0780                 1.0780                12.7929
 Frc consts  --      1.3094                 1.3096                35.5238
 IR Inten    --      5.8305                 5.8247                 9.9370
  Atom  AN      X      Y      Z        X      Y      Z        X      Y      Z
     1   6    -0.00  -0.00  -0.08     0.00  -0.08   0.00    -0.00   0.00  -0.00
     2  17     0.00  -0.00  -0.00    -0.00  -0.00   0.00    -0.00   0.00   0.00
     3   1    -0.22   0.01  -0.11     0.00   0.78   0.00    -0.03   0.00  -0.01
     4   1     0.11  -0.39   0.55     0.19   0.11  -0.39    -0.03   0.01   0.00
     5   1     0.11   0.38   0.56    -0.19   0.11   0.38    -0.03  -0.01   0.00
     6   6    -0.00  -0.00  -0.00    -0.00  -0.00   0.00     0.76  -0.00   0.00
     7   7    -0.00   0.00   0.00     0.00   0.00  -0.00    -0.64   0.00  -0.00
                     13                     14                     15
                      A                      A                      A
 Frequencies --   3159.0722              3318.8392              3318.9246
 Red. masses --      1.0174                 1.1170                 1.1170
 Frc consts  --      5.9820                 7.2492                 7.2494
 IR Inten    --      5.1682                 0.1203                 0.1178
  Atom  AN      X      Y      Z        X      Y      Z        X      Y      Z
     1   6     0.03  -0.00   0.00     0.00  -0.10   0.00     0.00  -0.00  -0.10
     2  17    -0.00   0.00  -0.00    -0.00   0.00  -0.00    -0.00   0.00   0.00
     3   1    -0.12  -0.00   0.56     0.01  -0.02  -0.02    -0.18  -0.00   0.79
     4   1    -0.12  -0.49  -0.28     0.16   0.58   0.35     0.10   0.37   0.20
     5   1    -0.12   0.49  -0.28    -0.16   0.60  -0.35     0.09  -0.33   0.17
     6   6     0.00   0.00  -0.00     0.00   0.00  -0.00    -0.00   0.00   0.00
     7   7     0.00  -0.00   0.00    -0.00  -0.00   0.00     0.00  -0.00  -0.00

 -------------------
 - Thermochemistry -
 -------------------
 Temperature   298.150 Kelvin.  Pressure   1.00000 Atm.
 Atom     1 has atomic number  6 and mass  12.00000
 Atom     2 has atomic number 17 and mass  34.96885
 Atom     3 has atomic number  1 and mass   1.00783
 Atom     4 has atomic number  1 and mass   1.00783
 Atom     5 has atomic number  1 and mass   1.00783
 Atom     6 has atomic number  6 and mass  12.00000
 Atom     7 has atomic number  7 and mass  14.00307
 Molecular mass:    75.99540 amu.
 Principal axes and moments of inertia in atomic units:
                           1         2         3
     Eigenvalues --    11.895011460.540281460.54246
           X            1.00000   0.00000  -0.00001
           Y           -0.00000   0.99999  -0.00518
           Z            0.00001   0.00518   0.99999
 This molecule is an asymmetric top.
 Rotational symmetry number  1.
 Rotational temperatures (Kelvin)      7.28153     0.05930     0.05930
 Rotational constants (GHZ):         151.72249     1.23567     1.23567
    2 imaginary frequencies ignored.
 Zero-point vibrational energy     112857.5 (Joules/Mol)
                                   26.97358 (Kcal/Mol)
 Warning -- explicit consideration of   4 degrees of freedom as
           vibrations may cause significant error
 Vibrational temperatures:    184.64   292.11   292.14   442.62  1426.43
          (Kelvin)           1426.49  1732.15  2065.75  2065.96  3123.51
                             4545.20  4775.07  4775.19
 
 Zero-point correction=                           0.042985 (Hartree/Particle)
 Thermal correction to Energy=                    0.048128
 Thermal correction to Enthalpy=                  0.049072
 Thermal correction to Gibbs Free Energy=         0.014641
 Sum of electronic and zero-point Energies=           -592.947797
 Sum of electronic and thermal Energies=              -592.942654
 Sum of electronic and thermal Enthalpies=            -592.941710
 Sum of electronic and thermal Free Energies=         -592.976140
 
                     E (Thermal)             CV                S
                      KCal/Mol        Cal/Mol-Kelvin    Cal/Mol-Kelvin
 Total                   30.201             14.386             72.465
 Electronic               0.000              0.000              0.000
 Translational            0.889              2.981             38.900
 Rotational               0.889              2.981             24.743
 Vibrational             28.423              8.424              8.823
 Vibration     1          0.611              1.925              2.971
 Vibration     2          0.639              1.836              2.105
 Vibration     3          0.639              1.836              2.105
 Vibration     4          0.698              1.659              1.375
                       Q            Log10(Q)             Ln(Q)
 Total Bot       0.184247D-06         -6.734599        -15.506986
 Total V=0       0.108937D+14         13.037175         30.019204
 Vib (Bot)       0.124087D-18        -18.906275        -43.533308
 Vib (Bot)    1  0.158923D+01          0.201186          0.463247
 Vib (Bot)    2  0.980964D+00         -0.008347         -0.019220
 Vib (Bot)    3  0.980851D+00         -0.008397         -0.019335
 Vib (Bot)    4  0.615506D+00         -0.210767         -0.485310
 Vib (V=0)       0.733665D+01          0.865498          1.992883
 Vib (V=0)    1  0.216603D+01          0.335664          0.772894
 Vib (V=0)    2  0.160104D+01          0.204402          0.470654
 Vib (V=0)    3  0.160094D+01          0.204375          0.470591
 Vib (V=0)    4  0.129300D+01          0.111598          0.256965
 Electronic      0.100000D+01          0.000000          0.000000
 Translational   0.260396D+08          7.415635         17.075130
 Rotational      0.570219D+05          4.756042         10.951191
 
                                                       RxCoord=1.49965 DE=50.76
                                                             IR Spectrum
 
      3     3                                    2                            1       1                                              
      3     1                                    1                            4       2        9                         3   2  1    
      1     5                                    7                            3       0        9                         0   0  2    
      9     9                                    1                            6       4        1                         8   3  8    
 
      X     X                                    X                            X       X        X                         X   X  X    
                                                                                      X                                  X      X    
                                                                                      X                                  X      X    
                                                                                                                         X      X    
                                                                                                                         X      X    
                                                                                                                         X      X    
                                                                                                                         X      X    
                                                                                                                         X      X    
                                                                                                                         X      X    
                                                                                                                         X      X    
                                                                                                                         X      X    
                                                                                                                         X      X    
                                                                                                                         X      X    
                                                                                                                         X      X    
                                                                                                                         X      X    
                                                                                                                                X    
                                                                                                                                X    
                                                                                                                                X    
                                                                                                                                X    
                                                                                                                                X    
 
 -------------------------------------------------------------------
 Center     Atomic                   Forces (Hartrees/Bohr)
 Number     Number              X              Y              Z
 -------------------------------------------------------------------
      1        6          -0.011645987   -0.000000325   -0.000018427
      2       17           0.001746230   -0.000000189    0.000007843
      3        1           0.000209818   -0.000002154    0.000978637
      4        1           0.000189946   -0.000877450   -0.000484072
      5        1           0.000189053    0.000879993   -0.000480049
      6        6           0.003558536    0.000000184   -0.000006130
      7        7           0.005752403   -0.000000060    0.000002197
 -------------------------------------------------------------------
 Cartesian Forces:  Max     0.011645987 RMS     0.002988189
 Z-matrix is all fixed cartesians, so copy forces.
 Force constants in Cartesian coordinates: 
                1             2             3             4             5 
      1  0.908386D-01
      2 -0.345108D-05  0.639770D+00
      3  0.104919D-03  0.114725D-05  0.639673D+00
      4 -0.196259D-02  0.000000D+00  0.130955D-05  0.923148D-01
      5  0.000000D+00 -0.306951D-01  0.000000D+00  0.000000D+00  0.172120D-01
      6  0.107835D-05  0.000000D+00 -0.306895D-01 -0.173775D-04  0.000000D+00
      7 -0.358315D-01 -0.169445D-03  0.732045D-01 -0.226812D-01 -0.352138D-04
      8 -0.160848D-03 -0.510120D-01  0.693186D-03  0.134563D-04  0.398918D-03
      9  0.695768D-01  0.693129D-03 -0.350505D+00 -0.587657D-02 -0.146569D-04
     10 -0.358844D-01 -0.634172D-01 -0.368013D-01 -0.226725D-01 -0.131202D-01
     11 -0.602746D-01 -0.275003D+00 -0.129959D+00  0.508869D-02  0.514264D-02
     12 -0.349817D-01 -0.129951D+00 -0.126410D+00  0.295806D-02  0.275525D-02
     13 -0.358860D-01  0.635901D-01 -0.365101D-01 -0.226721D-01  0.131549D-01
     14  0.604392D-01 -0.276199D+00  0.129265D+00 -0.510272D-02  0.516822D-02
     15 -0.347050D-01  0.129257D+00 -0.125211D+00  0.293461D-02 -0.274057D-02
     16  0.515039D-02  0.000000D+00  0.210657D-05 -0.125688D-01  0.000000D+00
     17  0.000000D+00 -0.892084D-02  0.000000D+00  0.000000D+00  0.334695D-02
     18 -0.183294D-05  0.000000D+00 -0.891689D-02  0.489229D-05  0.000000D+00
     19  0.135754D-01  0.000000D+00 -0.145889D-05 -0.975761D-02  0.000000D+00
     20  0.000000D+00  0.205939D-02  0.000000D+00  0.000000D+00 -0.573657D-03
     21  0.565589D-05  0.000000D+00  0.205878D-02 -0.492982D-05  0.000000D+00
                6             7             8             9            10 
      6  0.172125D-01
      7  0.151799D-01  0.598240D-01
      8 -0.144878D-04  0.166503D-03  0.457239D-01
      9  0.673754D-02 -0.719426D-01 -0.726998D-03  0.359794D+00
     10 -0.761257D-02  0.281408D-02  0.547287D-02  0.383076D-02  0.598804D-01
     11  0.275238D-02 -0.550621D-03  0.310107D-02  0.317052D-02  0.623224D-01
     12  0.199614D-02 -0.666740D-02 -0.243195D-01 -0.923527D-02  0.361633D-01
     13 -0.755175D-02  0.281427D-02 -0.549052D-02  0.380559D-02  0.281415D-02
     14 -0.273786D-02  0.581581D-03  0.300278D-02 -0.311372D-02  0.605075D-02
     15  0.197076D-02 -0.666511D-02  0.243761D-01 -0.913727D-02  0.285799D-02
     16  0.000000D+00 -0.632015D-02  0.000000D+00 -0.959017D-05 -0.633141D-02
     17  0.000000D+00  0.811697D-05 -0.159753D-02 -0.108768D-04  0.303620D-02
     18  0.334617D-02 -0.350757D-02 -0.108990D-04  0.309351D-02  0.176256D-02
     19  0.000000D+00 -0.619459D-03 -0.143488D-05  0.615625D-03 -0.620431D-03
     20  0.000000D+00  0.000000D+00  0.382838D-03  0.260794D-05 -0.344905D-03
     21 -0.573552D-03  0.398281D-03  0.262181D-05 -0.747773D-03 -0.200765D-03
               11            12            13            14            15 
     11  0.280603D+00
     12  0.136288D+00  0.124796D+00
     13 -0.606367D-02  0.282981D-02  0.598819D-01
     14 -0.152924D-01  0.136834D-01 -0.624924D-01  0.281857D+00
     15 -0.137964D-01  0.917228D-02  0.358771D-01 -0.135560D+00  0.123537D+00
     16  0.999510D-05  0.659888D-05 -0.633179D-02 -0.101270D-04  0.657656D-05
     17  0.191202D-02  0.203512D-02 -0.304430D-02  0.193082D-02 -0.202432D-02
     18  0.203597D-02 -0.416440D-03  0.174853D-02 -0.202514D-02 -0.435126D-03
     19 -0.532239D-03 -0.308704D-03 -0.620448D-03  0.533659D-03 -0.306242D-03
     20 -0.463279D-03 -0.490856D-03  0.345851D-03 -0.467826D-03  0.488256D-03
     21 -0.491203D-03  0.978526D-04 -0.199173D-03  0.488585D-03  0.102386D-03
               16            17            18            19            20 
     16  0.117146D+01
     17 -0.947989D-05  0.234072D-02
     18  0.376115D-03  0.000000D+00  0.234163D-02
     19 -0.114506D+01  0.972811D-05 -0.382697D-03  0.114310D+01
     20  0.968458D-05  0.987870D-03  0.000000D+00 -0.971829D-05 -0.192533D-02
     21 -0.381715D-03  0.000000D+00  0.987154D-03  0.382646D-03  0.000000D+00
               21 
     21 -0.192485D-02
 Leave Link  716 at Sun Oct 13 09:51:25 2024, MaxMem=  2684354560 cpu:               0.9 elap:               0.1
 (Enter /usr/local/g16_AVX//g16/l103.exe)

 GradGradGradGradGradGradGradGradGradGradGradGradGradGradGradGradGradGrad
 Berny optimization.
 Search for a local minimum.
 Step number   1 out of a maximum of    2
 All quantities printed in internal units (Hartrees-Bohrs-Radians)
 Second derivative matrix not updated -- analytic derivatives used.
 ITU=  0
     Eigenvalues ---   -0.00292  -0.00292   0.00652   0.00863   0.00863
     Eigenvalues ---    0.05176   0.05176   0.06764   0.09940   0.10807
     Eigenvalues ---    0.10808   0.42498   0.94041   0.94048   2.30145
 Eigenvalue     1 is  -2.92D-03 should be greater than     0.000000 Eigenvector:
                          Y6        Y7        Y2        Y3        Y4
   1                    0.64582  -0.61606  -0.19989   0.18210   0.17756
                          Y5        X5        X4        Y1        Z6
   1                    0.17728   0.15684  -0.14889   0.13685  -0.02755
 Eigenvalue     2 is  -2.92D-03 should be greater than     0.000000 Eigenvector:
                          Z6        Z7        Z2        Z5        Z4
   1                    0.64576  -0.61604  -0.19991   0.18093   0.18061
                          X3        Z3        Z1        X4        X5
   1                    0.17652   0.17556   0.13688  -0.09522  -0.08146
 Quadratic step=1.725D+00 exceeds max=3.000D-01 adjusted using Lamda=-3.200D-02.
 Angle between NR and scaled steps=  10.25 degrees.
 Angle between quadratic step and forces=  22.41 degrees.
 Linear search not attempted -- first point.
 B after Tr=     0.014157   -0.000001    0.000005
         Rot=    1.000000    0.000000   -0.000002   -0.000000 Ang=  -0.00 deg.
 Variable       Old X    -DE/DX   Delta X   Delta X   Delta X     New X
                                 (Linear)    (Quad)   (Total)
    X1       -0.36646  -0.01165   0.00000  -0.21647  -0.20231  -0.56877
    Y1        0.00001  -0.00000   0.00000   0.00000  -0.00000   0.00001
    Z1       -0.00032  -0.00002   0.00000  -0.00011  -0.00010  -0.00042
    X2       -4.09625   0.00175   0.00000   0.00480   0.01896  -4.07729
    Y2       -0.00000  -0.00000   0.00000  -0.00000  -0.00000  -0.00000
    Z2        0.00009   0.00001   0.00000   0.00005   0.00007   0.00015
    X3        0.11840   0.00021   0.00000  -0.04794  -0.03379   0.08461
    Y3        0.00460  -0.00000   0.00000  -0.00007  -0.00007   0.00453
    Z3       -1.98391   0.00098   0.00000   0.03254   0.03255  -1.95136
    X4        0.11924   0.00019   0.00000  -0.04817  -0.03401   0.08523
    Y4        1.71563  -0.00088   0.00000  -0.02840  -0.02840   1.68722
    Z4        0.99501  -0.00048   0.00000  -0.01631  -0.01631   0.97870
    X5        0.11927   0.00019   0.00000  -0.04818  -0.03402   0.08525
    Y5       -1.72018   0.00088   0.00000   0.02848   0.02848  -1.69170
    Z5        0.98706  -0.00048   0.00000  -0.01618  -0.01618   0.97089
    X6        4.46527   0.00356   0.00000   0.12663   0.14079   4.60606
    Y6        0.00001   0.00000   0.00000   0.00000   0.00000   0.00001
    Z6       -0.00029  -0.00001   0.00000  -0.00009  -0.00010  -0.00039
    X7        6.69108   0.00575   0.00000   0.13022   0.14437   6.83545
    Y7       -0.00001  -0.00000   0.00000  -0.00000  -0.00000  -0.00001
    Z7        0.00045   0.00000   0.00000   0.00009   0.00006   0.00051
         Item               Value     Threshold  Converged?
 Maximum Force            0.011646     0.000450     NO 
 RMS     Force            0.002988     0.000300     NO 
 Maximum Displacement     0.202309     0.001800     NO 
 RMS     Displacement     0.064959     0.001200     NO 
 Predicted change in Energy=-3.339508D-03
 GradGradGradGradGradGradGradGradGradGradGradGradGradGradGradGradGradGrad

 Leave Link  103 at Sun Oct 13 09:51:25 2024, MaxMem=  2684354560 cpu:               0.7 elap:               0.1
 (Enter /usr/local/g16_AVX//g16/l9999.exe)

 ----------------------------------------------------------------------

 Electric dipole moment (input orientation):
 (Debye = 10**-18 statcoulomb cm , SI units = C m)
                  (au)            (Debye)         (10**-30 SI)
   Tot        0.307271D+01      0.781004D+01      0.260515D+02
   x         -0.307271D+01     -0.781004D+01     -0.260515D+02
   y          0.000000D+00      0.000000D+00      0.000000D+00
   z         -0.218239D-03     -0.554708D-03     -0.185031D-02

 Dipole polarizability, Alpha (input orientation).
 (esu units = cm**3 , SI units = C**2 m**2 J**-1)
 Alpha(0;0):
               (au)            (10**-24 esu)      (10**-40 SI)
   iso        0.617829D+02      0.915528D+01      0.101866D+02
   aniso      0.678179D+02      0.100496D+02      0.111817D+02
   xx         0.106995D+03      0.158550D+02      0.176411D+02
   yx        -0.872184D-04     -0.129244D-04     -0.143804D-04
   yy         0.391770D+02      0.580543D+01      0.645941D+01
   zx         0.334497D-02      0.495674D-03      0.551511D-03
   zy         0.000000D+00      0.000000D+00      0.000000D+00
   zz         0.391769D+02      0.580541D+01      0.645939D+01

 ----------------------------------------------------------------------

 Dipole orientation:
     6         -0.00029712          0.00001240          0.36645760
    17          0.00037597         -0.00001110          4.09624781
     1         -1.98391847          0.00460810         -0.11826365
     1          0.99500800          1.71562369         -0.11930664
     1          0.98705019         -1.72018185         -0.11934404
     6         -0.00061194          0.00001571         -4.46526973
     7         -0.00002548          0.00000182         -6.69107803

 Electric dipole moment (dipole orientation):
 (Debye = 10**-18 statcoulomb cm , SI units = C m)
                  (au)            (Debye)         (10**-30 SI)
   Tot        0.307271D+01      0.781004D+01      0.260515D+02
   x          0.000000D+00      0.000000D+00      0.000000D+00
   y          0.000000D+00      0.000000D+00      0.000000D+00
   z          0.307271D+01      0.781004D+01      0.260515D+02

 Dipole polarizability, Alpha (dipole orientation).
 (esu units = cm**3 , SI units = C**2 m**2 J**-1)
 Alpha(0;0):
               (au)            (10**-24 esu)      (10**-40 SI)
   iso        0.617829D+02      0.915528D+01      0.101866D+02
   aniso      0.678179D+02      0.100496D+02      0.111817D+02
   xx         0.391769D+02      0.580541D+01      0.645939D+01
   yx         0.000000D+00      0.000000D+00      0.000000D+00
   yy         0.391770D+02      0.580543D+01      0.645941D+01
   zx         0.147179D-02      0.218097D-03      0.242666D-03
   zy        -0.652749D-04     -0.967274D-05     -0.107624D-04
   zz         0.106995D+03      0.158550D+02      0.176411D+02

 ----------------------------------------------------------------------
 1\1\GINC-NODO10\Freq\RB3LYP\6-31++G(d,p)\C2H3Cl1N1(1-)\ALANQF\13-Oct-2
 024\0\\#p b3lyp 6-31++g(d,p) scf=verytight NoSymm freq=noraman int=ult
 rafine\\RxCoord=1.49965 DE=50.76\\-1,1\C,-0.193921,0.000007,-0.000171\
 Cl,-2.167641,-0.000001,0.000045\H,0.062657,0.002436,-1.04984\H,0.06309
 9,0.90787,0.526538\H,0.063115,-0.91028,0.522331\C,2.362919,0.000003,-0
 .000156\N,3.540766,-0.000007,0.000238\\Version=ES64L-G16RevB.01\HF=-59
 2.9907819\RMSD=4.174e-09\RMSF=2.988e-03\ZeroPoint=0.0429851\Thermal=0.
 0481279\Dipole=-3.0175504,0.0000079,-0.0002426\DipoleDeriv=2.636765,0.
 000004,-0.0001252,0.0000099,0.0706547,0.0000004,-0.0003043,0.0000004,0
 .0707228,-1.8397825,-0.0000022,0.0000819,-0.0000037,-0.3824988,0.,0.00
 00818,0.,-0.3824886,-0.0849728,0.000013,-0.0058305,0.0000448,0.0740938
 ,0.0001332,-0.0200866,0.0001334,0.0164676,-0.0848926,0.0050568,0.00293
 82,0.0174767,0.0310685,-0.0249908,0.0101924,-0.0249644,0.0596123,-0.08
 48879,-0.0050711,0.0029145,-0.0175288,0.0308389,0.0248574,0.0101127,0.
 0248307,0.0598433,-0.4535606,-0.0000035,0.0001151,-0.0000061,-0.405298
 4,-0.0000002,0.0002939,-0.0000002,-0.4053051,-1.0886686,0.0000029,-0.0
 00094,0.0000071,-0.4188587,0.,-0.00029,0.,-0.4188522\Polar=106.994815,
 -0.0000872,39.176992,0.003345,0.0000041,39.1768652\Quadrupole=-26.1253
 281,13.0630863,13.0622418,0.0000272,-0.0007943,0.0000034\PG=C01 [X(C2H
 3Cl1N1)]\NImag=2\\0.09083858,-0.00000345,0.63977019,0.00010492,0.00000
 115,0.63967317,-0.00196259,-0.00000004,0.00000131,0.09231479,-0.000000
 05,-0.03069507,0.,0.00000058,0.01721200,0.00000108,0.,-0.03068951,-0.0
 0001738,-0.00000002,0.01721246,-0.03583147,-0.00016945,0.07320455,-0.0
 2268122,-0.00003521,0.01517988,0.05982396,-0.00016085,-0.05101199,0.00
 069319,0.00001346,0.00039892,-0.00001449,0.00016650,0.04572392,0.06957
 682,0.00069313,-0.35050470,-0.00587657,-0.00001466,0.00673754,-0.07194
 263,-0.00072700,0.35979396,-0.03588435,-0.06341715,-0.03680128,-0.0226
 7249,-0.01312018,-0.00761257,0.00281408,0.00547287,0.00383076,0.059880
 45,-0.06027457,-0.27500300,-0.12995931,0.00508869,0.00514264,0.0027523
 8,-0.00055062,0.00310107,0.00317052,0.06232242,0.28060297,-0.03498167,
 -0.12995141,-0.12641033,0.00295806,0.00275525,0.00199614,-0.00666740,-
 0.02431953,-0.00923527,0.03616330,0.13628808,0.12479577,-0.03588597,0.
 06359012,-0.03651015,-0.02267212,0.01315488,-0.00755175,0.00281427,-0.
 00549052,0.00380559,0.00281415,-0.00606367,0.00282981,0.05988191,0.060
 43922,-0.27619866,0.12926494,-0.00510272,0.00516822,-0.00273786,0.0005
 8158,0.00300278,-0.00311372,0.00605075,-0.01529242,0.01368335,-0.06249
 236,0.28185710,-0.03470497,0.12925711,-0.12521052,0.00293461,-0.002740
 57,0.00197076,-0.00666511,0.02437611,-0.00913727,0.00285799,-0.0137964
 3,0.00917228,0.03587714,-0.13556015,0.12353748,0.00515039,-0.00000006,
 0.00000211,-0.01256877,0.00000002,-0.00000009,-0.00632015,-0.00000003,
 -0.00000959,-0.00633141,0.00001000,0.00000660,-0.00633179,-0.00001013,
 0.00000658,1.17145905,-0.00000019,-0.00892084,0.00000004,-0.00000007,0
 .00334695,-0.00000001,0.00000812,-0.00159753,-0.00001088,0.00303620,0.
 00191202,0.00203512,-0.00304430,0.00193082,-0.00202432,-0.00000948,0.0
 0234072,-0.00000183,0.00000003,-0.00891689,0.00000489,-0.00000001,0.00
 334617,-0.00350757,-0.00001090,0.00309351,0.00176256,0.00203597,-0.000
 41644,0.00174853,-0.00202514,-0.00043513,0.00037612,0.00000005,0.00234
 163,0.01357542,0.00000003,-0.00000146,-0.00975761,-0.00000002,0.000000
 83,-0.00061946,-0.00000143,0.00061562,-0.00062043,-0.00053224,-0.00030
 870,-0.00062045,0.00053366,-0.00030624,-1.14505732,0.00000973,-0.00038
 270,1.14309985,-0.00000011,0.00205939,-0.00000001,0.00000012,-0.000573
 66,0.,-0.00000092,0.00038284,0.00000261,-0.00034490,-0.00046328,-0.000
 49086,0.00034585,-0.00046783,0.00048826,0.00000968,0.00098787,0.,-0.00
 000972,-0.00192533,0.00000566,0.,0.00205878,-0.00000493,0.,-0.00057355
 ,0.00039828,0.00000262,-0.00074777,-0.00020077,-0.00049120,0.00009785,
 -0.00019917,0.00048859,0.00010239,-0.00038171,0.,0.00098715,0.00038265
 ,0.,-0.00192485\\0.01164599,0.00000032,0.00001843,-0.00174623,0.000000
 19,-0.00000784,-0.00020982,0.00000215,-0.00097864,-0.00018995,0.000877
 45,0.00048407,-0.00018905,-0.00087999,0.00048005,-0.00355854,-0.000000
 18,0.00000613,-0.00575240,0.00000006,-0.00000220\\\@


 FORGIVE MY NONSENSE AS I ALSO FORGIVE THOSE WHO THINK THEY TALK SENSE

                                                       -- ROBERT FROST
 Job cpu time:       0 days  0 hours  3 minutes 45.9 seconds.
 Elapsed time:       0 days  0 hours  0 minutes  9.8 seconds.
 File lengths (MBytes):  RWF=     88 Int=      0 D2E=      0 Chk=      2 Scr=      2
 Normal termination of Gaussian 16 at Sun Oct 13 09:51:25 2024.
