 Entering Gaussian System, Link 0=g16
 Initial command:
 /usr/local/g16_AVX//g16/l1.exe "/scratch/alanqf/0117-54559.ixchel.mda.cinvestav.mx/Gau-17709.inp" -scrdir="/scratch/alanqf/0117-54559.ixchel.mda.cinvestav.mx/"
 Entering Link 1 = /usr/local/g16_AVX//g16/l1.exe PID=     17710.
  
 Copyright (c) 1988-2017, Gaussian, Inc.  All Rights Reserved.
  
 This is part of the Gaussian(R) 16 program.  It is based on
 the Gaussian(R) 09 system (copyright 2009, Gaussian, Inc.),
 the Gaussian(R) 03 system (copyright 2003, Gaussian, Inc.),
 the Gaussian(R) 98 system (copyright 1998, Gaussian, Inc.),
 the Gaussian(R) 94 system (copyright 1995, Gaussian, Inc.),
 the Gaussian 92(TM) system (copyright 1992, Gaussian, Inc.),
 the Gaussian 90(TM) system (copyright 1990, Gaussian, Inc.),
 the Gaussian 88(TM) system (copyright 1988, Gaussian, Inc.),
 the Gaussian 86(TM) system (copyright 1986, Carnegie Mellon
 University), and the Gaussian 82(TM) system (copyright 1983,
 Carnegie Mellon University). Gaussian is a federally registered
 trademark of Gaussian, Inc.
  
 This software contains proprietary and confidential information,
 including trade secrets, belonging to Gaussian, Inc.
  
 This software is provided under written license and may be
 used, copied, transmitted, or stored only in accord with that
 written license.
  
 The following legend is applicable only to US Government
 contracts under FAR:
  
                    RESTRICTED RIGHTS LEGEND
  
 Use, reproduction and disclosure by the US Government is
 subject to restrictions as set forth in subparagraphs (a)
 and (c) of the Commercial Computer Software - Restricted
 Rights clause in FAR 52.227-19.
  
 Gaussian, Inc.
 340 Quinnipiac St., Bldg. 40, Wallingford CT 06492
  
  
 ---------------------------------------------------------------
 Warning -- This program may not be used in any manner that
 competes with the business of Gaussian, Inc. or will provide
 assistance to any competitor of Gaussian, Inc.  The licensee
 of this program is prohibited from giving any competitor of
 Gaussian, Inc. access to this program.  By using this program,
 the user acknowledges that Gaussian, Inc. is engaged in the
 business of creating and licensing software in the field of
 computational chemistry and represents and warrants to the
 licensee that it is not a competitor of Gaussian, Inc. and that
 it will not use this program in any manner prohibited above.
 ---------------------------------------------------------------
  

 Cite this work as:
 Gaussian 16, Revision B.01,
 M. J. Frisch, G. W. Trucks, H. B. Schlegel, G. E. Scuseria, 
 M. A. Robb, J. R. Cheeseman, G. Scalmani, V. Barone, 
 G. A. Petersson, H. Nakatsuji, X. Li, M. Caricato, A. V. Marenich, 
 J. Bloino, B. G. Janesko, R. Gomperts, B. Mennucci, H. P. Hratchian, 
 J. V. Ortiz, A. F. Izmaylov, J. L. Sonnenberg, D. Williams-Young, 
 F. Ding, F. Lipparini, F. Egidi, J. Goings, B. Peng, A. Petrone, 
 T. Henderson, D. Ranasinghe, V. G. Zakrzewski, J. Gao, N. Rega, 
 G. Zheng, W. Liang, M. Hada, M. Ehara, K. Toyota, R. Fukuda, 
 J. Hasegawa, M. Ishida, T. Nakajima, Y. Honda, O. Kitao, H. Nakai, 
 T. Vreven, K. Throssell, J. A. Montgomery, Jr., J. E. Peralta, 
 F. Ogliaro, M. J. Bearpark, J. J. Heyd, E. N. Brothers, K. N. Kudin, 
 V. N. Staroverov, T. A. Keith, R. Kobayashi, J. Normand, 
 K. Raghavachari, A. P. Rendell, J. C. Burant, S. S. Iyengar, 
 J. Tomasi, M. Cossi, J. M. Millam, M. Klene, C. Adamo, R. Cammi, 
 J. W. Ochterski, R. L. Martin, K. Morokuma, O. Farkas, 
 J. B. Foresman, and D. J. Fox, Gaussian, Inc., Wallingford CT, 2016.
 
 ******************************************
 Gaussian 16:  ES64L-G16RevB.01 20-Dec-2017
                13-Oct-2024 
 ******************************************
 %NProcShared=26
 Will use up to   26 processors via shared memory.
 %MEM=20GB
 %chk=CHKfiles/0117.chk
 ---------------------------------------------------------------------
 #p b3lyp 6-31++g(d,p) scf=verytight NoSymm freq=noraman int=ultrafine
 ---------------------------------------------------------------------
 1/10=4,30=1,38=1/1,3;
 2/12=2,15=1,17=6,18=5,40=1/2;
 3/5=1,6=6,7=1111,11=2,25=1,30=1,71=2,74=-5,75=-5,140=1/1,2,3;
 4//1;
 5/5=2,17=3,38=5,98=1/2;
 8/6=4,10=90,11=11/1;
 11/6=1,8=1,9=11,15=111,16=1,31=1/1,2,10;
 10/6=1,31=1/2;
 6/7=2,8=2,9=2,10=2,28=1/1;
 7/8=1,10=1,25=1,30=1/1,2,3,16;
 1/10=4,30=1/3;
 99//99;
 Leave Link    1 at Sun Oct 13 09:51:15 2024, MaxMem=  2684354560 cpu:               1.6 elap:               0.1
 (Enter /usr/local/g16_AVX//g16/l101.exe)
 ------------------------
 RxCoord=1.59963 DE=50.33
 ------------------------
 Symbolic Z-matrix:
 Charge = -1 Multiplicity = 1
 C                    -0.20736   0.00001  -0.00018 
 Cl                   -2.16555  0.         0.00005 
 H                     0.05795   0.00243  -1.04803 
 H                     0.05839   0.9063    0.52563 
 H                     0.05841  -0.9087    0.52143 
 C                     2.36679   0.       -0.00016 
 N                     3.54475  -0.00001   0.00024 
 
 ITRead=  0  0  0  0  0  0  0
 MicOpt= -1 -1 -1 -1 -1 -1 -1
 NAtoms=      7 NQM=        7 NQMF=       0 NMMI=      0 NMMIF=      0
                NMic=       0 NMicF=      0.
                    Isotopes and Nuclear Properties:
 (Nuclear quadrupole moments (NQMom) in fm**2, nuclear magnetic moments (NMagM)
  in nuclear magnetons)

  Atom         1           2           3           4           5           6           7
 IAtWgt=          12          35           1           1           1          12          14
 AtmWgt=  12.0000000  34.9688527   1.0078250   1.0078250   1.0078250  12.0000000  14.0030740
 NucSpn=           0           3           1           1           1           0           2
 AtZEff=  -0.0000000  -0.0000000  -0.0000000  -0.0000000  -0.0000000  -0.0000000  -0.0000000
 NQMom=    0.0000000  -8.1650000   0.0000000   0.0000000   0.0000000   0.0000000   2.0440000
 NMagM=    0.0000000   0.8218740   2.7928460   2.7928460   2.7928460   0.0000000   0.4037610
 AtZNuc=   6.0000000  17.0000000   1.0000000   1.0000000   1.0000000   6.0000000   7.0000000
 Leave Link  101 at Sun Oct 13 09:51:16 2024, MaxMem=  2684354560 cpu:               2.9 elap:               0.1
 (Enter /usr/local/g16_AVX//g16/l103.exe)

 GradGradGradGradGradGradGradGradGradGradGradGradGradGradGradGradGradGrad
 Berny optimization.
 Initialization pass.
 Trust Radius=3.00D-01 FncErr=1.00D-07 GrdErr=1.00D-07 EigMax=2.50D+02 EigMin=1.00D-04
 Number of steps in this run=      2 maximum allowed number of steps=      2.
 GradGradGradGradGradGradGradGradGradGradGradGradGradGradGradGradGradGrad

 Leave Link  103 at Sun Oct 13 09:51:16 2024, MaxMem=  2684354560 cpu:               0.5 elap:               0.1
 (Enter /usr/local/g16_AVX//g16/l202.exe)
                          Input orientation:                          
 ---------------------------------------------------------------------
 Center     Atomic      Atomic             Coordinates (Angstroms)
 Number     Number       Type             X           Y           Z
 ---------------------------------------------------------------------
      1          6           0       -0.207358    0.000007   -0.000175
      2         17           0       -2.165547   -0.000001    0.000046
      3          1           0        0.057954    0.002429   -1.048034
      4          1           0        0.058391    0.906296    0.525629
      5          1           0        0.058411   -0.908698    0.521434
      6          6           0        2.366786    0.000003   -0.000155
      7          7           0        3.544754   -0.000007    0.000240
 ---------------------------------------------------------------------
                    Distance matrix (angstroms):
                    1          2          3          4          5
     1  C    0.000000
     2  Cl   1.958189   0.000000
     3  H    1.080928   2.458136   0.000000
     4  H    1.080950   2.458356   1.814770   0.000000
     5  H    1.080950   2.458366   1.814768   1.814999   0.000000
     6  C    2.574144   4.532333   2.535500   2.535055   2.535032
     7  N    3.752112   5.710301   3.640969   3.640350   3.640323
                    6          7
     6  C    0.000000
     7  N    1.177968   0.000000
 Symmetry turned off by external request.
 Stoichiometry    C2H3ClN(1-)
 Framework group  C1[X(C2H3ClN)]
 Deg. of freedom    15
 Full point group                 C1      NOp   1
 Rotational constants (GHZ):         152.2482988           1.2345949           1.2345932
 Leave Link  202 at Sun Oct 13 09:51:16 2024, MaxMem=  2684354560 cpu:               0.2 elap:               0.0
 (Enter /usr/local/g16_AVX//g16/l301.exe)
 Standard basis: 6-31++G(d,p) (6D, 7F)
 Ernie: Thresh=  0.10000D-02 Tol=  0.10000D-05 Strict=F.
    98 basis functions,   176 primitive gaussians,    98 cartesian basis functions
    20 alpha electrons       20 beta electrons
       nuclear repulsion energy       110.1676687175 Hartrees.
 IExCor=  402 DFT=T Ex+Corr=B3LYP ExCW=0 ScaHFX=  0.200000
 ScaDFX=  0.800000  0.720000  1.000000  0.810000 ScalE2=  1.000000  1.000000
 IRadAn=      5 IRanWt=     -1 IRanGd=            0 ICorTp=0 IEmpDi=  4
 NAtoms=    7 NActive=    7 NUniq=    7 SFac= 1.00D+00 NAtFMM=   60 NAOKFM=F Big=F
 Integral buffers will be    131072 words long.
 Raffenetti 2 integral format.
 Two-electron integral symmetry is turned off.
 Leave Link  301 at Sun Oct 13 09:51:16 2024, MaxMem=  2684354560 cpu:               1.3 elap:               0.1
 (Enter /usr/local/g16_AVX//g16/l302.exe)
 NPDir=0 NMtPBC=     1 NCelOv=     1 NCel=       1 NClECP=     1 NCelD=      1
         NCelK=      1 NCelE2=     1 NClLst=     1 CellRange=     0.0.
 One-electron integrals computed using PRISM.
 NBasis=    98 RedAO= T EigKep=  1.27D-04  NBF=    98
 NBsUse=    98 1.00D-06 EigRej= -1.00D+00 NBFU=    98
 Precomputing XC quadrature grid using
 IXCGrd= 4 IRadAn=           5 IRanWt=          -1 IRanGd=           0 AccXCQ= 0.00D+00.
 Generated NRdTot=       0 NPtTot=           0 NUsed=           0 NTot=          32
 NSgBfM=    98    98    98    98    98 MxSgAt=     7 MxSgA2=     7.
 Leave Link  302 at Sun Oct 13 09:51:16 2024, MaxMem=  2684354560 cpu:               3.9 elap:               0.2
 (Enter /usr/local/g16_AVX//g16/l303.exe)
 DipDrv:  MaxL=1.
 Leave Link  303 at Sun Oct 13 09:51:16 2024, MaxMem=  2684354560 cpu:               0.8 elap:               0.1
 (Enter /usr/local/g16_AVX//g16/l401.exe)
 ExpMin= 3.60D-02 ExpMax= 2.52D+04 ExpMxC= 3.78D+03 IAcc=3 IRadAn=         5 AccDes= 0.00D+00
 Harris functional with IExCor=  402 and IRadAn=       5 diagonalized for initial guess.
 HarFok:  IExCor=  402 AccDes= 0.00D+00 IRadAn=         5 IDoV= 1 UseB2=F ITyADJ=14
 ICtDFT=  3500011 ScaDFX=  1.000000  1.000000  1.000000  1.000000
 FoFCou: FMM=F IPFlag=           0 FMFlag=      100000 FMFlg1=           0
         NFxFlg=           0 DoJE=T BraDBF=F KetDBF=T FulRan=T
         wScrn=  0.000000 ICntrl=       500 IOpCl=  0 I1Cent=   200000004 NGrid=           0
         NMat0=    1 NMatS0=      1 NMatT0=    0 NMatD0=    1 NMtDS0=    0 NMtDT0=    0
 Symmetry not used in FoFCou.
 Harris En= -593.067102746258    
 JPrj=0 DoOrth=F DoCkMO=F.
 Leave Link  401 at Sun Oct 13 09:51:16 2024, MaxMem=  2684354560 cpu:               5.7 elap:               0.3
 (Enter /usr/local/g16_AVX//g16/l502.exe)
 Keep R1 ints in memory in canonical form, NReq=35752935.
 FoFCou: FMM=F IPFlag=           0 FMFlag=           0 FMFlg1=           0
         NFxFlg=           0 DoJE=F BraDBF=F KetDBF=F FulRan=T
         wScrn=  0.000000 ICntrl=       600 IOpCl=  0 I1Cent=           0 NGrid=           0
         NMat0=    1 NMatS0=   4851 NMatT0=    0 NMatD0=    1 NMtDS0=    0 NMtDT0=    0
 Symmetry not used in FoFCou.
 Two-electron integral symmetry not used.
 Closed shell SCF:
 Using DIIS extrapolation, IDIIS=  1040.
 NGot=  2684354560 LenX=  2672563405 LenY=  2672553360
 Requested convergence on RMS density matrix=1.00D-08 within 128 cycles.
 Requested convergence on MAX density matrix=1.00D-06.
 Requested convergence on             energy=1.00D-06.
 No special actions if energy rises.

 Cycle   1  Pass 1  IDiag  1:
 E= -592.836819528984    
 DIIS: error= 3.45D-02 at cycle   1 NSaved=   1.
 NSaved= 1 IEnMin= 1 EnMin= -592.836819528984     IErMin= 1 ErrMin= 3.45D-02
 ErrMax= 3.45D-02  0.00D+00 EMaxC= 1.00D-01 BMatC= 1.31D-01 BMatP= 1.31D-01
 IDIUse=3 WtCom= 6.55D-01 WtEn= 3.45D-01
 Coeff-Com:  0.100D+01
 Coeff-En:   0.100D+01
 Coeff:      0.100D+01
 Gap=     0.391 Goal=   None    Shift=    0.000
 GapD=    0.391 DampG=1.000 DampE=0.500 DampFc=0.5000 IDamp=-1.
 Damping current iteration by 5.00D-01
 RMSDP=7.78D-02 MaxDP=2.68D+00              OVMax= 3.88D-01

 Cycle   2  Pass 1  IDiag  1:
 E= -592.871904332557     Delta-E=       -0.035084803573 Rises=F Damp=T
 DIIS: error= 1.11D-02 at cycle   2 NSaved=   2.
 NSaved= 2 IEnMin= 2 EnMin= -592.871904332557     IErMin= 2 ErrMin= 1.11D-02
 ErrMax= 1.11D-02  0.00D+00 EMaxC= 1.00D-01 BMatC= 1.70D-02 BMatP= 1.31D-01
 IDIUse=3 WtCom= 8.89D-01 WtEn= 1.11D-01
 Coeff-Com:  0.200D+00 0.800D+00
 Coeff-En:   0.377D+00 0.623D+00
 Coeff:      0.219D+00 0.781D+00
 Gap=     0.200 Goal=   None    Shift=    0.000
 RMSDP=3.79D-02 MaxDP=1.35D+00 DE=-3.51D-02 OVMax= 2.87D-01

 Cycle   3  Pass 1  IDiag  1:
 E= -592.978863841545     Delta-E=       -0.106959508987 Rises=F Damp=F
 DIIS: error= 1.59D-02 at cycle   3 NSaved=   3.
 NSaved= 3 IEnMin= 3 EnMin= -592.978863841545     IErMin= 2 ErrMin= 1.11D-02
 ErrMax= 1.59D-02  0.00D+00 EMaxC= 1.00D-01 BMatC= 1.29D-02 BMatP= 1.70D-02
 IDIUse=3 WtCom= 8.41D-01 WtEn= 1.59D-01
 Coeff-Com:  0.624D-01 0.467D+00 0.471D+00
 Coeff-En:   0.000D+00 0.000D+00 0.100D+01
 Coeff:      0.525D-01 0.393D+00 0.555D+00
 Gap=     0.202 Goal=   None    Shift=    0.000
 RMSDP=1.89D-03 MaxDP=3.69D-02 DE=-1.07D-01 OVMax= 6.48D-02

 Cycle   4  Pass 1  IDiag  1:
 E= -592.983403033601     Delta-E=       -0.004539192056 Rises=F Damp=F
 DIIS: error= 1.37D-02 at cycle   4 NSaved=   4.
 NSaved= 4 IEnMin= 4 EnMin= -592.983403033601     IErMin= 2 ErrMin= 1.11D-02
 ErrMax= 1.37D-02  0.00D+00 EMaxC= 1.00D-01 BMatC= 8.33D-03 BMatP= 1.29D-02
 IDIUse=3 WtCom= 8.63D-01 WtEn= 1.37D-01
 Coeff-Com: -0.121D-01 0.988D-01 0.439D+00 0.474D+00
 Coeff-En:   0.000D+00 0.000D+00 0.412D+00 0.588D+00
 Coeff:     -0.104D-01 0.853D-01 0.435D+00 0.490D+00
 Gap=     0.188 Goal=   None    Shift=    0.000
 RMSDP=1.17D-03 MaxDP=1.75D-02 DE=-4.54D-03 OVMax= 3.32D-02

 Cycle   5  Pass 1  IDiag  1:
 E= -592.990692124897     Delta-E=       -0.007289091296 Rises=F Damp=F
 DIIS: error= 2.51D-03 at cycle   5 NSaved=   5.
 NSaved= 5 IEnMin= 5 EnMin= -592.990692124897     IErMin= 5 ErrMin= 2.51D-03
 ErrMax= 2.51D-03  0.00D+00 EMaxC= 1.00D-01 BMatC= 4.07D-04 BMatP= 8.33D-03
 IDIUse=3 WtCom= 9.75D-01 WtEn= 2.51D-02
 Coeff-Com: -0.102D-01 0.267D-01 0.204D+00 0.282D+00 0.497D+00
 Coeff-En:   0.000D+00 0.000D+00 0.000D+00 0.207D-02 0.998D+00
 Coeff:     -0.995D-02 0.260D-01 0.199D+00 0.275D+00 0.510D+00
 Gap=     0.192 Goal=   None    Shift=    0.000
 RMSDP=4.72D-04 MaxDP=7.12D-03 DE=-7.29D-03 OVMax= 1.03D-02

 Cycle   6  Pass 1  IDiag  1:
 E= -592.991133865714     Delta-E=       -0.000441740817 Rises=F Damp=F
 DIIS: error= 3.97D-04 at cycle   6 NSaved=   6.
 NSaved= 6 IEnMin= 6 EnMin= -592.991133865714     IErMin= 6 ErrMin= 3.97D-04
 ErrMax= 3.97D-04  0.00D+00 EMaxC= 1.00D-01 BMatC= 1.50D-05 BMatP= 4.07D-04
 IDIUse=3 WtCom= 9.96D-01 WtEn= 3.97D-03
 Coeff-Com: -0.330D-02 0.108D-02 0.565D-01 0.847D-01 0.234D+00 0.627D+00
 Coeff-En:   0.000D+00 0.000D+00 0.000D+00 0.000D+00 0.000D+00 0.100D+01
 Coeff:     -0.329D-02 0.107D-02 0.563D-01 0.844D-01 0.233D+00 0.628D+00
 Gap=     0.191 Goal=   None    Shift=    0.000
 RMSDP=7.85D-05 MaxDP=1.69D-03 DE=-4.42D-04 OVMax= 1.39D-03

 Cycle   7  Pass 1  IDiag  1:
 E= -592.991149155031     Delta-E=       -0.000015289317 Rises=F Damp=F
 DIIS: error= 6.27D-05 at cycle   7 NSaved=   7.
 NSaved= 7 IEnMin= 7 EnMin= -592.991149155031     IErMin= 7 ErrMin= 6.27D-05
 ErrMax= 6.27D-05  0.00D+00 EMaxC= 1.00D-01 BMatC= 4.70D-07 BMatP= 1.50D-05
 IDIUse=1 WtCom= 1.00D+00 WtEn= 0.00D+00
 Coeff-Com: -0.136D-03-0.104D-02 0.443D-02 0.655D-02 0.385D-01 0.210D+00
 Coeff-Com:  0.741D+00
 Coeff:     -0.136D-03-0.104D-02 0.443D-02 0.655D-02 0.385D-01 0.210D+00
 Coeff:      0.741D+00
 Gap=     0.191 Goal=   None    Shift=    0.000
 RMSDP=2.45D-05 MaxDP=4.15D-04 DE=-1.53D-05 OVMax= 4.31D-04

 Cycle   8  Pass 1  IDiag  1:
 E= -592.991149687912     Delta-E=       -0.000000532881 Rises=F Damp=F
 DIIS: error= 1.95D-05 at cycle   8 NSaved=   8.
 NSaved= 8 IEnMin= 8 EnMin= -592.991149687912     IErMin= 8 ErrMin= 1.95D-05
 ErrMax= 1.95D-05  0.00D+00 EMaxC= 1.00D-01 BMatC= 5.46D-08 BMatP= 4.70D-07
 IDIUse=1 WtCom= 1.00D+00 WtEn= 0.00D+00
 Coeff-Com:  0.235D-03-0.750D-03-0.175D-02-0.242D-02 0.279D-02 0.525D-01
 Coeff-Com:  0.321D+00 0.628D+00
 Coeff:      0.235D-03-0.750D-03-0.175D-02-0.242D-02 0.279D-02 0.525D-01
 Coeff:      0.321D+00 0.628D+00
 Gap=     0.191 Goal=   None    Shift=    0.000
 RMSDP=4.26D-06 MaxDP=1.13D-04 DE=-5.33D-07 OVMax= 8.45D-05

 Cycle   9  Pass 1  IDiag  1:
 E= -592.991149749961     Delta-E=       -0.000000062049 Rises=F Damp=F
 DIIS: error= 3.09D-06 at cycle   9 NSaved=   9.
 NSaved= 9 IEnMin= 9 EnMin= -592.991149749961     IErMin= 9 ErrMin= 3.09D-06
 ErrMax= 3.09D-06  0.00D+00 EMaxC= 1.00D-01 BMatC= 1.28D-09 BMatP= 5.46D-08
 IDIUse=1 WtCom= 1.00D+00 WtEn= 0.00D+00
 Coeff-Com:  0.754D-04-0.135D-03-0.553D-03-0.707D-03-0.940D-03 0.180D-02
 Coeff-Com:  0.385D-01 0.177D+00 0.785D+00
 Coeff:      0.754D-04-0.135D-03-0.553D-03-0.707D-03-0.940D-03 0.180D-02
 Coeff:      0.385D-01 0.177D+00 0.785D+00
 Gap=     0.191 Goal=   None    Shift=    0.000
 RMSDP=1.38D-06 MaxDP=3.12D-05 DE=-6.20D-08 OVMax= 1.01D-05

 Cycle  10  Pass 1  IDiag  1:
 E= -592.991149751429     Delta-E=       -0.000000001467 Rises=F Damp=F
 DIIS: error= 4.41D-07 at cycle  10 NSaved=  10.
 NSaved=10 IEnMin=10 EnMin= -592.991149751429     IErMin=10 ErrMin= 4.41D-07
 ErrMax= 4.41D-07  0.00D+00 EMaxC= 1.00D-01 BMatC= 1.43D-11 BMatP= 1.28D-09
 IDIUse=1 WtCom= 1.00D+00 WtEn= 0.00D+00
 Coeff-Com:  0.414D-05 0.119D-05-0.325D-04-0.339D-04-0.168D-03-0.890D-03
 Coeff-Com: -0.470D-02 0.116D-01 0.987D-01 0.896D+00
 Coeff:      0.414D-05 0.119D-05-0.325D-04-0.339D-04-0.168D-03-0.890D-03
 Coeff:     -0.470D-02 0.116D-01 0.987D-01 0.896D+00
 Gap=     0.191 Goal=   None    Shift=    0.000
 RMSDP=1.22D-07 MaxDP=3.03D-06 DE=-1.47D-09 OVMax= 2.27D-06

 Cycle  11  Pass 1  IDiag  1:
 E= -592.991149751446     Delta-E=       -0.000000000018 Rises=F Damp=F
 DIIS: error= 7.75D-08 at cycle  11 NSaved=  11.
 NSaved=11 IEnMin=11 EnMin= -592.991149751446     IErMin=11 ErrMin= 7.75D-08
 ErrMax= 7.75D-08  0.00D+00 EMaxC= 1.00D-01 BMatC= 3.81D-13 BMatP= 1.43D-11
 IDIUse=1 WtCom= 1.00D+00 WtEn= 0.00D+00
 Coeff-Com: -0.802D-06 0.187D-05-0.151D-05 0.300D-06-0.195D-04-0.825D-04
 Coeff-Com: -0.738D-03-0.501D-03 0.368D-02 0.107D+00 0.890D+00
 Coeff:     -0.802D-06 0.187D-05-0.151D-05 0.300D-06-0.195D-04-0.825D-04
 Coeff:     -0.738D-03-0.501D-03 0.368D-02 0.107D+00 0.890D+00
 Gap=     0.191 Goal=   None    Shift=    0.000
 RMSDP=1.24D-08 MaxDP=1.84D-07 DE=-1.75D-11 OVMax= 1.99D-07

 Cycle  12  Pass 1  IDiag  1:
 E= -592.991149751449     Delta-E=       -0.000000000002 Rises=F Damp=F
 DIIS: error= 8.71D-09 at cycle  12 NSaved=  12.
 NSaved=12 IEnMin=12 EnMin= -592.991149751449     IErMin=12 ErrMin= 8.71D-09
 ErrMax= 8.71D-09  0.00D+00 EMaxC= 1.00D-01 BMatC= 8.00D-15 BMatP= 3.81D-13
 IDIUse=1 WtCom= 1.00D+00 WtEn= 0.00D+00
 Coeff-Com: -0.263D-06 0.331D-06-0.391D-06-0.325D-06-0.143D-05-0.148D-06
 Coeff-Com: -0.576D-06-0.353D-03-0.116D-02 0.163D-02 0.159D+00 0.841D+00
 Coeff:     -0.263D-06 0.331D-06-0.391D-06-0.325D-06-0.143D-05-0.148D-06
 Coeff:     -0.576D-06-0.353D-03-0.116D-02 0.163D-02 0.159D+00 0.841D+00
 Gap=     0.191 Goal=   None    Shift=    0.000
 RMSDP=4.30D-09 MaxDP=7.54D-08 DE=-2.27D-12 OVMax= 5.62D-08

 SCF Done:  E(RB3LYP) =  -592.991149751     A.U. after   12 cycles
            NFock= 12  Conv=0.43D-08     -V/T= 2.0046
 KE= 5.902875238516D+02 PE=-1.630262798012D+03 EE= 3.368164556914D+02
 Leave Link  502 at Sun Oct 13 09:51:18 2024, MaxMem=  2684354560 cpu:              35.4 elap:               1.6
 (Enter /usr/local/g16_AVX//g16/l801.exe)
 DoSCS=F DFT=T ScalE2(SS,OS)=  1.000000  1.000000
 Range of M.O.s used for correlation:     1    98
 NBasis=    98 NAE=    20 NBE=    20 NFC=     0 NFV=     0
 NROrb=     98 NOA=    20 NOB=    20 NVA=    78 NVB=    78

 **** Warning!!: The largest alpha MO coefficient is  0.31153664D+02

 Leave Link  801 at Sun Oct 13 09:51:18 2024, MaxMem=  2684354560 cpu:               0.7 elap:               0.1
 (Enter /usr/local/g16_AVX//g16/l1101.exe)
 Using compressed storage, NAtomX=     7.
 Will process      8 centers per pass.
 Leave Link 1101 at Sun Oct 13 09:51:18 2024, MaxMem=  2684354560 cpu:               3.5 elap:               0.2
 (Enter /usr/local/g16_AVX//g16/l1102.exe)
 Symmetrizing basis deriv contribution to polar:
 IMax=3 JMax=2 DiffMx= 0.00D+00
 Leave Link 1102 at Sun Oct 13 09:51:18 2024, MaxMem=  2684354560 cpu:               0.7 elap:               0.1
 (Enter /usr/local/g16_AVX//g16/l1110.exe)
 Forming Gx(P) for the SCF density, NAtomX=     7.
 Integral derivatives from FoFJK, PRISM(SPDF).
 Do as many integral derivatives as possible in FoFJK.
 G2DrvN: MDV=    2684353864.
 G2DrvN: will do     8 centers at a time, making    1 passes.
 Calling FoFCou, ICntrl=  3107 FMM=F I1Cent=   0 AccDes= 0.00D+00.
 FoFJK:  IHMeth= 1 ICntrl=    3107 DoSepK=F KAlg= 0 I1Cent=           0 FoldK=F
 IRaf=         0 NMat=       1 IRICut=       1 DoRegI=T DoRafI=F ISym2E= 0 IDoP0=0 IntGTp=1.
 FoFCou: FMM=F IPFlag=           0 FMFlag=      100000 FMFlg1=           0
         NFxFlg=           0 DoJE=F BraDBF=F KetDBF=F FulRan=T
         wScrn=  0.000000 ICntrl=      3107 IOpCl=  0 I1Cent=           0 NGrid=           0
         NMat0=    1 NMatS0=      1 NMatT0=    0 NMatD0=    1 NMtDS0=    0 NMtDT0=    0
 Symmetry not used in FoFCou.
 End of G2Drv F.D. properties file   721 does not exist.
 End of G2Drv F.D. properties file   722 does not exist.
 End of G2Drv F.D. properties file   788 does not exist.
 Leave Link 1110 at Sun Oct 13 09:51:20 2024, MaxMem=  2684354560 cpu:              38.5 elap:               1.5
 (Enter /usr/local/g16_AVX//g16/l1002.exe)
 Minotr:  Closed shell wavefunction.
          IDoAtm=1111111
          Direct CPHF calculation.
          Differentiating once with respect to electric field.
                with respect to dipole field.
          Differentiating once with respect to nuclear coordinates.
          Requested convergence is 1.0D-08 RMS, and 1.0D-07 maximum.
          Secondary convergence is 1.0D-12 RMS, and 1.0D-12 maximum.
          NewPWx=T KeepS1=F KeepF1=F KeepIn=T MapXYZ=F SortEE=F KeepMc=T.
         2136 words used for storage of precomputed grid.
 Keep R1 ints in memory in canonical form, NReq=35668397.
 FoFCou: FMM=F IPFlag=           0 FMFlag=           0 FMFlg1=           0
         NFxFlg=           0 DoJE=F BraDBF=F KetDBF=F FulRan=T
         wScrn=  0.000000 ICntrl=       600 IOpCl=  0 I1Cent=           0 NGrid=           0
         NMat0=    1 NMatS0=   4851 NMatT0=    0 NMatD0=    1 NMtDS0=    0 NMtDT0=    0
 Symmetry not used in FoFCou.
 Two-electron integral symmetry not used.
          MDV=    2684354560 using IRadAn=       1.
          Solving linear equations simultaneously, MaxMat=       0.
          There are    24 degrees of freedom in the 1st order CPHF.  IDoFFX=6 NUNeed=     3.
     21 vectors produced by pass  0 Test12= 6.50D-15 4.17D-09 XBig12= 1.10D+02 6.20D+00.
 AX will form    21 AO Fock derivatives at one time.
     21 vectors produced by pass  1 Test12= 6.50D-15 4.17D-09 XBig12= 4.27D+01 1.75D+00.
     21 vectors produced by pass  2 Test12= 6.50D-15 4.17D-09 XBig12= 7.65D-01 2.15D-01.
     21 vectors produced by pass  3 Test12= 6.50D-15 4.17D-09 XBig12= 1.05D-02 2.18D-02.
     21 vectors produced by pass  4 Test12= 6.50D-15 4.17D-09 XBig12= 4.03D-05 1.45D-03.
     17 vectors produced by pass  5 Test12= 6.50D-15 4.17D-09 XBig12= 9.80D-08 6.85D-05.
      6 vectors produced by pass  6 Test12= 6.50D-15 4.17D-09 XBig12= 8.91D-11 2.23D-06.
      1 vectors produced by pass  7 Test12= 6.50D-15 4.17D-09 XBig12= 6.21D-14 4.43D-08.
 InvSVY:  IOpt=1 It=  1 EMax= 5.33D-15
 Solved reduced A of dimension   129 with    24 vectors.
 FullF1:  Do perturbations      1 to       3.
 Isotropic polarizability for W=    0.000000       61.23 Bohr**3.
 End of Minotr F.D. properties file   721 does not exist.
 End of Minotr F.D. properties file   722 does not exist.
 End of Minotr F.D. properties file   788 does not exist.
 Leave Link 1002 at Sun Oct 13 09:51:22 2024, MaxMem=  2684354560 cpu:              53.0 elap:               2.1
 (Enter /usr/local/g16_AVX//g16/l601.exe)
 Copying SCF densities to generalized density rwf, IOpCl= 0 IROHF=0.

 **********************************************************************

            Population analysis using the SCF Density.

 **********************************************************************

 Alpha  occ. eigenvalues -- -101.38652 -14.10591 -10.10178  -9.97127  -9.30203
 Alpha  occ. eigenvalues --   -7.06442  -7.05710  -7.05710  -0.67795  -0.66014
 Alpha  occ. eigenvalues --   -0.53806  -0.30113  -0.30110  -0.24847  -0.18973
 Alpha  occ. eigenvalues --   -0.16084  -0.16083  -0.10852  -0.10852  -0.07903
 Alpha virt. eigenvalues --    0.11246   0.12866   0.14806   0.14806   0.16593
 Alpha virt. eigenvalues --    0.19588   0.20621   0.20622   0.22172   0.22174
 Alpha virt. eigenvalues --    0.24706   0.25044   0.25045   0.26767   0.26826
 Alpha virt. eigenvalues --    0.26827   0.31345   0.34209   0.34211   0.37026
 Alpha virt. eigenvalues --    0.38250   0.38276   0.38276   0.46559   0.47764
 Alpha virt. eigenvalues --    0.69887   0.75161   0.75548   0.75549   0.78686
 Alpha virt. eigenvalues --    0.78688   0.88473   0.88875   0.88876   0.98971
 Alpha virt. eigenvalues --    1.01790   1.01792   1.04797   1.06587   1.06590
 Alpha virt. eigenvalues --    1.09631   1.09636   1.12260   1.18475   1.18475
 Alpha virt. eigenvalues --    1.25675   1.32156   1.35654   1.49809   1.60013
 Alpha virt. eigenvalues --    1.60019   1.76982   1.76982   1.79325   1.79325
 Alpha virt. eigenvalues --    1.81829   2.14793   2.19085   2.19088   2.19640
 Alpha virt. eigenvalues --    2.19651   2.21907   2.53967   2.53981   2.62958
 Alpha virt. eigenvalues --    2.82455   2.82455   2.84079   2.95927   2.95946
 Alpha virt. eigenvalues --    3.26185   3.41524   3.56383   3.56397   4.21147
 Alpha virt. eigenvalues --    4.45415   4.46767   4.55894
          Condensed to atoms (all electrons):
               1          2          3          4          5          6
     1  C    5.486556  -0.166034   0.426997   0.427010   0.427012  -0.213350
     2  Cl  -0.166034  17.527554  -0.050727  -0.050681  -0.050678   0.106695
     3  H    0.426997  -0.050727   0.502490  -0.022314  -0.022315  -0.044092
     4  H    0.427010  -0.050681  -0.022314   0.502426  -0.022275  -0.044153
     5  H    0.427012  -0.050678  -0.022315  -0.022275   0.502424  -0.044157
     6  C   -0.213350   0.106695  -0.044092  -0.044153  -0.044157   5.953311
     7  N   -0.010336  -0.003801  -0.000841  -0.000839  -0.000839   0.690911
               7
     1  C   -0.010336
     2  Cl  -0.003801
     3  H   -0.000841
     4  H   -0.000839
     5  H   -0.000839
     6  C    0.690911
     7  N    6.862849
 Mulliken charges:
               1
     1  C   -0.377856
     2  Cl  -0.312329
     3  H    0.210802
     4  H    0.210825
     5  H    0.210828
     6  C   -0.405166
     7  N   -0.537104
 Sum of Mulliken charges =  -1.00000
 Mulliken charges with hydrogens summed into heavy atoms:
               1
     1  C    0.254599
     2  Cl  -0.312329
     6  C   -0.405166
     7  N   -0.537104
 APT charges:
               1
     1  C    0.899100
     2  Cl  -0.850535
     3  H    0.003397
     4  H    0.003463
     5  H    0.003466
     6  C   -0.418124
     7  N   -0.640767
 Sum of APT charges =  -1.00000
 APT charges with hydrogens summed into heavy atoms:
               1
     1  C    0.909426
     2  Cl  -0.850535
     6  C   -0.418124
     7  N   -0.640767
 Electronic spatial extent (au):  <R**2>=            849.6380
 Charge=             -1.0000 electrons
 Dipole moment (field-independent basis, Debye):
    X=             -8.0200    Y=              0.0000    Z=             -0.0006  Tot=              8.0200
 Quadrupole moment (field-independent basis, Debye-Ang):
   XX=            -88.1022   YY=            -35.3716   ZZ=            -35.3727
   XY=              0.0000   XZ=             -0.0011   YZ=              0.0000
 Traceless Quadrupole moment (field-independent basis, Debye-Ang):
   XX=            -35.1534   YY=             17.5772   ZZ=             17.5762
   XY=              0.0000   XZ=             -0.0011   YZ=              0.0000
 Octapole moment (field-independent basis, Debye-Ang**2):
  XXX=           -160.1745  YYY=             -0.0066  ZZZ=             -0.9463  XYY=             -9.9253
  XXY=              0.0003  XXZ=             -0.0086  XZZ=             -9.9260  YZZ=              0.0066
  YYZ=              0.9478  XYZ=             -0.0000
 Hexadecapole moment (field-independent basis, Debye-Ang**3):
 XXXX=          -1796.7004 YYYY=            -55.7572 ZZZZ=            -55.7564 XXXY=              0.0015
 XXXZ=             -0.0471 YYYX=             -0.0006 YYYZ=              0.0000 ZZZX=             -0.1393
 ZZZY=             -0.0000 XXYY=           -218.4039 XXZZ=           -218.4041 YYZZ=            -18.5865
 XXYZ=             -0.0000 YYXZ=              0.1316 ZZXY=              0.0010
 N-N= 1.101676687175D+02 E-N=-1.630262796986D+03  KE= 5.902875238516D+02
  Exact polarizability: 105.240  -0.000  39.220   0.003   0.000  39.220
 Approx polarizability: 131.286  -0.000  49.213   0.006   0.000  49.211
 No NMR shielding tensors so no spin-rotation constants.
 Leave Link  601 at Sun Oct 13 09:51:22 2024, MaxMem=  2684354560 cpu:               2.8 elap:               0.2
 (Enter /usr/local/g16_AVX//g16/l701.exe)
 ... and contract with generalized density number  0.
 Compute integral second derivatives.
 Leave Link  701 at Sun Oct 13 09:51:23 2024, MaxMem=  2684354560 cpu:               4.6 elap:               0.2
 (Enter /usr/local/g16_AVX//g16/l702.exe)
 L702 exits ... SP integral derivatives will be done elsewhere.
 Leave Link  702 at Sun Oct 13 09:51:23 2024, MaxMem=  2684354560 cpu:               0.5 elap:               0.0
 (Enter /usr/local/g16_AVX//g16/l703.exe)
 Integral derivatives from FoFJK, PRISM(SPDF).
 Compute integral second derivatives, UseDBF=F ICtDFT=           0.
 Calling FoFJK, ICntrl=    100127 FMM=F ISym2X=0 I1Cent= 0 IOpClX= 0 NMat=1 NMatS=1 NMatT=0.
 FoFJK:  IHMeth= 1 ICntrl=  100127 DoSepK=F KAlg= 0 I1Cent=           0 FoldK=F
 IRaf=         0 NMat=       1 IRICut=       1 DoRegI=T DoRafI=F ISym2E= 0 IDoP0=0 IntGTp=1.
 FoFCou: FMM=F IPFlag=           0 FMFlag=      100000 FMFlg1=         800
         NFxFlg=           0 DoJE=F BraDBF=F KetDBF=F FulRan=T
         wScrn=  0.000000 ICntrl=    100127 IOpCl=  0 I1Cent=           0 NGrid=           0
         NMat0=    1 NMatS0=      1 NMatT0=    0 NMatD0=    1 NMtDS0=    0 NMtDT0=    0
 Symmetry not used in FoFCou.
 Leave Link  703 at Sun Oct 13 09:51:25 2024, MaxMem=  2684354560 cpu:              65.8 elap:               2.6
 (Enter /usr/local/g16_AVX//g16/l716.exe)
 Dipole        =-3.15531788D+00 6.81759884D-06-2.17116918D-04
 Polarizability= 1.05239790D+02-9.72429244D-05 3.92199045D+01
                 3.39779192D-03 5.87373616D-06 3.92198627D+01
 Full mass-weighted force constant matrix:
 Low frequencies ---  -86.5543  -86.5502  -31.2573  -31.2511    0.0039    0.0043
 Low frequencies ---    0.0045  114.0479  151.3437
 ******    2 imaginary frequencies (negative Signs) ****** 
 Diagonal vibrational polarizability:
      431.9872961       9.8549067       9.8578897
 Harmonic frequencies (cm**-1), IR intensities (KM/Mole), Raman scattering
 activities (A**4/AMU), depolarization ratios for plane and unpolarized
 incident light, reduced masses (AMU), force constants (mDyne/A),
 and normal coordinates:
                      1                      2                      3
                      A                      A                      A
 Frequencies --    -86.0629               -86.0595               151.3437
 Red. masses --      9.9140                 9.9125                10.7422
 Frc consts  --      0.0433                 0.0433                 0.1450
 IR Inten    --      0.2278                 0.2282               292.1111
  Atom  AN      X      Y      Z        X      Y      Z        X      Y      Z
     1   6     0.00   0.22  -0.02     0.00   0.02   0.22     0.54  -0.00   0.00
     2  17     0.00  -0.11   0.01    -0.00  -0.01  -0.11     0.15   0.00  -0.00
     3   1    -0.02   0.27  -0.02     0.18   0.02   0.26     0.26   0.00  -0.06
     4   1    -0.15   0.27  -0.03    -0.10   0.02   0.27     0.26   0.05   0.03
     5   1     0.16   0.27  -0.02    -0.08   0.03   0.27     0.26  -0.05   0.03
     6   6     0.00   0.63  -0.06    -0.00   0.06   0.63    -0.48   0.00  -0.00
     7   7    -0.00  -0.52   0.05     0.00  -0.05  -0.52    -0.49   0.00  -0.00
                      4                      5                      6
                      A                      A                      A
 Frequencies --    196.8847               196.9093               334.0761
 Red. masses --      4.0293                 4.0292                14.8017
 Frc consts  --      0.0920                 0.0920                 0.9733
 IR Inten    --     12.8922                12.8922               363.8472
  Atom  AN      X      Y      Z        X      Y      Z        X      Y      Z
     1   6    -0.00  -0.01   0.42     0.00   0.42   0.01     0.75   0.00  -0.00
     2  17    -0.00   0.00  -0.10     0.00  -0.10  -0.00    -0.44  -0.00   0.00
     3   1     0.20  -0.01   0.49     0.01   0.47   0.01     0.19   0.00  -0.12
     4   1    -0.10  -0.00   0.47    -0.18   0.48   0.02     0.19   0.11   0.06
     5   1    -0.11  -0.02   0.47     0.17   0.48   0.00     0.19  -0.11   0.06
     6   6     0.00   0.01  -0.25    -0.00  -0.25  -0.01     0.22  -0.00   0.00
     7   7     0.00  -0.00   0.00    -0.00   0.00   0.00     0.22  -0.00   0.00
                      7                      8                      9
                      A                      A                      A
 Frequencies --    993.9086               993.9473              1214.6665
 Red. masses --      1.0900                 1.0900                 1.0661
 Frc consts  --      0.6344                 0.6344                 0.9268
 IR Inten    --      0.0381                 0.0379                53.3991
  Atom  AN      X      Y      Z        X      Y      Z        X      Y      Z
     1   6    -0.00   0.01  -0.08     0.00   0.08   0.01    -0.06   0.00   0.00
     2  17    -0.00  -0.00   0.02     0.00  -0.02  -0.00    -0.02  -0.00   0.00
     3   1     0.78  -0.02   0.11    -0.10  -0.18  -0.01     0.56  -0.00   0.14
     4   1    -0.31  -0.04   0.16     0.72  -0.13   0.01     0.56  -0.12  -0.07
     5   1    -0.47   0.01   0.16    -0.63  -0.13  -0.05     0.56   0.12  -0.07
     6   6     0.00   0.00  -0.01    -0.00   0.01   0.00    -0.00   0.00   0.00
     7   7     0.00  -0.00   0.00    -0.00  -0.00  -0.00    -0.01   0.00  -0.00
                     10                     11                     12
                      A                      A                      A
 Frequencies --   1437.8616              1437.9943              2170.0754
 Red. masses --      1.0763                 1.0763                12.7958
 Frc consts  --      1.3110                 1.3113                35.5031
 IR Inten    --      5.9846                 5.9793                10.6125
  Atom  AN      X      Y      Z        X      Y      Z        X      Y      Z
     1   6    -0.00  -0.00  -0.08     0.00  -0.08   0.00    -0.00   0.00  -0.00
     2  17     0.00  -0.00  -0.00    -0.00  -0.00   0.00    -0.00   0.00   0.00
     3   1    -0.22   0.00  -0.12     0.00   0.77   0.00    -0.03   0.00  -0.01
     4   1     0.11  -0.39   0.55     0.19   0.11  -0.39    -0.03   0.01   0.00
     5   1     0.11   0.38   0.55    -0.19   0.10   0.38    -0.03  -0.01   0.00
     6   6    -0.00  -0.00  -0.00    -0.00  -0.00   0.00     0.76  -0.00   0.00
     7   7    -0.00   0.00   0.00     0.00   0.00  -0.00    -0.64   0.00  -0.00
                     13                     14                     15
                      A                      A                      A
 Frequencies --   3156.6403              3313.2700              3313.3534
 Red. masses --      1.0181                 1.1165                 1.1165
 Frc consts  --      5.9770                 7.2215                 7.2217
 IR Inten    --      5.7106                 0.0716                 0.0698
  Atom  AN      X      Y      Z        X      Y      Z        X      Y      Z
     1   6     0.03  -0.00   0.00     0.00  -0.10   0.00     0.00  -0.00  -0.10
     2  17    -0.00   0.00  -0.00    -0.00   0.00  -0.00     0.00   0.00   0.00
     3   1    -0.12  -0.00   0.56     0.01  -0.02  -0.03    -0.19  -0.00   0.79
     4   1    -0.12  -0.49  -0.28     0.16   0.57   0.34     0.10   0.37   0.20
     5   1    -0.12   0.49  -0.28    -0.17   0.60  -0.35     0.09  -0.33   0.17
     6   6     0.00   0.00  -0.00     0.00   0.00  -0.00    -0.00   0.00   0.00
     7   7     0.00  -0.00   0.00    -0.00  -0.00   0.00     0.00  -0.00  -0.00

 -------------------
 - Thermochemistry -
 -------------------
 Temperature   298.150 Kelvin.  Pressure   1.00000 Atm.
 Atom     1 has atomic number  6 and mass  12.00000
 Atom     2 has atomic number 17 and mass  34.96885
 Atom     3 has atomic number  1 and mass   1.00783
 Atom     4 has atomic number  1 and mass   1.00783
 Atom     5 has atomic number  1 and mass   1.00783
 Atom     6 has atomic number  6 and mass  12.00000
 Atom     7 has atomic number  7 and mass  14.00307
 Molecular mass:    75.99540 amu.
 Principal axes and moments of inertia in atomic units:
                           1         2         3
     Eigenvalues --    11.853931461.808441461.81043
           X            1.00000   0.00000  -0.00001
           Y           -0.00000   0.99998  -0.00669
           Z            0.00001   0.00669   0.99998
 This molecule is an asymmetric top.
 Rotational symmetry number  1.
 Rotational temperatures (Kelvin)      7.30677     0.05925     0.05925
 Rotational constants (GHZ):         152.24830     1.23459     1.23459
    2 imaginary frequencies ignored.
 Zero-point vibrational energy     113112.5 (Joules/Mol)
                                   27.03453 (Kcal/Mol)
 Warning -- explicit consideration of   4 degrees of freedom as
           vibrations may cause significant error
 Vibrational temperatures:    217.75   283.27   283.31   480.66  1430.01
          (Kelvin)           1430.07  1747.63  2068.76  2068.95  3122.25
                             4541.70  4767.06  4767.18
 
 Zero-point correction=                           0.043082 (Hartree/Particle)
 Thermal correction to Energy=                    0.048171
 Thermal correction to Enthalpy=                  0.049115
 Thermal correction to Gibbs Free Energy=         0.014847
 Sum of electronic and zero-point Energies=           -592.948067
 Sum of electronic and thermal Energies=              -592.942979
 Sum of electronic and thermal Enthalpies=            -592.942035
 Sum of electronic and thermal Free Energies=         -592.976303
 
                     E (Thermal)             CV                S
                      KCal/Mol        Cal/Mol-Kelvin    Cal/Mol-Kelvin
 Total                   30.227             14.314             72.122
 Electronic               0.000              0.000              0.000
 Translational            0.889              2.981             38.900
 Rotational               0.889              2.981             24.741
 Vibrational             28.450              8.353              8.481
 Vibration     1          0.619              1.901              2.655
 Vibration     2          0.636              1.844              2.162
 Vibration     3          0.636              1.844              2.162
 Vibration     4          0.716              1.607              1.240
                       Q            Log10(Q)             Ln(Q)
 Total Bot       0.148199D-06         -6.829154        -15.724709
 Total V=0       0.971175D+13         12.987297         29.904357
 Vib (Bot)       0.998949D-19        -19.000457        -43.750168
 Vib (Bot)    1  0.133927D+01          0.126867          0.292123
 Vib (Bot)    2  0.101395D+01          0.006016          0.013852
 Vib (Bot)    3  0.101381D+01          0.005958          0.013718
 Vib (Bot)    4  0.557884D+00         -0.253456         -0.583604
 Vib (V=0)       0.654628D+01          0.815995          1.878898
 Vib (V=0)    1  0.192956D+01          0.285458          0.657291
 Vib (V=0)    2  0.163053D+01          0.212328          0.488903
 Vib (V=0)    3  0.163040D+01          0.212295          0.488828
 Vib (V=0)    4  0.124916D+01          0.096617          0.222468
 Electronic      0.100000D+01          0.000000          0.000000
 Translational   0.260396D+08          7.415635         17.075130
 Rotational      0.569728D+05          4.755668         10.950329
 
                                                       RxCoord=1.59963 DE=50.33
                                                             IR Spectrum
 
      3     3                                    2                           1        1                                              
      3     1                                    1                           4        2       9                         3    1 1     
      1     5                                    7                           3        1       9                         3    9 5     
      3     7                                    0                           8        5       4                         4    7 1     
 
      X     X                                    X                           X        X       X                         X    X X     
                                                                                      X                                 X      X     
                                                                                      X                                 X      X     
                                                                                                                        X      X     
                                                                                                                        X      X     
                                                                                                                        X      X     
                                                                                                                        X      X     
                                                                                                                        X      X     
                                                                                                                        X      X     
                                                                                                                        X      X     
                                                                                                                        X      X     
                                                                                                                        X      X     
                                                                                                                        X      X     
                                                                                                                        X      X     
                                                                                                                        X      X     
                                                                                                                        X      X     
                                                                                                                        X            
                                                                                                                        X            
                                                                                                                        X            
                                                                                                                        X            
 
 -------------------------------------------------------------------
 Center     Atomic                   Forces (Hartrees/Bohr)
 Number     Number              X              Y              Z
 -------------------------------------------------------------------
      1        6          -0.010991879   -0.000000306   -0.000018424
      2       17           0.000857793   -0.000000311    0.000007869
      3        1           0.000228493   -0.000002076    0.000968493
      4        1           0.000209442   -0.000865696   -0.000479087
      5        1           0.000208242    0.000868258   -0.000475102
      6        6           0.003630680    0.000000192   -0.000005985
      7        7           0.005857230   -0.000000062    0.000002236
 -------------------------------------------------------------------
 Cartesian Forces:  Max     0.010991879 RMS     0.002862588
 Z-matrix is all fixed cartesians, so copy forces.
 Force constants in Cartesian coordinates: 
                1             2             3             4             5 
      1  0.104303D+00
      2 -0.415126D-05  0.636180D+00
      3  0.102237D-03  0.138673D-05  0.636089D+00
      4 -0.817647D-02  0.000000D+00  0.182119D-05  0.986174D-01
      5  0.000000D+00 -0.312661D-01  0.000000D+00  0.000000D+00  0.174916D-01
      6  0.167910D-05  0.000000D+00 -0.312606D-01 -0.184759D-04  0.000000D+00
      7 -0.377067D-01 -0.173298D-03  0.749383D-01 -0.229065D-01 -0.361223D-04
      8 -0.165077D-03 -0.507923D-01  0.687672D-03  0.136605D-04  0.414025D-03
      9  0.714897D-01  0.687603D-03 -0.348206D+00 -0.598352D-02 -0.150667D-04
     10 -0.377590D-01 -0.649137D-01 -0.376701D-01 -0.228978D-01 -0.134750D-01
     11 -0.619264D-01 -0.273228D+00 -0.129058D+00  0.518160D-02  0.529662D-02
     12 -0.359405D-01 -0.129051D+00 -0.125667D+00  0.301205D-02  0.283601D-02
     13 -0.377613D-01  0.650913D-01 -0.373729D-01 -0.228972D-01  0.135105D-01
     14  0.620961D-01 -0.274413D+00  0.128369D+00 -0.519594D-02  0.532296D-02
     15 -0.356569D-01  0.128362D+00 -0.124477D+00  0.298821D-02 -0.282095D-02
     16  0.418655D-02  0.000000D+00  0.202606D-05 -0.121436D-01  0.000000D+00
     17  0.000000D+00 -0.843930D-02  0.000000D+00  0.000000D+00  0.330916D-02
     18 -0.156086D-05  0.000000D+00 -0.843560D-02  0.474844D-05  0.000000D+00
     19  0.129143D-01  0.000000D+00 -0.144484D-05 -0.959580D-02  0.000000D+00
     20  0.000000D+00  0.195800D-02  0.000000D+00  0.000000D+00 -0.568242D-03
     21  0.532753D-05  0.000000D+00  0.195741D-02 -0.483254D-05  0.000000D+00
                6             7             8             9            10 
      6  0.174918D-01
      7  0.155905D-01  0.613640D-01
      8 -0.148775D-04  0.170962D-03  0.457431D-01
      9  0.693825D-02 -0.739517D-01 -0.721430D-03  0.357719D+00
     10 -0.781845D-02  0.291336D-02  0.565114D-02  0.390771D-02  0.614196D-01
     11  0.283299D-02 -0.527169D-03  0.298581D-02  0.310172D-02  0.640570D-01
     12  0.205823D-02 -0.686021D-02 -0.243999D-01 -0.943758D-02  0.371705D-01
     13 -0.775600D-02  0.291358D-02 -0.566910D-02  0.388177D-02  0.291368D-02
     14 -0.281811D-02  0.559014D-03  0.288690D-02 -0.304455D-02  0.620584D-02
     15  0.203211D-02 -0.685807D-02  0.244568D-01 -0.933904D-02  0.297435D-02
     16  0.000000D+00 -0.603973D-02  0.000000D+00  0.289821D-04 -0.605091D-02
     17  0.000000D+00  0.742797D-05 -0.162355D-02 -0.108514D-04  0.277930D-02
     18  0.330837D-02 -0.321064D-02 -0.108795D-04  0.306125D-02  0.161333D-02
     19  0.000000D+00 -0.537971D-03 -0.146288D-05  0.627129D-03 -0.538888D-03
     20  0.000000D+00  0.000000D+00  0.385999D-03  0.258465D-05 -0.304625D-03
     21 -0.568135D-03  0.351788D-03  0.260000D-05 -0.735943D-03 -0.177334D-03
               11            12            13            14            15 
     11  0.279056D+00
     12  0.135381D+00  0.124288D+00
     13 -0.621923D-02  0.294546D-02  0.614215D-01
     14 -0.155389D-01  0.136891D-01 -0.642322D-01  0.280300D+00
     15 -0.138028D-01  0.909987D-02  0.368770D-01 -0.134658D+00  0.123039D+00
     16 -0.236120D-04 -0.128320D-04 -0.605134D-02  0.235539D-04 -0.126974D-04
     17  0.188134D-02  0.203260D-02 -0.278670D-02  0.190008D-02 -0.202184D-02
     18  0.203343D-02 -0.443990D-03  0.160051D-02 -0.202263D-02 -0.462631D-03
     19 -0.542186D-03 -0.314486D-03 -0.538898D-03  0.543633D-03 -0.311986D-03
     20 -0.453636D-03 -0.487113D-03  0.305459D-03 -0.458143D-03  0.484537D-03
     21 -0.487466D-03  0.103195D-03 -0.175931D-03  0.484872D-03  0.107690D-03
               16            17            18            19            20 
     16  0.117028D+01
     17 -0.944128D-05  0.179582D-02
     18  0.377124D-03  0.000000D+00  0.179686D-02
     19 -0.114418D+01  0.972187D-05 -0.383515D-03  0.114248D+01
     20  0.967217D-05  0.117645D-02  0.000000D+00 -0.971204D-05 -0.204043D-02
     21 -0.382467D-03  0.000000D+00  0.117574D-02  0.383449D-03  0.000000D+00
               21 
     21 -0.203996D-02
 Leave Link  716 at Sun Oct 13 09:51:25 2024, MaxMem=  2684354560 cpu:               0.9 elap:               0.1
 (Enter /usr/local/g16_AVX//g16/l103.exe)

 GradGradGradGradGradGradGradGradGradGradGradGradGradGradGradGradGradGrad
 Berny optimization.
 Search for a local minimum.
 Step number   1 out of a maximum of    2
 All quantities printed in internal units (Hartrees-Bohrs-Radians)
 Second derivative matrix not updated -- analytic derivatives used.
 ITU=  0
     Eigenvalues ---   -0.00320  -0.00320   0.00797   0.00797   0.00920
     Eigenvalues ---    0.05280   0.05280   0.07675   0.10252   0.10817
     Eigenvalues ---    0.10818   0.42899   0.93574   0.93580   2.29967
 Eigenvalue     1 is  -3.20D-03 should be greater than     0.000000 Eigenvector:
                          Y6        Y7        Y2        Y3        Y4
   1                    0.65667  -0.61695  -0.19574   0.17475   0.16984
                          Y5        X5        X4        Y1        Z6
   1                    0.16955   0.15082  -0.14345   0.12928  -0.02692
 Eigenvalue     2 is  -3.20D-03 should be greater than     0.000000 Eigenvector:
                          Z6        Z7        Z2        Z5        Z4
   1                    0.65660  -0.61693  -0.19577   0.17346   0.17313
                          X3        Z3        Z1        X4        X5
   1                    0.16989   0.16771   0.12932  -0.09141  -0.07866
 Quadratic step=1.139D+00 exceeds max=3.000D-01 adjusted using Lamda=-2.656D-02.
 Angle between NR and scaled steps=   8.78 degrees.
 Angle between quadratic step and forces=  24.79 degrees.
 Linear search not attempted -- first point.
 B after Tr=     0.013760   -0.000001    0.000006
         Rot=    1.000000   -0.000000   -0.000002   -0.000000 Ang=  -0.00 deg.
 Variable       Old X    -DE/DX   Delta X   Delta X   Delta X     New X
                                 (Linear)    (Quad)   (Total)
    X1       -0.39185  -0.01099   0.00000  -0.20158  -0.18781  -0.57966
    Y1        0.00001  -0.00000   0.00000   0.00000   0.00000   0.00001
    Z1       -0.00033  -0.00002   0.00000  -0.00011  -0.00010  -0.00043
    X2       -4.09229   0.00086   0.00000  -0.01274   0.00102  -4.09128
    Y2       -0.00000  -0.00000   0.00000  -0.00000  -0.00000  -0.00001
    Z2        0.00009   0.00001   0.00000   0.00005   0.00007   0.00016
    X3        0.10952   0.00023   0.00000  -0.05268  -0.03893   0.07058
    Y3        0.00459  -0.00000   0.00000  -0.00007  -0.00007   0.00452
    Z3       -1.98050   0.00097   0.00000   0.03011   0.03011  -1.95039
    X4        0.11034   0.00021   0.00000  -0.05291  -0.03915   0.07120
    Y4        1.71265  -0.00087   0.00000  -0.02628  -0.02628   1.68637
    Z4        0.99329  -0.00048   0.00000  -0.01509  -0.01508   0.97821
    X5        0.11038   0.00021   0.00000  -0.05292  -0.03916   0.07122
    Y5       -1.71719   0.00087   0.00000   0.02635   0.02635  -1.69084
    Z5        0.98537  -0.00048   0.00000  -0.01497  -0.01496   0.97041
    X6        4.47258   0.00363   0.00000   0.13640   0.15016   4.62274
    Y6        0.00001   0.00000   0.00000   0.00000   0.00000   0.00001
    Z6       -0.00029  -0.00001   0.00000  -0.00010  -0.00011  -0.00040
    X7        6.69861   0.00586   0.00000   0.14012   0.15388   6.85249
    Y7       -0.00001  -0.00000   0.00000  -0.00000  -0.00000  -0.00001
    Z7        0.00045   0.00000   0.00000   0.00009   0.00007   0.00052
         Item               Value     Threshold  Converged?
 Maximum Force            0.010992     0.000450     NO 
 RMS     Force            0.002863     0.000300     NO 
 Maximum Displacement     0.187815     0.001800     NO 
 RMS     Displacement     0.065037     0.001200     NO 
 Predicted change in Energy=-2.985092D-03
 GradGradGradGradGradGradGradGradGradGradGradGradGradGradGradGradGradGrad

 Leave Link  103 at Sun Oct 13 09:51:25 2024, MaxMem=  2684354560 cpu:               0.8 elap:               0.1
 (Enter /usr/local/g16_AVX//g16/l9999.exe)

 ----------------------------------------------------------------------

 Electric dipole moment (input orientation):
 (Debye = 10**-18 statcoulomb cm , SI units = C m)
                  (au)            (Debye)         (10**-30 SI)
   Tot        0.315532D+01      0.802002D+01      0.267519D+02
   x         -0.315532D+01     -0.802002D+01     -0.267519D+02
   y          0.000000D+00      0.000000D+00      0.000000D+00
   z         -0.217117D-03     -0.551856D-03     -0.184079D-02

 Dipole polarizability, Alpha (input orientation).
 (esu units = cm**3 , SI units = C**2 m**2 J**-1)
 Alpha(0;0):
               (au)            (10**-24 esu)      (10**-40 SI)
   iso        0.612265D+02      0.907283D+01      0.100949D+02
   aniso      0.660199D+02      0.978314D+01      0.108852D+02
   xx         0.105240D+03      0.155949D+02      0.173517D+02
   yx        -0.972429D-04     -0.144099D-04     -0.160332D-04
   yy         0.392199D+02      0.581179D+01      0.646649D+01
   zx         0.339779D-02      0.503501D-03      0.560220D-03
   zy         0.000000D+00      0.000000D+00      0.000000D+00
   zz         0.392199D+02      0.581178D+01      0.646648D+01

 ----------------------------------------------------------------------

 Dipole orientation:
     6         -0.00030374          0.00001238          0.39184985
    17          0.00036852         -0.00001073          4.09229072
     1         -1.98050475          0.00459466         -0.10938090
     1          0.99329096          1.71264932         -0.11040765
     1          0.98535614         -1.71719224         -0.11045231
     6         -0.00060066          0.00001533         -4.47257730
     7         -0.00000740          0.00000125         -6.69861425

 Electric dipole moment (dipole orientation):
 (Debye = 10**-18 statcoulomb cm , SI units = C m)
                  (au)            (Debye)         (10**-30 SI)
   Tot        0.315532D+01      0.802002D+01      0.267519D+02
   x          0.000000D+00      0.000000D+00      0.000000D+00
   y          0.000000D+00      0.000000D+00      0.000000D+00
   z          0.315532D+01      0.802002D+01      0.267519D+02

 Dipole polarizability, Alpha (dipole orientation).
 (esu units = cm**3 , SI units = C**2 m**2 J**-1)
 Alpha(0;0):
               (au)            (10**-24 esu)      (10**-40 SI)
   iso        0.612265D+02      0.907283D+01      0.100949D+02
   aniso      0.660199D+02      0.978314D+01      0.108852D+02
   xx         0.392199D+02      0.581178D+01      0.646648D+01
   yx         0.000000D+00      0.000000D+00      0.000000D+00
   yy         0.392199D+02      0.581179D+01      0.646649D+01
   zx         0.114503D-02      0.169676D-03      0.188790D-03
   zy        -0.454071D-04     -0.672864D-05     -0.748662D-05
   zz         0.105240D+03      0.155949D+02      0.173517D+02

 ----------------------------------------------------------------------
 1\1\GINC-NODO10\Freq\RB3LYP\6-31++G(d,p)\C2H3Cl1N1(1-)\ALANQF\13-Oct-2
 024\0\\#p b3lyp 6-31++g(d,p) scf=verytight NoSymm freq=noraman int=ult
 rafine\\RxCoord=1.59963 DE=50.33\\-1,1\C,-0.207358,0.000007,-0.000175\
 Cl,-2.165547,-0.000001,0.000046\H,0.057954,0.002429,-1.048034\H,0.0583
 91,0.906296,0.525629\H,0.058411,-0.908698,0.521434\C,2.366786,0.000003
 ,-0.000155\N,3.544754,-0.000007,0.00024\\Version=ES64L-G16RevB.01\HF=-
 592.9911498\RMSD=4.299e-09\RMSF=2.863e-03\ZeroPoint=0.0430823\Thermal=
 0.0481705\Dipole=-3.1005496,0.0000078,-0.0002408\DipoleDeriv=2.5583985
 ,0.0000039,-0.000126,0.000011,0.0694174,0.0000004,-0.0003062,0.0000004
 ,0.0694845,-1.8073425,-0.0000023,0.000082,-0.0000031,-0.3721363,0.,0.0
 000867,0.,-0.372127,-0.0786805,0.0000122,-0.0055174,0.0000384,0.074685
 2,0.0001397,-0.0174441,0.0001399,0.0141854,-0.0785963,0.0047856,0.0027
 822,0.0151901,0.0295078,-0.0262375,0.0088645,-0.0262137,0.0594781,-0.0
 785895,-0.0047989,0.0027596,-0.0152373,0.0292672,0.0260976,0.0087959,0
 .0260736,0.0597204,-0.4317566,-0.0000036,0.0001168,-0.0000062,-0.41130
 44,-0.0000002,0.0002879,-0.0000002,-0.411311,-1.0834331,0.0000031,-0.0
 000972,0.000007,-0.4194369,0.,-0.0002846,0.,-0.4194304\Polar=105.23978
 96,-0.0000972,39.2199045,0.0033978,0.0000059,39.2198627\Quadrupole=-26
 .1356648,13.0682226,13.0674422,0.0000236,-0.0008209,0.000004\PG=C01 [X
 (C2H3Cl1N1)]\NImag=2\\0.10430261,-0.00000415,0.63618016,0.00010224,0.0
 0000139,0.63608895,-0.00817647,-0.00000010,0.00000182,0.09861744,-0.00
 000013,-0.03126615,0.00000002,0.00000074,0.01749163,0.00000168,0.00000
 001,-0.03126064,-0.00001848,0.,0.01749183,-0.03770672,-0.00017330,0.07
 493833,-0.02290650,-0.00003612,0.01559053,0.06136399,-0.00016508,-0.05
 079232,0.00068767,0.00001366,0.00041402,-0.00001488,0.00017096,0.04574
 314,0.07148966,0.00068760,-0.34820554,-0.00598352,-0.00001507,0.006938
 25,-0.07395173,-0.00072143,0.35771861,-0.03775901,-0.06491365,-0.03767
 012,-0.02289782,-0.01347504,-0.00781845,0.00291336,0.00565114,0.003907
 71,0.06141959,-0.06192645,-0.27322761,-0.12905849,0.00518160,0.0052966
 2,0.00283299,-0.00052717,0.00298581,0.00310172,0.06405704,0.27905633,-
 0.03594049,-0.12905136,-0.12566740,0.00301205,0.00283601,0.00205823,-0
 .00686021,-0.02439988,-0.00943758,0.03717051,0.13538064,0.12428768,-0.
 03776126,0.06509125,-0.03737286,-0.02289722,0.01351054,-0.00775600,0.0
 0291358,-0.00566910,0.00388177,0.00291368,-0.00621923,0.00294546,0.061
 42146,0.06209614,-0.27441279,0.12836937,-0.00519594,0.00532296,-0.0028
 1811,0.00055901,0.00288690,-0.00304455,0.00620584,-0.01553886,0.013689
 11,-0.06423223,0.28029985,-0.03565685,0.12836233,-0.12447717,0.0029882
 1,-0.00282095,0.00203211,-0.00685807,0.02445680,-0.00933904,0.00297435
 ,-0.01380282,0.00909987,0.03687705,-0.13465806,0.12303917,0.00418655,-
 0.00000007,0.00000203,-0.01214363,0.00000003,-0.00000014,-0.00603973,-
 0.00000013,0.00002898,-0.00605091,-0.00002361,-0.00001283,-0.00605134,
 0.00002355,-0.00001270,1.17027947,-0.00000024,-0.00843930,0.00000005,-
 0.00000006,0.00330916,-0.00000001,0.00000743,-0.00162355,-0.00001085,0
 .00277930,0.00188134,0.00203260,-0.00278670,0.00190008,-0.00202184,-0.
 00000944,0.00179582,-0.00000156,0.00000004,-0.00843560,0.00000475,-0.0
 0000002,0.00330837,-0.00321064,-0.00001088,0.00306125,0.00161333,0.002
 03343,-0.00044399,0.00160051,-0.00202263,-0.00046263,0.00037712,0.0000
 0005,0.00179686,0.01291431,0.00000002,-0.00000144,-0.00959580,-0.00000
 002,0.00000085,-0.00053797,-0.00000146,0.00062713,-0.00053889,-0.00054
 219,-0.00031449,-0.00053890,0.00054363,-0.00031199,-1.14418041,0.00000
 972,-0.00038352,1.14247766,-0.00000009,0.00195800,-0.00000001,0.000000
 11,-0.00056824,0.,-0.00000081,0.00038600,0.00000258,-0.00030463,-0.000
 45364,-0.00048711,0.00030546,-0.00045814,0.00048454,0.00000967,0.00117
 645,0.,-0.00000971,-0.00204043,0.00000533,-0.00000001,0.00195741,-0.00
 000483,0.,-0.00056814,0.00035179,0.00000260,-0.00073594,-0.00017733,-0
 .00048747,0.00010319,-0.00017593,0.00048487,0.00010769,-0.00038247,0.,
 0.00117574,0.00038345,0.,-0.00203996\\0.01099188,0.00000031,0.00001842
 ,-0.00085779,0.00000031,-0.00000787,-0.00022849,0.00000208,-0.00096849
 ,-0.00020944,0.00086570,0.00047909,-0.00020824,-0.00086826,0.00047510,
 -0.00363068,-0.00000019,0.00000599,-0.00585723,0.00000006,-0.00000224\
 \\@


 FORGIVE MY NONSENSE AS I ALSO FORGIVE THOSE WHO THINK THEY TALK SENSE

                                                       -- ROBERT FROST
 Job cpu time:       0 days  0 hours  3 minutes 45.5 seconds.
 Elapsed time:       0 days  0 hours  0 minutes  9.7 seconds.
 File lengths (MBytes):  RWF=     88 Int=      0 D2E=      0 Chk=      2 Scr=      2
 Normal termination of Gaussian 16 at Sun Oct 13 09:51:26 2024.
