RxCoord=1.59963 DE=50.33                                                
Freq      RB3LYP                                                      6-31++G(d,p)        
Number of atoms                            I                7
Info1-9                                    I   N=           9
          16          16           0           0           0         100
           6          18        -502
Full Title                                 C   N=           2
RxCoord=1.59963 DE=50.33
Route                                      C   N=           6
#p b3lyp 6-31++g(d,p) scf=verytight NoSymm freq=noraman int=
ultrafine   
Charge                                     I               -1
Multiplicity                               I                1
Number of electrons                        I               40
Number of alpha electrons                  I               20
Number of beta electrons                   I               20
Number of basis functions                  I               98
Number of independent functions            I               98
Number of point charges in /Mol/           I                0
Number of translation vectors              I                0
Atomic numbers                             I   N=           7
           6          17           1           1           1           6
           7
Nuclear charges                            R   N=           7
  6.00000000E+00  1.70000000E+01  1.00000000E+00  1.00000000E+00  1.00000000E+00
  6.00000000E+00  7.00000000E+00
Current cartesian coordinates              R   N=          21
 -3.91849830E-01  1.32280829E-05 -3.30702072E-04 -4.09229074E+00 -1.88972612E-06
  8.69274017E-05  1.09517188E-01  4.59014476E-03 -1.98049723E+00  1.10342998E-01
  1.71265123E+00  9.93294853E-01  1.10380793E-01 -1.71719035E+00  9.85367452E-01
  4.47257734E+00  5.66917837E-06 -2.92907549E-04  6.69861424E+00 -1.32280829E-05
  4.53534270E-04
Number of symbols in /Mol/                 I                0
Force Field                                I                0
Atom Types                                 C   N=           7
                                                            
                        
Int Atom Types                             I   N=           7
           0           0           0           0           0           0
           0
MM charges                                 R   N=           7
  0.00000000E+00  0.00000000E+00  0.00000000E+00  0.00000000E+00  0.00000000E+00
  0.00000000E+00  0.00000000E+00
Integer atomic weights                     I   N=           7
          12          35           1           1           1          12
          14
Real atomic weights                        R   N=           7
  1.20000000E+01  3.49688527E+01  1.00782504E+00  1.00782504E+00  1.00782504E+00
  1.20000000E+01  1.40030740E+01
Atom fragment info                         I   N=           7
           0           0           0           0           0           0
           0
Atom residue num                           I   N=           7
           0           0           0           0           0           0
           0
Nuclear spins                              I   N=           7
           0           3           1           1           1           0
           2
Nuclear ZEff                               R   N=           7
 -3.60000000E+00 -1.42400000E+01 -1.00000000E+00 -1.00000000E+00 -1.00000000E+00
 -3.60000000E+00 -4.55000000E+00
Nuclear ZNuc                               R   N=           7
  6.00000000E+00  1.70000000E+01  1.00000000E+00  1.00000000E+00  1.00000000E+00
  6.00000000E+00  7.00000000E+00
Nuclear QMom                               R   N=           7
  0.00000000E+00 -8.16500000E+00  0.00000000E+00  0.00000000E+00  0.00000000E+00
  0.00000000E+00  2.04400000E+00
Nuclear GFac                               R   N=           7
  0.00000000E+00  8.21874000E-01  2.79284600E+00  2.79284600E+00  2.79284600E+00
  0.00000000E+00  4.03761000E-01
MicOpt                                     I   N=           7
          -1          -1          -1          -1          -1          -1
          -1
Number of residues                         I                0
Number of secondary structures             I                0
Number of contracted shells                I               33
Number of primitive shells                 I               72
Pure/Cartesian d shells                    I                1
Pure/Cartesian f shells                    I                0
Highest angular momentum                   I                2
Largest degree of contraction              I                6
Shell types                                I   N=          33
           0          -1          -1          -1           2           0
          -1          -1          -1          -1           2           0
           0           0           1           0           0           0
           1           0           0           0           1           0
          -1          -1          -1           2           0          -1
          -1          -1           2
Number of primitives per shell             I   N=          33
           6           3           1           1           1           6
           6           3           1           1           1           3
           1           1           1           3           1           1
           1           3           1           1           1           6
           3           1           1           1           6           3
           1           1           1
Shell to atom map                          I   N=          33
           1           1           1           1           1           2
           2           2           2           2           2           3
           3           3           3           4           4           4
           4           5           5           5           5           6
           6           6           6           6           7           7
           7           7           7
Primitive exponents                        R   N=          72
  3.04752488E+03  4.57369518E+02  1.03948685E+02  2.92101553E+01  9.28666296E+00
  3.16392696E+00  7.86827235E+00  1.88128854E+00  5.44249258E-01  1.68714478E-01
  4.38000000E-02  8.00000000E-01  2.51801000E+04  3.78035000E+03  8.60474000E+02
  2.42145000E+02  7.73349000E+01  2.62470000E+01  4.91765000E+02  1.16984000E+02
  3.74153000E+01  1.37834000E+01  5.45215000E+00  2.22588000E+00  3.18649000E+00
  1.14427000E+00  4.20377000E-01  1.42657000E-01  4.83000000E-02  7.50000000E-01
  1.87311370E+01  2.82539436E+00  6.40121692E-01  1.61277759E-01  3.60000000E-02
  1.10000000E+00  1.87311370E+01  2.82539436E+00  6.40121692E-01  1.61277759E-01
  3.60000000E-02  1.10000000E+00  1.87311370E+01  2.82539436E+00  6.40121692E-01
  1.61277759E-01  3.60000000E-02  1.10000000E+00  3.04752488E+03  4.57369518E+02
  1.03948685E+02  2.92101553E+01  9.28666296E+00  3.16392696E+00  7.86827235E+00
  1.88128854E+00  5.44249258E-01  1.68714478E-01  4.38000000E-02  8.00000000E-01
  4.17351146E+03  6.27457911E+02  1.42902093E+02  4.02343293E+01  1.28202129E+01
  4.39043701E+00  1.16263619E+01  2.71627981E+00  7.72218397E-01  2.12031498E-01
  6.39000000E-02  8.00000000E-01
Contraction coefficients                   R   N=          72
  1.83473713E-03  1.40373228E-02  6.88426223E-02  2.32184443E-01  4.67941348E-01
  3.62311985E-01 -1.19332420E-01 -1.60854152E-01  1.14345644E+00  1.00000000E+00
  1.00000000E+00  1.00000000E+00  1.83295985E-03  1.40341988E-02  6.90973943E-02
  2.37451980E-01  4.83033960E-01  3.39855972E-01 -2.29739142E-03 -3.07137189E-02
 -1.12528069E-01  4.50163278E-02  5.89353363E-01  4.65206287E-01 -2.51828028E-01
  6.15892514E-02  1.06018433E+00  1.00000000E+00  1.00000000E+00  1.00000000E+00
  3.34946043E-02  2.34726953E-01  8.13757326E-01  1.00000000E+00  1.00000000E+00
  1.00000000E+00  3.34946043E-02  2.34726953E-01  8.13757326E-01  1.00000000E+00
  1.00000000E+00  1.00000000E+00  3.34946043E-02  2.34726953E-01  8.13757326E-01
  1.00000000E+00  1.00000000E+00  1.00000000E+00  1.83473713E-03  1.40373228E-02
  6.88426223E-02  2.32184443E-01  4.67941348E-01  3.62311985E-01 -1.19332420E-01
 -1.60854152E-01  1.14345644E+00  1.00000000E+00  1.00000000E+00  1.00000000E+00
  1.83477216E-03  1.39946270E-02  6.85865518E-02  2.32240873E-01  4.69069948E-01
  3.60455199E-01 -1.14961182E-01 -1.69117479E-01  1.14585195E+00  1.00000000E+00
  1.00000000E+00  1.00000000E+00
P(S=P) Contraction coefficients            R   N=          72
  0.00000000E+00  0.00000000E+00  0.00000000E+00  0.00000000E+00  0.00000000E+00
  0.00000000E+00  6.89990666E-02  3.16423961E-01  7.44308291E-01  1.00000000E+00
  1.00000000E+00  0.00000000E+00  0.00000000E+00  0.00000000E+00  0.00000000E+00
  0.00000000E+00  0.00000000E+00  0.00000000E+00  3.98940088E-03  3.03177067E-02
  1.29880029E-01  3.27951072E-01  4.53527100E-01  2.52154056E-01 -1.42993147E-02
  3.23572333E-01  7.43507765E-01  1.00000000E+00  1.00000000E+00  0.00000000E+00
  0.00000000E+00  0.00000000E+00  0.00000000E+00  0.00000000E+00  0.00000000E+00
  0.00000000E+00  0.00000000E+00  0.00000000E+00  0.00000000E+00  0.00000000E+00
  0.00000000E+00  0.00000000E+00  0.00000000E+00  0.00000000E+00  0.00000000E+00
  0.00000000E+00  0.00000000E+00  0.00000000E+00  0.00000000E+00  0.00000000E+00
  0.00000000E+00  0.00000000E+00  0.00000000E+00  0.00000000E+00  6.89990666E-02
  3.16423961E-01  7.44308291E-01  1.00000000E+00  1.00000000E+00  0.00000000E+00
  0.00000000E+00  0.00000000E+00  0.00000000E+00  0.00000000E+00  0.00000000E+00
  0.00000000E+00  6.75797439E-02  3.23907296E-01  7.40895140E-01  1.00000000E+00
  1.00000000E+00  0.00000000E+00
Coordinates of each shell                  R   N=          99
 -3.91849830E-01  1.32280829E-05 -3.30702072E-04 -3.91849830E-01  1.32280829E-05
 -3.30702072E-04 -3.91849830E-01  1.32280829E-05 -3.30702072E-04 -3.91849830E-01
  1.32280829E-05 -3.30702072E-04 -3.91849830E-01  1.32280829E-05 -3.30702072E-04
 -4.09229074E+00 -1.88972612E-06  8.69274017E-05 -4.09229074E+00 -1.88972612E-06
  8.69274017E-05 -4.09229074E+00 -1.88972612E-06  8.69274017E-05 -4.09229074E+00
 -1.88972612E-06  8.69274017E-05 -4.09229074E+00 -1.88972612E-06  8.69274017E-05
 -4.09229074E+00 -1.88972612E-06  8.69274017E-05  1.09517188E-01  4.59014476E-03
 -1.98049723E+00  1.09517188E-01  4.59014476E-03 -1.98049723E+00  1.09517188E-01
  4.59014476E-03 -1.98049723E+00  1.09517188E-01  4.59014476E-03 -1.98049723E+00
  1.10342998E-01  1.71265123E+00  9.93294853E-01  1.10342998E-01  1.71265123E+00
  9.93294853E-01  1.10342998E-01  1.71265123E+00  9.93294853E-01  1.10342998E-01
  1.71265123E+00  9.93294853E-01  1.10380793E-01 -1.71719035E+00  9.85367452E-01
  1.10380793E-01 -1.71719035E+00  9.85367452E-01  1.10380793E-01 -1.71719035E+00
  9.85367452E-01  1.10380793E-01 -1.71719035E+00  9.85367452E-01  4.47257734E+00
  5.66917837E-06 -2.92907549E-04  4.47257734E+00  5.66917837E-06 -2.92907549E-04
  4.47257734E+00  5.66917837E-06 -2.92907549E-04  4.47257734E+00  5.66917837E-06
 -2.92907549E-04  4.47257734E+00  5.66917837E-06 -2.92907549E-04  6.69861424E+00
 -1.32280829E-05  4.53534270E-04  6.69861424E+00 -1.32280829E-05  4.53534270E-04
  6.69861424E+00 -1.32280829E-05  4.53534270E-04  6.69861424E+00 -1.32280829E-05
  4.53534270E-04  6.69861424E+00 -1.32280829E-05  4.53534270E-04
Num ILSW                                   I              100
ILSW                                       I   N=         100
           0           1           0           0           2           0
           0           0           0           0         402          -1
           5           0           0           0           2           0
           0           0           0           0           1           0
           1           1           0           0           0           0
           0           0      100000           0          -1           0
           0           0           0           0           0           0
           0           0           0           1           0           0
           0 -2000000000           1           0           0           0
           0           0           4          52           0           0
           0           0           5           0           0           0
           0           0           0           7           0           1
           0           0           0           0           0           0
           0           0           0           0           0           0
           0           0           0           0           0           0
           0           0           0           0           0           0
           0           0           0           0
Num RLSW                                   I               52
RLSW                                       R   N=          52
  8.00000000E-01  7.20000000E-01  1.00000000E+00  8.10000000E-01  2.00000000E-01
  0.00000000E+00  0.00000000E+00  1.00000000E+00  0.00000000E+00  0.00000000E+00
  0.00000000E+00  0.00000000E+00  1.00000000E+00  0.00000000E+00  0.00000000E+00
  0.00000000E+00  0.00000000E+00  1.00000000E+00  0.00000000E+00  0.00000000E+00
  0.00000000E+00  0.00000000E+00  1.00000000E+00  0.00000000E+00  0.00000000E+00
  0.00000000E+00  0.00000000E+00  1.00000000E+00  0.00000000E+00  0.00000000E+00
  0.00000000E+00  0.00000000E+00  1.00000000E+00  0.00000000E+00  0.00000000E+00
  0.00000000E+00  0.00000000E+00  0.00000000E+00  1.00000000E+00  1.00000000E+00
  0.00000000E+00  1.00000000E+00  0.00000000E+00  0.00000000E+00  0.00000000E+00
  0.00000000E+00  0.00000000E+00  0.00000000E+00  0.00000000E+00  0.00000000E+00
  0.00000000E+00  0.00000000E+00
MxBond                                     I                4
NBond                                      I   N=           7
           4           1           1           1           1           1
           1
IBond                                      I   N=          28
           2           3           4           5           1           0
           0           0           1           0           0           0
           1           0           0           0           1           0
           0           0           7           0           0           0
           6           0           0           0
RBond                                      R   N=          28
  1.00000000E+00  1.00000000E+00  1.00000000E+00  1.00000000E+00  1.00000000E+00
  0.00000000E+00  0.00000000E+00  0.00000000E+00  1.00000000E+00  0.00000000E+00
  0.00000000E+00  0.00000000E+00  1.00000000E+00  0.00000000E+00  0.00000000E+00
  0.00000000E+00  1.00000000E+00  0.00000000E+00  0.00000000E+00  0.00000000E+00
  3.00000000E+00  0.00000000E+00  0.00000000E+00  0.00000000E+00  3.00000000E+00
  0.00000000E+00  0.00000000E+00  0.00000000E+00
Virial Ratio                               R      2.004580184724633E+00
SCF Energy                                 R     -5.929911497514486E+02
Total Energy                               R     -5.929911497514486E+02
RMS Force                                  R      2.862587839307608E-03
RMS Density                                R      4.298857962641773E-09
NImag                                      I                2
Job Status                                 I                1
Nuclear derivative order                   I                2
External E-field                           R   N=          35
  0.00000000E+00  0.00000000E+00  0.00000000E+00  0.00000000E+00  0.00000000E+00
  0.00000000E+00  0.00000000E+00  0.00000000E+00  0.00000000E+00  0.00000000E+00
  0.00000000E+00  0.00000000E+00  0.00000000E+00  0.00000000E+00  0.00000000E+00
  0.00000000E+00  0.00000000E+00  0.00000000E+00  0.00000000E+00  0.00000000E+00
  0.00000000E+00  0.00000000E+00  0.00000000E+00  0.00000000E+00  0.00000000E+00
  0.00000000E+00  0.00000000E+00  0.00000000E+00  0.00000000E+00  0.00000000E+00
  0.00000000E+00  0.00000000E+00  0.00000000E+00  0.00000000E+00  0.00000000E+00
IOpCl                                      I                0
IROHF                                      I                0
Alpha Orbital Energies                     R   N=          98
 -1.01386516E+02 -1.41059113E+01 -1.01017828E+01 -9.97127350E+00 -9.30202781E+00
 -7.06441578E+00 -7.05709850E+00 -7.05709833E+00 -6.77954101E-01 -6.60138874E-01
 -5.38055249E-01 -3.01129669E-01 -3.01097901E-01 -2.48470937E-01 -1.89729295E-01
 -1.60836271E-01 -1.60830347E-01 -1.08523480E-01 -1.08523170E-01 -7.90335966E-02
  1.12457838E-01  1.28655912E-01  1.48060171E-01  1.48061489E-01  1.65929670E-01
  1.95884584E-01  2.06214670E-01  2.06216438E-01  2.21715966E-01  2.21737355E-01
  2.47058397E-01  2.50440927E-01  2.50445884E-01  2.67665905E-01  2.68262903E-01
  2.68266439E-01  3.13449009E-01  3.42086545E-01  3.42114941E-01  3.70262692E-01
  3.82500365E-01  3.82757836E-01  3.82758409E-01  4.65585117E-01  4.77635787E-01
  6.98868855E-01  7.51610930E-01  7.55482954E-01  7.55487198E-01  7.86864462E-01
  7.86878219E-01  8.84726505E-01  8.88746002E-01  8.88760467E-01  9.89710175E-01
  1.01790131E+00  1.01791996E+00  1.04796920E+00  1.06587258E+00  1.06589864E+00
  1.09630757E+00  1.09636198E+00  1.12260419E+00  1.18474568E+00  1.18474951E+00
  1.25675438E+00  1.32155526E+00  1.35654432E+00  1.49808517E+00  1.60012806E+00
  1.60019024E+00  1.76982132E+00  1.76982343E+00  1.79324598E+00  1.79324803E+00
  1.81829170E+00  2.14793454E+00  2.19084758E+00  2.19088263E+00  2.19639939E+00
  2.19650871E+00  2.21907279E+00  2.53966886E+00  2.53980676E+00  2.62957530E+00
  2.82454893E+00  2.82455460E+00  2.84078889E+00  2.95927028E+00  2.95946260E+00
  3.26185036E+00  3.41523827E+00  3.56382533E+00  3.56396940E+00  4.21146647E+00
  4.45415398E+00  4.46767006E+00  4.55893984E+00
Alpha MO coefficients                      R   N=        9604
 -4.19411744E-06 -3.12024860E-05 -4.04998551E-05 -2.83177899E-10  6.61333667E-09
  4.16197017E-05 -9.13682058E-05  3.84475108E-12 -8.43047521E-09 -1.21197488E-04
 -9.17239097E-05 -5.54185575E-10  2.32489662E-08  5.42633839E-05  1.82555784E-05
  1.82443864E-05 -8.95086843E-12 -2.21044249E-10  7.14749618E-11  9.95997314E-01
  1.51505838E-02  3.23431188E-05  8.41913890E-11 -2.95366942E-09 -2.10561063E-02
 -1.59418267E-05 -4.82380972E-11  1.96252825E-09  1.86252333E-03 -6.32223034E-05
 -3.37909452E-10  9.01640290E-09 -3.75430619E-04 -8.50018890E-06 -5.95873753E-12
 -7.45501773E-11  7.49696315E-03  7.52630930E-03  7.52630937E-03 -1.77629283E-10
  5.11700949E-09 -1.30401835E-12 -1.53819908E-05 -1.32315409E-05  4.31701641E-05
  2.23066324E-05  1.76695694E-08 -7.61259824E-06 -1.53694029E-05 -1.32322859E-05
  4.31475690E-05  2.23125991E-05  6.58507175E-06  3.82105703E-06 -1.53686547E-05
 -1.32329790E-05  4.31472369E-05  2.23128225E-05 -6.60261628E-06  3.79065423E-06
 -1.50204868E-06 -2.27529143E-06  2.19818251E-06  6.94816546E-11 -3.51207857E-09
 -1.42467616E-04 -1.49747188E-04  7.88899967E-10 -2.85187222E-08  2.28378004E-05
 -1.05038237E-04  3.43206727E-10 -2.12861627E-09 -1.22160772E-05 -1.45220653E-06
 -1.45237588E-06  1.64614757E-10 -6.57154882E-09 -5.31464655E-12 -3.08569923E-06
 -1.27365212E-05 -1.07195506E-06 -2.51399379E-11  1.03934041E-09  1.78775064E-04
 -8.82110876E-05  9.18105944E-10 -3.65868243E-08  1.11368071E-04  1.38058662E-05
  2.57075748E-10 -1.60915233E-08  3.52549813E-06 -8.34560434E-06 -8.34556814E-06
 -1.48327512E-10  6.10717629E-09  5.66249424E-13  3.80933655E-07  1.47229443E-05
 -1.52219942E-05 -1.63982320E-11  4.00140759E-10  9.59053878E-06  1.49050804E-05
  5.00982225E-10 -3.44223029E-08  1.18443125E-03  2.95811884E-04  7.87065224E-10
 -1.21053648E-07 -1.64822497E-05  2.81682030E-06  2.81708686E-06 -1.59998772E-10
  2.67501423E-09  7.37637861E-12  1.20156461E-07  1.90547616E-06 -1.89680410E-07
  1.83284792E-11 -3.12323396E-10  4.24752062E-06  7.61060426E-07 -1.06155491E-10
  1.76032099E-09 -4.87962417E-05 -7.32106029E-06  3.21494584E-10 -2.94294432E-09
  2.74029266E-05 -2.80244890E-05 -1.06752357E-09  5.16879836E-08  6.02541301E-06
  2.84067181E-06  2.84103196E-06  2.37439160E-11  7.96635826E-10  1.17519778E-11
  4.28833308E-06 -7.44171093E-05 -1.73488912E-04 -4.09541908E-06  1.24379733E-08
 -5.38442779E-06  4.27265796E-06 -7.43301922E-05 -1.73662303E-04 -4.09726224E-06
  4.65397940E-06  2.70169834E-06  4.27195586E-06 -7.43284286E-05 -1.73671521E-04
 -4.09742817E-06 -4.66640665E-06  2.68015512E-06  8.42600849E-05  2.04909014E-04
 -3.01721245E-04  2.53644314E-09 -9.87760282E-08 -2.33153126E-04 -3.99406389E-04
  3.60799138E-09 -1.47573935E-07  1.19175209E-03  1.18784635E-03 -1.05172762E-08
  3.64233869E-07 -7.76913188E-04 -1.11084582E-05 -1.11094257E-05  7.54826775E-09
 -2.97282304E-07 -1.37921100E-11  9.92698460E-01  3.44574798E-02 -1.43591224E-03
  1.19881055E-08 -4.75219302E-07  5.19426975E-03  1.29851115E-04 -1.05333886E-09
  4.12816254E-08 -3.03505996E-03  1.44212500E-05  9.57356988E-11  2.16446227E-08
 -7.69371415E-03 -8.42543163E-03 -8.42543172E-03 -7.15623366E-09  2.82252297E-07
 -7.34097707E-12  9.93040003E-01  4.94127285E-02 -4.61686770E-04  4.34849105E-09
 -2.22053550E-07 -1.62577007E-02  2.56656606E-04 -9.73738324E-09  1.18891954E-06
  5.98575471E-03 -3.17162427E-03 -1.54212707E-08  1.07708891E-06 -9.28392340E-03
 -8.70123842E-03 -8.70140169E-03 -4.64077590E-09  1.40729885E-07  3.27547002E-09
 -7.46394147E-06 -5.90012000E-05 -2.33708799E-05 -4.16941794E-10  7.49912906E-09
 -1.89757380E-04  2.23103813E-04  2.94048523E-09 -5.23673527E-08  2.50130604E-03
  1.45912168E-03 -6.51608741E-10 -1.72928540E-07 -4.98053682E-03 -1.77066446E-03
 -3.03254688E-09  3.93267731E-08  6.62256429E-05 -1.41944232E-04 -1.41960517E-04
 -1.79850065E-10 -4.19237444E-08 -4.76811896E-10 -1.65286689E-04  3.03907387E-03
 -9.34704475E-04  5.17562783E-05  3.12335127E-07 -1.34405564E-04 -1.65381521E-04
  3.03781830E-03 -9.35581010E-04  5.17945605E-05  1.16267335E-04  6.74258834E-05
 -1.65378101E-04  3.03780494E-03 -9.35553975E-04  5.17922117E-05 -1.16573664E-04
  6.68876324E-05 -1.25514465E-05 -1.31362258E-04  4.60129597E-05 -2.47363070E-09
  3.66083063E-08 -1.05228527E-03 -1.76224454E-03  2.18917061E-08 -5.80055072E-07
  1.72287526E-03  5.26060316E-04  2.25721960E-08 -4.34366123E-07  2.69816756E-05
 -3.90870060E-05 -3.90623321E-05 -6.79119125E-12 -2.61992459E-08  4.83520430E-10
 -5.12483449E-05 -2.09356240E-04  1.76142976E-05 -2.78198599E-10  3.08020577E-08
  2.22843584E-03 -7.81852217E-04  6.14748575E-09 -3.42496409E-07 -6.90093471E-04
 -2.29327935E-04 -1.79648487E-08  4.26115049E-07 -5.55691181E-05 -1.15186938E-04
 -1.15189621E-04  4.13737867E-10  4.09300788E-09 -2.02998334E-11 -3.35638083E-05
 -1.54959748E-04 -8.98139749E-05 -5.05748739E-10  2.01153662E-08  4.87166770E-04
  7.34483565E-04  8.11294031E-09 -3.45808965E-07 -1.71472822E-03  8.15807146E-03
  9.83955128E-09 -5.01127749E-07  5.19403245E-05 -3.55933180E-05 -3.55955106E-05
  2.25978372E-10 -1.90222093E-08  2.34634028E-10  2.55065564E-07  8.81465556E-06
  7.71851813E-06  1.83388826E-10 -4.05944953E-09  2.03695550E-05 -5.05797064E-05
 -1.08609619E-09  2.34921080E-08 -2.62808004E-04  4.60595358E-04  4.14817135E-09
 -8.19048409E-08  8.67721617E-03  2.17673351E-03  1.42236752E-08 -3.56232321E-07
  6.01579644E-05 -5.24076807E-07 -5.19002028E-07  6.45206710E-10 -9.70136898E-09
  1.08842725E-10 -3.73938576E-05 -4.59275930E-04  1.65419423E-04 -2.48495298E-05
  1.48388201E-09 -9.35394832E-07 -3.74135050E-05 -4.58807853E-04  1.65377771E-04
 -2.47428196E-05  7.60627382E-07  4.66797822E-07 -3.74150614E-05 -4.58792882E-04
  1.65356968E-04 -2.47371031E-05 -7.61474517E-07  4.61749265E-07  9.92834753E-01
  4.94164283E-02  1.81559827E-03 -1.68760248E-08  6.80620823E-07 -1.06633267E-02
 -3.27459287E-04  7.35872953E-09 -3.65783417E-07 -1.12465428E-02  1.49641719E-03
 -5.87253402E-09 -3.77764423E-07 -8.45896306E-03 -9.72688228E-03 -9.72688718E-03
 -1.20393933E-08  4.84638817E-07 -7.68122642E-11 -4.85537306E-04  9.47704026E-05
  4.19564175E-04 -3.21455557E-09  1.29878130E-07 -1.66027155E-03  7.79155094E-04
 -9.13342263E-09  3.48191260E-07  9.15745895E-03 -3.79484459E-03  3.53817395E-08
 -1.09131763E-06 -2.49239477E-04  1.96077680E-04  1.96078060E-04  4.59782220E-09
 -1.87341635E-07 -4.53101080E-13 -7.24426368E-05  1.21122520E-04  2.39249607E-04
  3.51914397E-10  3.51827073E-09  2.40441747E-03 -1.63256246E-03 -1.04385836E-08
  2.09566132E-08 -2.22446899E-02  3.61913306E-02  9.07024840E-08 -2.92161267E-06
 -5.57231895E-04 -7.83437628E-05 -7.84188903E-05 -2.30226956E-09  4.36273912E-08
 -1.37605609E-09 -2.84612436E-01  1.02275560E+00  3.79489534E-03  1.04319130E-08
 -3.53224433E-07  7.59238226E-02  5.02235356E-04  1.44742246E-09 -5.34824119E-08
 -2.57204238E-02 -1.63353505E-03 -3.70081259E-09  1.61764470E-07  5.47646033E-02
  1.58281528E-02  8.51000109E-08 -2.25305980E-06 -1.53337714E-02 -1.55579172E-02
 -1.55579215E-02  1.70864849E-09 -3.34945002E-08  8.53020953E-11 -5.24366113E-05
 -7.22563795E-04  5.13043149E-04 -5.48745184E-05  2.59865469E-09 -1.30204454E-06
 -5.24664271E-05 -7.22413508E-04  5.14121724E-04 -5.46962176E-05  1.12689009E-06
  6.78704517E-07 -5.24697329E-05 -7.22417513E-04  5.14150056E-04 -5.46869453E-05
 -1.13115702E-06  6.73672722E-07  1.84146859E-05  8.14496357E-05  4.01542938E-05
 -4.30430782E-10  6.09977793E-08 -2.96133838E-04  1.76025786E-04 -9.75878826E-10
 -1.22236512E-07 -2.48591605E-02  1.20598104E-02 -6.65429603E-08  6.07675970E-07
  8.93891783E-05  1.77045696E-05  1.76995921E-05  9.10504656E-11  2.78699902E-09
 -1.10684821E-10 -6.44132998E-06 -6.03682378E-06 -1.63927053E-05 -1.85390131E-10
  2.87421033E-08 -8.50779098E-05  3.36543349E-04 -2.41648430E-09  5.02622237E-09
  7.87375564E-04 -2.87155446E-03  2.65920112E-08 -7.61663776E-08 -6.88961389E-05
 -1.13394401E-05 -1.13379721E-05  3.60827062E-10 -2.74921757E-08  1.80786180E-11
  8.74765198E-05  1.25167328E-03 -1.23257323E-04 -5.08045599E-10 -3.15338296E-08
 -3.38916445E-04  1.34644214E-03 -2.79549350E-08  9.14804303E-07  2.76398147E-02
 -6.16188867E-02 -9.43255800E-08  2.71052785E-06 -1.30349953E-03  2.77417965E-04
  2.77197373E-04 -6.17899735E-09  1.56554309E-07 -5.06232940E-09  1.11965996E-03
 -4.25591704E-03  9.90425795E-01  2.41757204E-06 -7.57919909E-05 -1.65987885E-04
  3.11939874E-02  8.03170447E-08 -2.50110962E-06  3.97937800E-03 -1.33519048E-02
 -3.78110912E-08  1.17181352E-06 -6.71755040E-02 -1.35393705E-02 -1.12165950E-07
  2.82916516E-06  3.77276827E-04 -3.39857241E-04 -3.39869922E-04  2.83182519E-09
 -9.22598851E-08 -2.37543006E-10 -2.37937021E-04  1.44329076E-03 -5.68516059E-03
 -3.01381368E-04  1.05581649E-07 -4.53707201E-05 -2.38372182E-04  1.44259618E-03
 -5.68559390E-03 -3.01109211E-04  3.93679300E-05  2.28303257E-05 -2.38390930E-04
  1.44256393E-03 -5.68562366E-03 -3.01096196E-04 -3.94787005E-05  2.26522902E-05
 -3.61835948E-05 -1.86187293E-04 -9.82320523E-05  1.34683713E-10 -8.43136398E-08
  3.24116699E-03  1.89822599E-03 -1.54124725E-08  9.12866458E-07  5.72456216E-02
 -2.22980929E-02  9.54847164E-08 -3.41916437E-07  6.48785165E-05 -6.35143833E-05
 -6.35115616E-05 -3.55098446E-09  1.25489341E-07  6.45034154E-11 -6.52542698E-06
  6.78655639E-07  3.41732315E-05  6.76513010E-11 -3.68786531E-08 -1.13699145E-03
  9.04811274E-04 -6.68899418E-09  4.09059637E-07 -9.79365777E-03  6.85304122E-03
 -6.50820044E-08  8.88073946E-07 -1.09142505E-04  3.95007393E-06  3.94542826E-06
  1.54954450E-09 -3.82796181E-08 -3.79962943E-11  2.09482646E-09  1.21329450E-08
  1.94880772E-09 -6.43879873E-05  4.69504418E-07 -6.38036660E-08 -1.08471332E-08
  3.12209381E-04 -2.28296123E-06  1.29646794E-08 -5.56842102E-07  3.18241225E-04
 -2.30628237E-06  1.67328981E-09  1.11529127E-06 -1.11405787E-06 -5.31986831E-06
  3.93798775E-08 -9.05787400E-05  5.88211107E-10 -3.39810661E-09 -2.97349730E-06
  9.90821799E-01 -7.22203086E-03 -1.78535698E-09 -8.29921974E-08  2.95837105E-02
 -2.15633074E-04  3.41116544E-08  2.58884020E-08 -1.16067276E-02  8.45999976E-05
 -5.25496028E-07 -1.51882939E-07  5.16926644E-03 -3.76780839E-05 -1.70629240E-09
 -6.66774003E-08  6.48582001E-08  2.43462964E-04 -1.77431535E-06  5.36158122E-06
 -7.00676897E-07  5.43789490E-06 -4.28503168E-05 -2.16012715E-06 -2.75178643E-05
  7.57560187E-07 -6.28739847E-05  4.84427793E-04 -3.84412404E-03 -1.93726136E-04
 -7.05929197E-05 -2.47337891E-05  6.35809346E-05 -4.89738345E-04  3.88693305E-03
  1.95879626E-04 -7.11827229E-05  2.52088174E-05 -1.01621262E-09 -4.17849647E-09
  2.83600014E-10  5.53432080E-05 -4.03296284E-07  2.81269007E-09 -2.57354146E-08
 -2.24850346E-04  1.63869679E-06  4.88538282E-07 -2.63450177E-07  1.03120634E-03
 -7.51898587E-06 -2.07754496E-09 -4.28621324E-08  3.98384104E-08 -1.37549869E-06
  9.96023984E-09  3.35928466E-06 -5.39569655E-10 -2.52911703E-09  1.23202626E-10
 -2.24866553E-05  1.63952202E-07  2.86158728E-08 -1.30854379E-08  1.36170536E-04
 -9.92697207E-07 -2.22420615E-08  7.39823394E-08 -3.78075989E-04  2.75701818E-06
  1.25506478E-11 -3.15271548E-08  2.96324982E-08 -1.61188594E-05  1.17460246E-07
  2.48402585E-06 -3.13275611E-08 -1.86967422E-07 -9.14050132E-09 -4.69432376E-07
 -6.44290224E-05  8.83343098E-07 -6.79961544E-09  2.26644967E-06  3.11946245E-04
 -3.31714186E-06  1.27810885E-05  2.32267648E-06  3.16828582E-04 -2.84471843E-08
 -7.85712579E-05  7.85636293E-05 -3.79792083E-08 -5.29332525E-06 -1.29123096E-06
 -2.08506130E-08  1.03171235E-07  7.58566086E-05  7.22203089E-03  9.90821805E-01
  4.15396293E-08  2.13126349E-06  2.15633824E-04  2.95836694E-02 -7.54863997E-07
 -6.66141769E-07 -8.46003240E-05 -1.16066000E-02  1.27895875E-05  3.81213788E-06
  3.76790427E-05  5.16930454E-03  4.00478680E-08  4.70826129E-06 -4.67793802E-06
  1.77493648E-06  2.43474257E-04  7.73432184E-08  7.28621454E-05 -5.63528720E-04
  4.46235728E-03  2.25048656E-04 -6.54295144E-08 -8.54631740E-05 -3.70999652E-05
  2.85643257E-04 -2.26693425E-03 -1.14299111E-04 -2.56155156E-05 -4.22758741E-05
 -3.58910739E-05  2.76275871E-04 -2.19273295E-03 -1.10555830E-04  2.44446752E-05
 -4.16810181E-05  1.84935522E-08  7.99330182E-08 -4.48740212E-09  4.03309413E-07