RxCoord=1.69960 DE=49.91                                                
Freq      RB3LYP                                                      6-31++G(d,p)        
Number of atoms                            I                7
Info1-9                                    I   N=           9
          16          16           0           0           0         100
           6          18        -502
Full Title                                 C   N=           2
RxCoord=1.69960 DE=49.91
Route                                      C   N=           6
#p b3lyp 6-31++g(d,p) scf=verytight NoSymm freq=noraman int=
ultrafine   
Charge                                     I               -1
Multiplicity                               I                1
Number of electrons                        I               40
Number of alpha electrons                  I               20
Number of beta electrons                   I               20
Number of basis functions                  I               98
Number of independent functions            I               98
Number of point charges in /Mol/           I                0
Number of translation vectors              I                0
Atomic numbers                             I   N=           7
           6          17           1           1           1           6
           7
Nuclear charges                            R   N=           7
  6.00000000E+00  1.70000000E+01  1.00000000E+00  1.00000000E+00  1.00000000E+00
  6.00000000E+00  7.00000000E+00
Current cartesian coordinates              R   N=          21
 -4.17096571E-01  1.32280829E-05 -3.40150702E-04 -4.08857365E+00 -1.88972612E-06
  8.88171279E-05  1.00100683E-01  4.57691667E-03 -1.97710895E+00  1.00907596E-01
  1.70969570E+00  9.91599769E-01  1.00949170E-01 -1.71421970E+00  9.83696934E-01
  4.48019671E+00  7.55890450E-06 -2.94797275E-04  6.70646983E+00 -1.51178090E-05
  4.55423996E-04
Number of symbols in /Mol/                 I                0
Force Field                                I                0
Atom Types                                 C   N=           7
                                                            
                        
Int Atom Types                             I   N=           7
           0           0           0           0           0           0
           0
MM charges                                 R   N=           7
  0.00000000E+00  0.00000000E+00  0.00000000E+00  0.00000000E+00  0.00000000E+00
  0.00000000E+00  0.00000000E+00
Integer atomic weights                     I   N=           7
          12          35           1           1           1          12
          14
Real atomic weights                        R   N=           7
  1.20000000E+01  3.49688527E+01  1.00782504E+00  1.00782504E+00  1.00782504E+00
  1.20000000E+01  1.40030740E+01
Atom fragment info                         I   N=           7
           0           0           0           0           0           0
           0
Atom residue num                           I   N=           7
           0           0           0           0           0           0
           0
Nuclear spins                              I   N=           7
           0           3           1           1           1           0
           2
Nuclear ZEff                               R   N=           7
 -3.60000000E+00 -1.42400000E+01 -1.00000000E+00 -1.00000000E+00 -1.00000000E+00
 -3.60000000E+00 -4.55000000E+00
Nuclear ZNuc                               R   N=           7
  6.00000000E+00  1.70000000E+01  1.00000000E+00  1.00000000E+00  1.00000000E+00
  6.00000000E+00  7.00000000E+00
Nuclear QMom                               R   N=           7
  0.00000000E+00 -8.16500000E+00  0.00000000E+00  0.00000000E+00  0.00000000E+00
  0.00000000E+00  2.04400000E+00
Nuclear GFac                               R   N=           7
  0.00000000E+00  8.21874000E-01  2.79284600E+00  2.79284600E+00  2.79284600E+00
  0.00000000E+00  4.03761000E-01
MicOpt                                     I   N=           7
          -1          -1          -1          -1          -1          -1
          -1
Number of residues                         I                0
Number of secondary structures             I                0
Number of contracted shells                I               33
Number of primitive shells                 I               72
Pure/Cartesian d shells                    I                1
Pure/Cartesian f shells                    I                0
Highest angular momentum                   I                2
Largest degree of contraction              I                6
Shell types                                I   N=          33
           0          -1          -1          -1           2           0
          -1          -1          -1          -1           2           0
           0           0           1           0           0           0
           1           0           0           0           1           0
          -1          -1          -1           2           0          -1
          -1          -1           2
Number of primitives per shell             I   N=          33
           6           3           1           1           1           6
           6           3           1           1           1           3
           1           1           1           3           1           1
           1           3           1           1           1           6
           3           1           1           1           6           3
           1           1           1
Shell to atom map                          I   N=          33
           1           1           1           1           1           2
           2           2           2           2           2           3
           3           3           3           4           4           4
           4           5           5           5           5           6
           6           6           6           6           7           7
           7           7           7
Primitive exponents                        R   N=          72
  3.04752488E+03  4.57369518E+02  1.03948685E+02  2.92101553E+01  9.28666296E+00
  3.16392696E+00  7.86827235E+00  1.88128854E+00  5.44249258E-01  1.68714478E-01
  4.38000000E-02  8.00000000E-01  2.51801000E+04  3.78035000E+03  8.60474000E+02
  2.42145000E+02  7.73349000E+01  2.62470000E+01  4.91765000E+02  1.16984000E+02
  3.74153000E+01  1.37834000E+01  5.45215000E+00  2.22588000E+00  3.18649000E+00
  1.14427000E+00  4.20377000E-01  1.42657000E-01  4.83000000E-02  7.50000000E-01
  1.87311370E+01  2.82539436E+00  6.40121692E-01  1.61277759E-01  3.60000000E-02
  1.10000000E+00  1.87311370E+01  2.82539436E+00  6.40121692E-01  1.61277759E-01
  3.60000000E-02  1.10000000E+00  1.87311370E+01  2.82539436E+00  6.40121692E-01
  1.61277759E-01  3.60000000E-02  1.10000000E+00  3.04752488E+03  4.57369518E+02
  1.03948685E+02  2.92101553E+01  9.28666296E+00  3.16392696E+00  7.86827235E+00
  1.88128854E+00  5.44249258E-01  1.68714478E-01  4.38000000E-02  8.00000000E-01
  4.17351146E+03  6.27457911E+02  1.42902093E+02  4.02343293E+01  1.28202129E+01
  4.39043701E+00  1.16263619E+01  2.71627981E+00  7.72218397E-01  2.12031498E-01
  6.39000000E-02  8.00000000E-01
Contraction coefficients                   R   N=          72
  1.83473713E-03  1.40373228E-02  6.88426223E-02  2.32184443E-01  4.67941348E-01
  3.62311985E-01 -1.19332420E-01 -1.60854152E-01  1.14345644E+00  1.00000000E+00
  1.00000000E+00  1.00000000E+00  1.83295985E-03  1.40341988E-02  6.90973943E-02
  2.37451980E-01  4.83033960E-01  3.39855972E-01 -2.29739142E-03 -3.07137189E-02
 -1.12528069E-01  4.50163278E-02  5.89353363E-01  4.65206287E-01 -2.51828028E-01
  6.15892514E-02  1.06018433E+00  1.00000000E+00  1.00000000E+00  1.00000000E+00
  3.34946043E-02  2.34726953E-01  8.13757326E-01  1.00000000E+00  1.00000000E+00
  1.00000000E+00  3.34946043E-02  2.34726953E-01  8.13757326E-01  1.00000000E+00
  1.00000000E+00  1.00000000E+00  3.34946043E-02  2.34726953E-01  8.13757326E-01
  1.00000000E+00  1.00000000E+00  1.00000000E+00  1.83473713E-03  1.40373228E-02
  6.88426223E-02  2.32184443E-01  4.67941348E-01  3.62311985E-01 -1.19332420E-01
 -1.60854152E-01  1.14345644E+00  1.00000000E+00  1.00000000E+00  1.00000000E+00
  1.83477216E-03  1.39946270E-02  6.85865518E-02  2.32240873E-01  4.69069948E-01
  3.60455199E-01 -1.14961182E-01 -1.69117479E-01  1.14585195E+00  1.00000000E+00
  1.00000000E+00  1.00000000E+00
P(S=P) Contraction coefficients            R   N=          72
  0.00000000E+00  0.00000000E+00  0.00000000E+00  0.00000000E+00  0.00000000E+00
  0.00000000E+00  6.89990666E-02  3.16423961E-01  7.44308291E-01  1.00000000E+00
  1.00000000E+00  0.00000000E+00  0.00000000E+00  0.00000000E+00  0.00000000E+00
  0.00000000E+00  0.00000000E+00  0.00000000E+00  3.98940088E-03  3.03177067E-02
  1.29880029E-01  3.27951072E-01  4.53527100E-01  2.52154056E-01 -1.42993147E-02
  3.23572333E-01  7.43507765E-01  1.00000000E+00  1.00000000E+00  0.00000000E+00
  0.00000000E+00  0.00000000E+00  0.00000000E+00  0.00000000E+00  0.00000000E+00
  0.00000000E+00  0.00000000E+00  0.00000000E+00  0.00000000E+00  0.00000000E+00
  0.00000000E+00  0.00000000E+00  0.00000000E+00  0.00000000E+00  0.00000000E+00
  0.00000000E+00  0.00000000E+00  0.00000000E+00  0.00000000E+00  0.00000000E+00
  0.00000000E+00  0.00000000E+00  0.00000000E+00  0.00000000E+00  6.89990666E-02
  3.16423961E-01  7.44308291E-01  1.00000000E+00  1.00000000E+00  0.00000000E+00
  0.00000000E+00  0.00000000E+00  0.00000000E+00  0.00000000E+00  0.00000000E+00
  0.00000000E+00  6.75797439E-02  3.23907296E-01  7.40895140E-01  1.00000000E+00
  1.00000000E+00  0.00000000E+00
Coordinates of each shell                  R   N=          99
 -4.17096571E-01  1.32280829E-05 -3.40150702E-04 -4.17096571E-01  1.32280829E-05
 -3.40150702E-04 -4.17096571E-01  1.32280829E-05 -3.40150702E-04 -4.17096571E-01
  1.32280829E-05 -3.40150702E-04 -4.17096571E-01  1.32280829E-05 -3.40150702E-04
 -4.08857365E+00 -1.88972612E-06  8.88171279E-05 -4.08857365E+00 -1.88972612E-06
  8.88171279E-05 -4.08857365E+00 -1.88972612E-06  8.88171279E-05 -4.08857365E+00
 -1.88972612E-06  8.88171279E-05 -4.08857365E+00 -1.88972612E-06  8.88171279E-05
 -4.08857365E+00 -1.88972612E-06  8.88171279E-05  1.00100683E-01  4.57691667E-03
 -1.97710895E+00  1.00100683E-01  4.57691667E-03 -1.97710895E+00  1.00100683E-01
  4.57691667E-03 -1.97710895E+00  1.00100683E-01  4.57691667E-03 -1.97710895E+00
  1.00907596E-01  1.70969570E+00  9.91599769E-01  1.00907596E-01  1.70969570E+00
  9.91599769E-01  1.00907596E-01  1.70969570E+00  9.91599769E-01  1.00907596E-01
  1.70969570E+00  9.91599769E-01  1.00949170E-01 -1.71421970E+00  9.83696934E-01
  1.00949170E-01 -1.71421970E+00  9.83696934E-01  1.00949170E-01 -1.71421970E+00
  9.83696934E-01  1.00949170E-01 -1.71421970E+00  9.83696934E-01  4.48019671E+00
  7.55890450E-06 -2.94797275E-04  4.48019671E+00  7.55890450E-06 -2.94797275E-04
  4.48019671E+00  7.55890450E-06 -2.94797275E-04  4.48019671E+00  7.55890450E-06
 -2.94797275E-04  4.48019671E+00  7.55890450E-06 -2.94797275E-04  6.70646983E+00
 -1.51178090E-05  4.55423996E-04  6.70646983E+00 -1.51178090E-05  4.55423996E-04
  6.70646983E+00 -1.51178090E-05  4.55423996E-04  6.70646983E+00 -1.51178090E-05
  4.55423996E-04  6.70646983E+00 -1.51178090E-05  4.55423996E-04
Num ILSW                                   I              100
ILSW                                       I   N=         100
           0           1           0           0           2           0
           0           0           0           0         402          -1
           5           0           0           0           2           0
           0           0           0           0           1           0
           1           1           0           0           0           0
           0           0      100000           0          -1           0
           0           0           0           0           0           0
           0           0           0           1           0           0
           0 -2000000000           1           0           0           0
           0           0           4          52           0           0
           0           0           5           0           0           0
           0           0           0           7           0           1
           0           0           0           0           0           0
           0           0           0           0           0           0
           0           0           0           0           0           0
           0           0           0           0           0           0
           0           0           0           0
Num RLSW                                   I               52
RLSW                                       R   N=          52
  8.00000000E-01  7.20000000E-01  1.00000000E+00  8.10000000E-01  2.00000000E-01
  0.00000000E+00  0.00000000E+00  1.00000000E+00  0.00000000E+00  0.00000000E+00
  0.00000000E+00  0.00000000E+00  1.00000000E+00  0.00000000E+00  0.00000000E+00
  0.00000000E+00  0.00000000E+00  1.00000000E+00  0.00000000E+00  0.00000000E+00
  0.00000000E+00  0.00000000E+00  1.00000000E+00  0.00000000E+00  0.00000000E+00
  0.00000000E+00  0.00000000E+00  1.00000000E+00  0.00000000E+00  0.00000000E+00
  0.00000000E+00  0.00000000E+00  1.00000000E+00  0.00000000E+00  0.00000000E+00
  0.00000000E+00  0.00000000E+00  0.00000000E+00  1.00000000E+00  1.00000000E+00
  0.00000000E+00  1.00000000E+00  0.00000000E+00  0.00000000E+00  0.00000000E+00
  0.00000000E+00  0.00000000E+00  0.00000000E+00  0.00000000E+00  0.00000000E+00
  0.00000000E+00  0.00000000E+00
MxBond                                     I                4
NBond                                      I   N=           7
           4           1           1           1           1           1
           1
IBond                                      I   N=          28
           2           3           4           5           1           0
           0           0           1           0           0           0
           1           0           0           0           1           0
           0           0           7           0           0           0
           6           0           0           0
RBond                                      R   N=          28
  1.00000000E+00  1.00000000E+00  1.00000000E+00  1.00000000E+00  1.00000000E+00
  0.00000000E+00  0.00000000E+00  0.00000000E+00  1.00000000E+00  0.00000000E+00
  0.00000000E+00  0.00000000E+00  1.00000000E+00  0.00000000E+00  0.00000000E+00
  0.00000000E+00  1.00000000E+00  0.00000000E+00  0.00000000E+00  0.00000000E+00
  3.00000000E+00  0.00000000E+00  0.00000000E+00  0.00000000E+00  3.00000000E+00
  0.00000000E+00  0.00000000E+00  0.00000000E+00
Virial Ratio                               R      2.004569857914244E+00
SCF Energy                                 R     -5.929914954394765E+02
Total Energy                               R     -5.929914954394765E+02
RMS Force                                  R      2.706143201224416E-03
RMS Density                                R      4.398612649986988E-09
NImag                                      I                2
Job Status                                 I                1
Nuclear derivative order                   I                2
External E-field                           R   N=          35
  0.00000000E+00  0.00000000E+00  0.00000000E+00  0.00000000E+00  0.00000000E+00
  0.00000000E+00  0.00000000E+00  0.00000000E+00  0.00000000E+00  0.00000000E+00
  0.00000000E+00  0.00000000E+00  0.00000000E+00  0.00000000E+00  0.00000000E+00
  0.00000000E+00  0.00000000E+00  0.00000000E+00  0.00000000E+00  0.00000000E+00
  0.00000000E+00  0.00000000E+00  0.00000000E+00  0.00000000E+00  0.00000000E+00
  0.00000000E+00  0.00000000E+00  0.00000000E+00  0.00000000E+00  0.00000000E+00
  0.00000000E+00  0.00000000E+00  0.00000000E+00  0.00000000E+00  0.00000000E+00
IOpCl                                      I                0
IROHF                                      I                0
Alpha Orbital Energies                     R   N=          98
 -1.01388859E+02 -1.41044988E+01 -1.01009401E+01 -9.96963496E+00 -9.30445430E+00
 -7.06691072E+00 -7.05947821E+00 -7.05947806E+00 -6.81701527E-01 -6.58689476E-01
 -5.37630517E-01 -3.01012527E-01 -3.00985759E-01 -2.51236427E-01 -1.88962370E-01
 -1.62297884E-01 -1.62292272E-01 -1.07148309E-01 -1.07148039E-01 -7.77366129E-02
  1.12360564E-01  1.29091324E-01  1.47932319E-01  1.47932845E-01  1.66754991E-01
  1.96854375E-01  2.06188058E-01  2.06189767E-01  2.21726998E-01  2.21746833E-01
  2.46714314E-01  2.50566838E-01  2.50571775E-01  2.68326005E-01  2.69101796E-01
  2.69105553E-01  3.13757364E-01  3.41901656E-01  3.41927828E-01  3.69442931E-01
  3.82932770E-01  3.83369431E-01  3.83370261E-01  4.66025960E-01  4.78405207E-01
  6.95021409E-01  7.50144378E-01  7.54609478E-01  7.54613174E-01  7.85593616E-01
  7.85605460E-01  8.84942057E-01  8.89978523E-01  8.89992607E-01  9.89570927E-01
  1.01564146E+00  1.01565812E+00  1.05354143E+00  1.06412632E+00  1.06415097E+00
  1.09663025E+00  1.09667907E+00  1.12224222E+00  1.18572102E+00  1.18572445E+00
  1.25814081E+00  1.31660814E+00  1.35723189E+00  1.49658178E+00  1.60079731E+00
  1.60085321E+00  1.77128112E+00  1.77128320E+00  1.79476098E+00  1.79476319E+00
  1.81582134E+00  2.14964159E+00  2.19246286E+00  2.19248149E+00  2.20016772E+00
  2.20027601E+00  2.22650025E+00  2.53364262E+00  2.53376334E+00  2.63450821E+00
  2.82593166E+00  2.82593665E+00  2.84224225E+00  2.96074763E+00  2.96091377E+00
  3.26251384E+00  3.41225583E+00  3.56344959E+00  3.56357265E+00  4.21245135E+00
  4.45115285E+00  4.46654707E+00  4.55972202E+00
Alpha MO coefficients                      R   N=        9604
 -4.52797878E-06 -2.49966907E-05 -4.23159238E-05 -2.96268874E-10  6.77483028E-09
  4.80886729E-05 -8.73266845E-05  6.55786864E-11 -7.75188197E-09 -1.11868582E-04
 -1.00859057E-04 -7.07338114E-10  2.21940564E-08  4.72931159E-05  1.78744196E-05
  1.78639947E-05 -7.59732891E-11  5.55267823E-11  6.15187301E-11  9.95997278E-01
  1.51505895E-02  3.32567041E-05  7.57749618E-11 -3.20887827E-09 -2.10563632E-02
 -1.65212512E-05 -5.46174801E-11  2.02222247E-09  1.86389558E-03 -6.27622077E-05
 -3.26971649E-10  9.37888033E-09 -3.88201520E-04 -1.19489257E-05 -1.37529611E-11
  5.11809522E-10  7.49675161E-03  7.52605334E-03  7.52605341E-03 -1.81087085E-10
  5.22305231E-09 -7.66259078E-13 -1.65720305E-05 -1.45974424E-05  4.26048795E-05
  2.24322570E-05  1.90739482E-08 -8.23301221E-06 -1.65600586E-05 -1.45984567E-05
  4.25855935E-05  2.24390225E-05  7.12110066E-06  4.13191734E-06 -1.65592334E-05
 -1.45991087E-05  4.25849798E-05  2.24393689E-05 -7.14005035E-06  4.09907468E-06
 -1.46109367E-06 -1.88911721E-06  2.09262008E-06  9.60980389E-11 -3.55092904E-09
 -1.41514965E-04 -1.46515275E-04  8.81538576E-10 -2.81370991E-08  2.85015294E-05
 -1.06927797E-04  2.82399532E-10 -2.57572050E-09 -1.25129896E-05 -1.36829868E-06
 -1.36847918E-06  2.00199389E-10 -6.54693419E-09 -5.79538157E-12 -3.04415163E-06
 -1.24950522E-05 -1.14601160E-06 -2.96329755E-11  9.55289945E-10  1.76029989E-04
 -8.72253534E-05  1.09490562E-09 -3.61976352E-08  1.09568058E-04  1.46265521E-05
  3.76494351E-10 -1.57694243E-08  3.62141864E-06 -8.29637780E-06 -8.29634105E-06
 -1.82242509E-10  6.15239025E-09  5.05732916E-13  7.39446255E-07  1.52770981E-05
 -1.39110349E-05 -9.70111778E-12  1.47163007E-11  4.41167668E-06  1.12589275E-05
  5.60730566E-10 -3.06339285E-08  1.18082480E-03  2.64963944E-04  1.36515849E-09
 -1.12675495E-07 -1.52217506E-05  3.56199322E-06  3.56257671E-06 -1.69066601E-10
  2.52705750E-09  1.52293115E-11  1.16884881E-07  1.92219376E-06 -2.32907913E-07
  1.99769245E-11 -3.13729409E-10  4.14166791E-06  1.03032235E-06 -1.15369508E-10
  1.77505553E-09 -4.84638962E-05 -8.97262367E-06  3.45906045E-10 -3.14268987E-09
 -3.76960618E-06 -3.63182745E-05 -1.44810746E-09  5.33491364E-08  5.94790728E-06
  2.95773247E-06  2.95806493E-06  1.68744085E-11  7.64963612E-10  1.31638610E-11
  4.62772640E-06 -7.22684904E-05 -1.75794275E-04 -3.80731330E-06  1.21099363E-08
 -5.25070104E-06  4.61233135E-06 -7.21868475E-05 -1.75976859E-04 -3.80941363E-06
  4.53837403E-06  2.63442735E-06  4.61159266E-06 -7.21847819E-05 -1.75987384E-04
 -3.80957713E-06 -4.55045424E-06  2.61343222E-06  8.42688752E-05  2.05005386E-04
 -2.99578120E-04  3.00807927E-09 -9.86460225E-08 -2.36400754E-04 -4.03375026E-04
  4.42538528E-09 -1.49081436E-07  1.23095491E-03  1.16714137E-03 -1.21532584E-08
  3.65415777E-07 -7.74725810E-04 -1.13089753E-05 -1.13099055E-05  9.02259989E-09
 -2.97897089E-07 -1.40314360E-11  9.92698127E-01  3.44566451E-02 -1.43124965E-03
  1.43736157E-08 -4.76201162E-07  5.19966204E-03  1.26329536E-04 -1.24775709E-09
  4.04735686E-08 -3.03540794E-03  2.02148759E-05 -9.39640502E-11  2.16129647E-08
 -7.69567247E-03 -8.42575636E-03 -8.42575646E-03 -8.56178792E-09  2.83037935E-07
 -8.42586358E-12  9.93035018E-01  4.94368332E-02 -4.89356616E-04  4.24845209E-09
 -2.01734046E-07 -1.62788363E-02  3.20155144E-04 -1.23668030E-08  1.06280738E-06
  6.08643049E-03 -3.10840140E-03 -1.66977656E-08  1.01321455E-06 -9.28468876E-03
 -8.71921350E-03 -8.71934634E-03 -5.03289731E-09  1.33286577E-07  3.08583167E-09
 -7.48904331E-06 -5.84829125E-05 -2.13459647E-05 -4.36685120E-10  7.14592456E-09
 -1.70259455E-04  2.21467612E-04  3.11666255E-09 -5.21798301E-08  2.57072624E-03
  1.50029671E-03 -9.40537660E-10 -1.79317250E-07 -5.00048834E-03 -1.76913430E-03
 -2.27632349E-09  5.79967929E-08  4.52466585E-05 -1.45503534E-04 -1.45519256E-04
 -3.20515099E-10 -3.84018074E-08 -5.52564389E-10 -1.63135754E-04  3.03829008E-03
 -9.29906512E-04  4.98885628E-05  3.00817483E-07 -1.29474851E-04 -1.63213933E-04
  3.03716088E-03 -9.30675138E-04  4.99205477E-05  1.11993763E-04  6.49488967E-05
 -1.63211221E-04  3.03714467E-03 -9.30647360E-04  4.99182531E-05 -1.12288275E-04
  6.44314339E-05 -1.29658433E-05 -1.24722445E-04  4.55860006E-05 -2.52843845E-09
  3.72410870E-08 -9.75393786E-04 -1.65166745E-03  2.30729689E-08 -5.57757985E-07
  1.64701503E-03  5.88458469E-04  2.34879549E-08 -4.27721300E-07  2.40709160E-05
 -3.88376920E-05 -3.88138890E-05  1.98475131E-10 -2.41482470E-08  5.05818568E-10
 -4.90655334E-05 -1.99285766E-04  1.60637722E-05 -4.59744900E-10  2.91142690E-08
  2.10601233E-03 -7.29618673E-04  7.59917432E-09 -3.21218682E-07 -7.32165924E-04
 -2.39170400E-04 -1.98309189E-08  4.30052616E-07 -5.40482783E-05 -1.10692801E-04
 -1.10695306E-04  3.97116224E-10  2.54057258E-09 -2.16233267E-11 -3.20022238E-05
 -1.49422050E-04 -9.19436560E-05 -5.24022428E-10  1.90086963E-08  4.77799236E-04
  7.28043241E-04  8.48307403E-09 -3.30928944E-07 -1.90746842E-03  7.81477542E-03
  1.07364754E-08 -4.91287344E-07  4.57940196E-05 -3.49501135E-05 -3.49515811E-05
  2.88517553E-10 -1.72330781E-08  1.92678197E-10  2.50259399E-07  8.61192005E-06
  7.37129969E-06  1.86107750E-10 -4.04429437E-09  2.01748681E-05 -4.82458225E-05
 -1.10395983E-09  2.34307300E-08 -2.49244612E-04  4.53938452E-04  4.22546420E-09
 -8.34666286E-08  8.48129870E-03  2.11063837E-03  1.33062662E-08 -3.60080124E-07
  5.91225400E-05 -7.25649964E-07 -7.20606165E-07  6.31915626E-10 -1.01807372E-08
  1.22668073E-10 -3.79850688E-05 -4.59950214E-04  1.48125808E-04 -2.54016487E-05
  4.32987780E-09 -2.17450679E-06 -3.80075688E-05 -4.59495397E-04  1.48060112E-04
 -2.52978388E-05  1.83317703E-06  1.08821877E-06 -3.80093949E-05 -4.59479915E-04
  1.48040006E-04 -2.52919393E-05 -1.83682800E-06  1.07817842E-06  9.92835010E-01
  4.94110556E-02  1.82731093E-03 -2.04378382E-08  6.84045613E-07 -1.06896766E-02
 -3.74760538E-04  9.88971414E-09 -3.71311303E-07 -1.08051439E-02  1.29595464E-03
  1.16047035E-09 -3.61341449E-07 -8.45773962E-03 -9.72616030E-03 -9.72616486E-03
 -1.45422138E-08  4.87074787E-07 -8.31274199E-11 -4.86339812E-04  8.99226988E-05
  4.22712944E-04 -3.94873257E-09  1.31390991E-07 -1.60534965E-03  7.56960354E-04
 -1.04652855E-08  3.42083318E-07  9.13824350E-03 -3.74720408E-03  3.85209356E-08
 -1.11021237E-06 -2.53590103E-04  1.93875065E-04  1.93875379E-04  5.59736951E-09
 -1.88449586E-07  6.62766829E-13 -7.58800951E-05  1.26439435E-04  2.51562905E-04
  3.72099250E-10 -1.40416995E-10  2.48053340E-03 -1.61406342E-03 -1.15225331E-08
  2.76246090E-08 -2.39869777E-02  3.66900250E-02  9.85402085E-08 -3.00553370E-06
 -5.86808630E-04 -8.37146603E-05 -8.37821267E-05 -2.40398459E-09  5.08074604E-08
 -1.69652729E-09 -2.84611476E-01  1.02275500E+00  3.90900148E-03  9.27206626E-09
 -3.85385487E-07  7.59419230E-02  5.08105718E-04  1.47050095E-09 -5.39920141E-08
 -2.58339434E-02 -1.63066322E-03 -3.58926731E-09  1.62879668E-07  5.62138980E-02
  1.61458626E-02  8.65286624E-08 -2.38322668E-06 -1.53195803E-02 -1.55598520E-02
 -1.55598555E-02  1.77436803E-09 -3.80110939E-08  8.45971662E-11 -5.18053212E-05
 -7.35578922E-04  6.12065484E-04 -5.62920889E-05  1.52044496E-09 -8.34330528E-07
 -5.18344472E-05 -7.35420738E-04  6.13047503E-04 -5.61224728E-05  7.19078434E-07
  4.42214092E-07 -5.18380325E-05 -7.35427131E-04  6.13087407E-04 -5.61119427E-05
 -7.22362174E-07  4.39141575E-07  1.85644736E-05  8.23766514E-05  4.09715918E-05
 -1.00254897E-09  6.23827693E-08 -2.43902230E-04  2.23024223E-04  1.65476172E-10
 -1.17137016E-07 -2.48256546E-02  1.20784499E-02 -5.09530027E-08  6.88865108E-07
  8.96004665E-05  1.74395907E-05  1.74349263E-05 -2.58247861E-13  3.43138019E-09
 -1.17629247E-10 -4.16815911E-06  2.48268601E-06 -1.68188771E-05 -5.45864683E-10
  2.64795089E-08 -1.71377964E-04  3.65340985E-04 -1.74755843E-09  2.68779964E-08
  8.54783763E-04 -2.91511873E-03  1.84611143E-08 -1.24736963E-07 -6.61619052E-05
 -6.10494679E-06 -6.10352956E-06  6.07568223E-10 -2.92507881E-08  2.41159074E-11
  8.49584260E-05  1.29543432E-03 -7.62451034E-05 -3.30269949E-10 -3.74489321E-08
 -3.32721729E-04  1.41528174E-03 -3.07123333E-08  8.57765459E-07  3.01544700E-02
 -6.14261380E-02 -1.01355474E-07  2.91232997E-06 -1.39137412E-03  2.68573879E-04
  2.68366074E-04 -6.42777285E-09  1.80072647E-07 -5.70858858E-09  1.15274925E-03
 -4.38668152E-03  9.90415441E-01  2.15775624E-06 -8.23393756E-05 -1.94883254E-04
  3.12250839E-02  7.27615167E-08 -2.70410295E-06  4.16294315E-03 -1.33015449E-02
 -3.46455819E-08  1.23803132E-06 -6.84676623E-02 -1.37908010E-02 -1.12952260E-07
  2.96646515E-06  4.07917638E-04 -3.59154152E-04 -3.59166756E-04  3.16217779E-09
 -1.01637359E-07 -2.68270525E-10 -2.37061047E-04  1.43197467E-03 -5.73657106E-03
 -3.03567704E-04  1.07799125E-07 -4.63272801E-05 -2.37465649E-04  1.43128877E-03
 -5.73709032E-03 -3.03312637E-04  4.01890659E-05  2.33087117E-05 -2.37487118E-04
  1.43125424E-03 -5.73712547E-03 -3.03297582E-04 -4.03019518E-05  2.31273357E-05
 -3.43819124E-05 -1.81555761E-04 -9.96393536E-05  9.46413068E-10 -7.96451064E-08
  3.28115559E-03  1.96924107E-03 -2.18796079E-08  9.22741922E-07  5.60721314E-02
 -2.18438203E-02  6.12974344E-08 -4.74119414E-07  7.46960150E-05 -6.09953477E-05
 -6.09930267E-05 -4.12775162E-09  1.28888147E-07  6.07828813E-11 -5.24967875E-06
  6.44741211E-06  3.46495863E-05  6.66648224E-10 -3.41810435E-08 -1.21805284E-03
  9.50911878E-04 -1.13032696E-08  4.15562126E-07 -9.78084302E-03  6.77814257E-03
 -5.24532046E-08  9.68509842E-07 -1.12706109E-04  7.54168401E-06  7.53726992E-06
  1.71441044E-09 -4.22672270E-08 -4.53156331E-11  2.34241685E-09  1.39600391E-08
  1.72223554E-09 -6.59720419E-05  6.81811527E-07 -7.23603259E-08 -8.55515452E-09
  3.14198078E-04 -3.25420484E-06  4.46082844E-08 -6.08118502E-07  3.27528267E-04
 -3.36803181E-06  1.44707242E-09  1.37268711E-06 -1.37162344E-06  9.59030053E-06
 -9.85553166E-08 -9.18863191E-05  5.47865959E-10 -3.46104718E-09 -3.01233012E-06
  9.90794734E-01 -1.02368878E-02 -2.18752267E-09 -8.32143332E-08  2.95847416E-02
 -3.05668774E-04  4.01137118E-08  2.70107672E-08 -1.16108152E-02  1.19961875E-04
 -5.87382898E-07 -1.68270341E-07  5.17323633E-03 -5.34485851E-05 -1.46990829E-09
 -8.19049792E-08  7.95105126E-08  2.51034036E-04 -2.59336065E-06  5.40393333E-06
 -8.97858236E-07  7.15799232E-06 -5.67826960E-05 -2.90773271E-06 -2.73885064E-05
  9.82240603E-07 -6.10856900E-05  4.83935582E-04 -3.86234021E-03 -1.97690287E-04
 -6.83943401E-05 -2.34521525E-05  6.19908390E-05 -4.90950966E-04  3.91907359E-03
  2.00589447E-04 -6.91006884E-05  2.41719455E-05 -1.09406607E-09 -4.53468285E-09
  4.16587410E-10  5.50349593E-05 -5.68460303E-07  1.26938228E-08 -2.01914801E-08
 -2.22871081E-04  2.30207162E-06  5.19670390E-07 -2.80622061E-07  1.03175157E-03
 -1.06598446E-05 -1.79774482E-09 -5.28409479E-08  4.93277825E-08 -1.63478583E-06
  1.68042559E-08  3.41979879E-06 -3.56907105E-10 -1.83115814E-09  7.57448149E-11
 -2.23706670E-05  2.31119812E-07  1.97790906E-08 -8.61939852E-09  1.35537177E-04
 -1.40013642E-06 -2.58703740E-08  7.92694243E-08 -3.79794244E-04  3.92383869E-06
 -1.19091520E-10 -3.72783551E-08  3.64611052E-08 -1.60008405E-05  1.65265138E-07
  2.46786629E-06 -3.01424892E-08 -1.82550369E-07 -1.48003023E-08 -6.81847895E-07
 -6.60121953E-05  8.64964266E-07  2.59060465E-08  3.23570153E-06  3.13940076E-04
 -3.41076419E-06  1.23035614E-05  3.38648061E-06  3.26220727E-04 -2.23175128E-08
 -7.96946427E-05  7.96886263E-05  9.98922011E-08  9.61682032E-06 -1.58898808E-06
 -1.98106382E-08  9.91435605E-08  8.23981982E-05  1.02368878E-02  9.90794739E-01
  4.22263043E-08  2.33233995E-06  3.05669731E-04  2.95847034E-02 -7.43323833E-07
 -7.47573559E-07 -1.19962672E-04 -1.16106935E-02  1.25199869E-05  3.73883482E-06
  5.34514876E-05  5.17327028E-03  4.59907429E-08  4.74559039E-06 -4.72013088E-06
  2.59412098E-06  2.51045215E-04  9.43284501E-08  7.09132532E-05 -5.63913188E-04
  4.49145659E-03  2.30052261E-04 -1.54081354E-07 -8.26537150E-05 -3.62950717E-05
  2.87318421E-04 -2.29366585E-03 -1.17455386E-04 -2.46437614E-05 -4.15338435E-05
 -3.47453547E-05  2.74978012E-04 -2.19532104E-03 -1.12417484E-04  2.30914228E-05
 -4.08220197E-05  1.82043778E-08  7.78382829E-08 -5.61380264E-09  5.68540243E-07