 Entering Gaussian System, Link 0=g16
 Initial command:
 /usr/local/g16_AVX//g16/l1.exe "/scratch/alanqf/0118-54560.ixchel.mda.cinvestav.mx/Gau-24822.inp" -scrdir="/scratch/alanqf/0118-54560.ixchel.mda.cinvestav.mx/"
 Entering Link 1 = /usr/local/g16_AVX//g16/l1.exe PID=     24823.
  
 Copyright (c) 1988-2017, Gaussian, Inc.  All Rights Reserved.
  
 This is part of the Gaussian(R) 16 program.  It is based on
 the Gaussian(R) 09 system (copyright 2009, Gaussian, Inc.),
 the Gaussian(R) 03 system (copyright 2003, Gaussian, Inc.),
 the Gaussian(R) 98 system (copyright 1998, Gaussian, Inc.),
 the Gaussian(R) 94 system (copyright 1995, Gaussian, Inc.),
 the Gaussian 92(TM) system (copyright 1992, Gaussian, Inc.),
 the Gaussian 90(TM) system (copyright 1990, Gaussian, Inc.),
 the Gaussian 88(TM) system (copyright 1988, Gaussian, Inc.),
 the Gaussian 86(TM) system (copyright 1986, Carnegie Mellon
 University), and the Gaussian 82(TM) system (copyright 1983,
 Carnegie Mellon University). Gaussian is a federally registered
 trademark of Gaussian, Inc.
  
 This software contains proprietary and confidential information,
 including trade secrets, belonging to Gaussian, Inc.
  
 This software is provided under written license and may be
 used, copied, transmitted, or stored only in accord with that
 written license.
  
 The following legend is applicable only to US Government
 contracts under FAR:
  
                    RESTRICTED RIGHTS LEGEND
  
 Use, reproduction and disclosure by the US Government is
 subject to restrictions as set forth in subparagraphs (a)
 and (c) of the Commercial Computer Software - Restricted
 Rights clause in FAR 52.227-19.
  
 Gaussian, Inc.
 340 Quinnipiac St., Bldg. 40, Wallingford CT 06492
  
  
 ---------------------------------------------------------------
 Warning -- This program may not be used in any manner that
 competes with the business of Gaussian, Inc. or will provide
 assistance to any competitor of Gaussian, Inc.  The licensee
 of this program is prohibited from giving any competitor of
 Gaussian, Inc. access to this program.  By using this program,
 the user acknowledges that Gaussian, Inc. is engaged in the
 business of creating and licensing software in the field of
 computational chemistry and represents and warrants to the
 licensee that it is not a competitor of Gaussian, Inc. and that
 it will not use this program in any manner prohibited above.
 ---------------------------------------------------------------
  

 Cite this work as:
 Gaussian 16, Revision B.01,
 M. J. Frisch, G. W. Trucks, H. B. Schlegel, G. E. Scuseria, 
 M. A. Robb, J. R. Cheeseman, G. Scalmani, V. Barone, 
 G. A. Petersson, H. Nakatsuji, X. Li, M. Caricato, A. V. Marenich, 
 J. Bloino, B. G. Janesko, R. Gomperts, B. Mennucci, H. P. Hratchian, 
 J. V. Ortiz, A. F. Izmaylov, J. L. Sonnenberg, D. Williams-Young, 
 F. Ding, F. Lipparini, F. Egidi, J. Goings, B. Peng, A. Petrone, 
 T. Henderson, D. Ranasinghe, V. G. Zakrzewski, J. Gao, N. Rega, 
 G. Zheng, W. Liang, M. Hada, M. Ehara, K. Toyota, R. Fukuda, 
 J. Hasegawa, M. Ishida, T. Nakajima, Y. Honda, O. Kitao, H. Nakai, 
 T. Vreven, K. Throssell, J. A. Montgomery, Jr., J. E. Peralta, 
 F. Ogliaro, M. J. Bearpark, J. J. Heyd, E. N. Brothers, K. N. Kudin, 
 V. N. Staroverov, T. A. Keith, R. Kobayashi, J. Normand, 
 K. Raghavachari, A. P. Rendell, J. C. Burant, S. S. Iyengar, 
 J. Tomasi, M. Cossi, J. M. Millam, M. Klene, C. Adamo, R. Cammi, 
 J. W. Ochterski, R. L. Martin, K. Morokuma, O. Farkas, 
 J. B. Foresman, and D. J. Fox, Gaussian, Inc., Wallingford CT, 2016.
 
 ******************************************
 Gaussian 16:  ES64L-G16RevB.01 20-Dec-2017
                13-Oct-2024 
 ******************************************
 %NProcShared=26
 Will use up to   26 processors via shared memory.
 %MEM=20GB
 %chk=CHKfiles/0118.chk
 ---------------------------------------------------------------------
 #p b3lyp 6-31++g(d,p) scf=verytight NoSymm freq=noraman int=ultrafine
 ---------------------------------------------------------------------
 1/10=4,30=1,38=1/1,3;
 2/12=2,15=1,17=6,18=5,40=1/2;
 3/5=1,6=6,7=1111,11=2,25=1,30=1,71=2,74=-5,75=-5,140=1/1,2,3;
 4//1;
 5/5=2,17=3,38=5,98=1/2;
 8/6=4,10=90,11=11/1;
 11/6=1,8=1,9=11,15=111,16=1,31=1/1,2,10;
 10/6=1,31=1/2;
 6/7=2,8=2,9=2,10=2,28=1/1;
 7/8=1,10=1,25=1,30=1/1,2,3,16;
 1/10=4,30=1/3;
 99//99;
 Leave Link    1 at Sun Oct 13 09:51:16 2024, MaxMem=  2684354560 cpu:               1.2 elap:               0.1
 (Enter /usr/local/g16_AVX//g16/l101.exe)
 ------------------------
 RxCoord=1.69960 DE=49.91
 ------------------------
 Symbolic Z-matrix:
 Charge = -1 Multiplicity = 1
 C                    -0.22072   0.00001  -0.00018 
 Cl                   -2.16358  0.         0.00005 
 H                     0.05297   0.00242  -1.04624 
 H                     0.0534    0.90473   0.52473 
 H                     0.05342  -0.90713   0.52055 
 C                     2.37082   0.       -0.00016 
 N                     3.54891  -0.00001   0.00024 
 
 ITRead=  0  0  0  0  0  0  0
 MicOpt= -1 -1 -1 -1 -1 -1 -1
 NAtoms=      7 NQM=        7 NQMF=       0 NMMI=      0 NMMIF=      0
                NMic=       0 NMicF=      0.
                    Isotopes and Nuclear Properties:
 (Nuclear quadrupole moments (NQMom) in fm**2, nuclear magnetic moments (NMagM)
  in nuclear magnetons)

  Atom         1           2           3           4           5           6           7
 IAtWgt=          12          35           1           1           1          12          14
 AtmWgt=  12.0000000  34.9688527   1.0078250   1.0078250   1.0078250  12.0000000  14.0030740
 NucSpn=           0           3           1           1           1           0           2
 AtZEff=  -0.0000000  -0.0000000  -0.0000000  -0.0000000  -0.0000000  -0.0000000  -0.0000000
 NQMom=    0.0000000  -8.1650000   0.0000000   0.0000000   0.0000000   0.0000000   2.0440000
 NMagM=    0.0000000   0.8218740   2.7928460   2.7928460   2.7928460   0.0000000   0.4037610
 AtZNuc=   6.0000000  17.0000000   1.0000000   1.0000000   1.0000000   6.0000000   7.0000000
 Leave Link  101 at Sun Oct 13 09:51:16 2024, MaxMem=  2684354560 cpu:               2.9 elap:               0.1
 (Enter /usr/local/g16_AVX//g16/l103.exe)

 GradGradGradGradGradGradGradGradGradGradGradGradGradGradGradGradGradGrad
 Berny optimization.
 Initialization pass.
 Trust Radius=3.00D-01 FncErr=1.00D-07 GrdErr=1.00D-07 EigMax=2.50D+02 EigMin=1.00D-04
 Number of steps in this run=      2 maximum allowed number of steps=      2.
 GradGradGradGradGradGradGradGradGradGradGradGradGradGradGradGradGradGrad

 Leave Link  103 at Sun Oct 13 09:51:16 2024, MaxMem=  2684354560 cpu:               0.5 elap:               0.0
 (Enter /usr/local/g16_AVX//g16/l202.exe)
                          Input orientation:                          
 ---------------------------------------------------------------------
 Center     Atomic      Atomic             Coordinates (Angstroms)
 Number     Number       Type             X           Y           Z
 ---------------------------------------------------------------------
      1          6           0       -0.220718    0.000007   -0.000180
      2         17           0       -2.163580   -0.000001    0.000047
      3          1           0        0.052971    0.002422   -1.046241
      4          1           0        0.053398    0.904732    0.524732
      5          1           0        0.053420   -0.907126    0.520550
      6          6           0        2.370818    0.000004   -0.000156
      7          7           0        3.548911   -0.000008    0.000241
 ---------------------------------------------------------------------
                    Distance matrix (angstroms):
                    1          2          3          4          5
     1  C    0.000000
     2  Cl   1.942862   0.000000
     3  H    1.081275   2.451086   0.000000
     4  H    1.081295   2.451291   1.811662   0.000000
     5  H    1.081296   2.451303   1.811660   1.811863   0.000000
     6  C    2.591536   4.534398   2.542974   2.542533   2.542509
     7  N    3.769629   5.712491   3.649209   3.648596   3.648567
                    6          7
     6  C    0.000000
     7  N    1.178093   0.000000
 Symmetry turned off by external request.
 Stoichiometry    C2H3ClN(1-)
 Framework group  C1[X(C2H3ClN)]
 Deg. of freedom    15
 Full point group                 C1      NOp   1
 Rotational constants (GHZ):         152.7726787           1.2333726           1.2333711
 Leave Link  202 at Sun Oct 13 09:51:16 2024, MaxMem=  2684354560 cpu:               0.2 elap:               0.0
 (Enter /usr/local/g16_AVX//g16/l301.exe)
 Standard basis: 6-31++G(d,p) (6D, 7F)
 Ernie: Thresh=  0.10000D-02 Tol=  0.10000D-05 Strict=F.
    98 basis functions,   176 primitive gaussians,    98 cartesian basis functions
    20 alpha electrons       20 beta electrons
       nuclear repulsion energy       110.3086317299 Hartrees.
 IExCor=  402 DFT=T Ex+Corr=B3LYP ExCW=0 ScaHFX=  0.200000
 ScaDFX=  0.800000  0.720000  1.000000  0.810000 ScalE2=  1.000000  1.000000
 IRadAn=      5 IRanWt=     -1 IRanGd=            0 ICorTp=0 IEmpDi=  4
 NAtoms=    7 NActive=    7 NUniq=    7 SFac= 1.00D+00 NAtFMM=   60 NAOKFM=F Big=F
 Integral buffers will be    131072 words long.
 Raffenetti 2 integral format.
 Two-electron integral symmetry is turned off.
 Leave Link  301 at Sun Oct 13 09:51:16 2024, MaxMem=  2684354560 cpu:               1.3 elap:               0.1
 (Enter /usr/local/g16_AVX//g16/l302.exe)
 NPDir=0 NMtPBC=     1 NCelOv=     1 NCel=       1 NClECP=     1 NCelD=      1
         NCelK=      1 NCelE2=     1 NClLst=     1 CellRange=     0.0.
 One-electron integrals computed using PRISM.
 NBasis=    98 RedAO= T EigKep=  1.27D-04  NBF=    98
 NBsUse=    98 1.00D-06 EigRej= -1.00D+00 NBFU=    98
 Precomputing XC quadrature grid using
 IXCGrd= 4 IRadAn=           5 IRanWt=          -1 IRanGd=           0 AccXCQ= 0.00D+00.
 Generated NRdTot=       0 NPtTot=           0 NUsed=           0 NTot=          32
 NSgBfM=    98    98    98    98    98 MxSgAt=     7 MxSgA2=     7.
 Leave Link  302 at Sun Oct 13 09:51:17 2024, MaxMem=  2684354560 cpu:               3.9 elap:               0.2
 (Enter /usr/local/g16_AVX//g16/l303.exe)
 DipDrv:  MaxL=1.
 Leave Link  303 at Sun Oct 13 09:51:17 2024, MaxMem=  2684354560 cpu:               0.7 elap:               0.1
 (Enter /usr/local/g16_AVX//g16/l401.exe)
 ExpMin= 3.60D-02 ExpMax= 2.52D+04 ExpMxC= 3.78D+03 IAcc=3 IRadAn=         5 AccDes= 0.00D+00
 Harris functional with IExCor=  402 and IRadAn=       5 diagonalized for initial guess.
 HarFok:  IExCor=  402 AccDes= 0.00D+00 IRadAn=         5 IDoV= 1 UseB2=F ITyADJ=14
 ICtDFT=  3500011 ScaDFX=  1.000000  1.000000  1.000000  1.000000
 FoFCou: FMM=F IPFlag=           0 FMFlag=      100000 FMFlg1=           0
         NFxFlg=           0 DoJE=T BraDBF=F KetDBF=T FulRan=T
         wScrn=  0.000000 ICntrl=       500 IOpCl=  0 I1Cent=   200000004 NGrid=           0
         NMat0=    1 NMatS0=      1 NMatT0=    0 NMatD0=    1 NMtDS0=    0 NMtDT0=    0
 Symmetry not used in FoFCou.
 Harris En= -593.068504160089    
 JPrj=0 DoOrth=F DoCkMO=F.
 Leave Link  401 at Sun Oct 13 09:51:17 2024, MaxMem=  2684354560 cpu:               5.8 elap:               0.3
 (Enter /usr/local/g16_AVX//g16/l502.exe)
 Keep R1 ints in memory in canonical form, NReq=35752935.
 FoFCou: FMM=F IPFlag=           0 FMFlag=           0 FMFlg1=           0
         NFxFlg=           0 DoJE=F BraDBF=F KetDBF=F FulRan=T
         wScrn=  0.000000 ICntrl=       600 IOpCl=  0 I1Cent=           0 NGrid=           0
         NMat0=    1 NMatS0=   4851 NMatT0=    0 NMatD0=    1 NMtDS0=    0 NMtDT0=    0
 Symmetry not used in FoFCou.
 Two-electron integral symmetry not used.
 Closed shell SCF:
 Using DIIS extrapolation, IDIIS=  1040.
 NGot=  2684354560 LenX=  2672563405 LenY=  2672553360
 Requested convergence on RMS density matrix=1.00D-08 within 128 cycles.
 Requested convergence on MAX density matrix=1.00D-06.
 Requested convergence on             energy=1.00D-06.
 No special actions if energy rises.

 Cycle   1  Pass 1  IDiag  1:
 E= -592.836903294502    
 DIIS: error= 3.45D-02 at cycle   1 NSaved=   1.
 NSaved= 1 IEnMin= 1 EnMin= -592.836903294502     IErMin= 1 ErrMin= 3.45D-02
 ErrMax= 3.45D-02  0.00D+00 EMaxC= 1.00D-01 BMatC= 1.31D-01 BMatP= 1.31D-01
 IDIUse=3 WtCom= 6.55D-01 WtEn= 3.45D-01
 Coeff-Com:  0.100D+01
 Coeff-En:   0.100D+01
 Coeff:      0.100D+01
 Gap=     0.393 Goal=   None    Shift=    0.000
 GapD=    0.393 DampG=1.000 DampE=0.500 DampFc=0.5000 IDamp=-1.
 Damping current iteration by 5.00D-01
 RMSDP=8.17D-02 MaxDP=2.84D+00              OVMax= 3.90D-01

 Cycle   2  Pass 1  IDiag  1:
 E= -592.871779411275     Delta-E=       -0.034876116773 Rises=F Damp=T
 DIIS: error= 1.11D-02 at cycle   2 NSaved=   2.
 NSaved= 2 IEnMin= 2 EnMin= -592.871779411275     IErMin= 2 ErrMin= 1.11D-02
 ErrMax= 1.11D-02  0.00D+00 EMaxC= 1.00D-01 BMatC= 1.71D-02 BMatP= 1.31D-01
 IDIUse=3 WtCom= 8.89D-01 WtEn= 1.11D-01
 Coeff-Com:  0.199D+00 0.801D+00
 Coeff-En:   0.377D+00 0.623D+00
 Coeff:      0.219D+00 0.781D+00
 Gap=     0.198 Goal=   None    Shift=    0.000
 RMSDP=3.99D-02 MaxDP=1.43D+00 DE=-3.49D-02 OVMax= 2.87D-01

 Cycle   3  Pass 1  IDiag  1:
 E= -592.979100300249     Delta-E=       -0.107320888974 Rises=F Damp=F
 DIIS: error= 1.61D-02 at cycle   3 NSaved=   3.
 NSaved= 3 IEnMin= 3 EnMin= -592.979100300249     IErMin= 2 ErrMin= 1.11D-02
 ErrMax= 1.61D-02  0.00D+00 EMaxC= 1.00D-01 BMatC= 1.30D-02 BMatP= 1.71D-02
 IDIUse=3 WtCom= 8.39D-01 WtEn= 1.61D-01
 Coeff-Com:  0.618D-01 0.468D+00 0.470D+00
 Coeff-En:   0.000D+00 0.000D+00 0.100D+01
 Coeff:      0.518D-01 0.393D+00 0.555D+00
 Gap=     0.200 Goal=   None    Shift=    0.000
 RMSDP=1.90D-03 MaxDP=3.73D-02 DE=-1.07D-01 OVMax= 6.54D-02

 Cycle   4  Pass 1  IDiag  1:
 E= -592.983635134876     Delta-E=       -0.004534834627 Rises=F Damp=F
 DIIS: error= 1.38D-02 at cycle   4 NSaved=   4.
 NSaved= 4 IEnMin= 4 EnMin= -592.983635134876     IErMin= 2 ErrMin= 1.11D-02
 ErrMax= 1.38D-02  0.00D+00 EMaxC= 1.00D-01 BMatC= 8.47D-03 BMatP= 1.30D-02
 IDIUse=3 WtCom= 8.62D-01 WtEn= 1.38D-01
 Coeff-Com: -0.127D-01 0.990D-01 0.440D+00 0.474D+00
 Coeff-En:   0.000D+00 0.000D+00 0.413D+00 0.587D+00
 Coeff:     -0.109D-01 0.853D-01 0.436D+00 0.489D+00
 Gap=     0.187 Goal=   None    Shift=    0.000
 RMSDP=1.18D-03 MaxDP=1.73D-02 DE=-4.53D-03 OVMax= 3.34D-02

 Cycle   5  Pass 1  IDiag  1:
 E= -592.991061573324     Delta-E=       -0.007426438448 Rises=F Damp=F
 DIIS: error= 2.44D-03 at cycle   5 NSaved=   5.
 NSaved= 5 IEnMin= 5 EnMin= -592.991061573324     IErMin= 5 ErrMin= 2.44D-03
 ErrMax= 2.44D-03  0.00D+00 EMaxC= 1.00D-01 BMatC= 3.87D-04 BMatP= 8.47D-03
 IDIUse=3 WtCom= 9.76D-01 WtEn= 2.44D-02
 Coeff-Com: -0.103D-01 0.270D-01 0.203D+00 0.278D+00 0.502D+00
 Coeff-En:   0.000D+00 0.000D+00 0.000D+00 0.000D+00 0.100D+01
 Coeff:     -0.101D-01 0.263D-01 0.198D+00 0.271D+00 0.514D+00
 Gap=     0.191 Goal=   None    Shift=    0.000
 RMSDP=4.68D-04 MaxDP=7.19D-03 DE=-7.43D-03 OVMax= 9.97D-03

 Cycle   6  Pass 1  IDiag  1:
 E= -592.991479770933     Delta-E=       -0.000418197608 Rises=F Damp=F
 DIIS: error= 3.94D-04 at cycle   6 NSaved=   6.
 NSaved= 6 IEnMin= 6 EnMin= -592.991479770933     IErMin= 6 ErrMin= 3.94D-04
 ErrMax= 3.94D-04  0.00D+00 EMaxC= 1.00D-01 BMatC= 1.48D-05 BMatP= 3.87D-04
 IDIUse=3 WtCom= 9.96D-01 WtEn= 3.94D-03
 Coeff-Com: -0.335D-02 0.117D-02 0.559D-01 0.832D-01 0.236D+00 0.627D+00
 Coeff-En:   0.000D+00 0.000D+00 0.000D+00 0.000D+00 0.000D+00 0.100D+01
 Coeff:     -0.334D-02 0.116D-02 0.557D-01 0.828D-01 0.235D+00 0.628D+00
 Gap=     0.190 Goal=   None    Shift=    0.000
 RMSDP=7.88D-05 MaxDP=1.69D-03 DE=-4.18D-04 OVMax= 1.37D-03

 Cycle   7  Pass 1  IDiag  1:
 E= -592.991494878067     Delta-E=       -0.000015107134 Rises=F Damp=F
 DIIS: error= 6.26D-05 at cycle   7 NSaved=   7.
 NSaved= 7 IEnMin= 7 EnMin= -592.991494878067     IErMin= 7 ErrMin= 6.26D-05
 ErrMax= 6.26D-05  0.00D+00 EMaxC= 1.00D-01 BMatC= 4.44D-07 BMatP= 1.48D-05
 IDIUse=1 WtCom= 1.00D+00 WtEn= 0.00D+00
 Coeff-Com: -0.117D-03-0.105D-02 0.405D-02 0.586D-02 0.372D-01 0.206D+00
 Coeff-Com:  0.748D+00
 Coeff:     -0.117D-03-0.105D-02 0.405D-02 0.586D-02 0.372D-01 0.206D+00
 Coeff:      0.748D+00
 Gap=     0.190 Goal=   None    Shift=    0.000
 RMSDP=2.47D-05 MaxDP=4.25D-04 DE=-1.51D-05 OVMax= 4.15D-04

 Cycle   8  Pass 1  IDiag  1:
 E= -592.991495381535     Delta-E=       -0.000000503468 Rises=F Damp=F
 DIIS: error= 1.88D-05 at cycle   8 NSaved=   8.
 NSaved= 8 IEnMin= 8 EnMin= -592.991495381535     IErMin= 8 ErrMin= 1.88D-05
 ErrMax= 1.88D-05  0.00D+00 EMaxC= 1.00D-01 BMatC= 4.96D-08 BMatP= 4.44D-07
 IDIUse=1 WtCom= 1.00D+00 WtEn= 0.00D+00
 Coeff-Com:  0.232D-03-0.732D-03-0.166D-02-0.232D-02 0.280D-02 0.518D-01
 Coeff-Com:  0.321D+00 0.629D+00
 Coeff:      0.232D-03-0.732D-03-0.166D-02-0.232D-02 0.280D-02 0.518D-01
 Coeff:      0.321D+00 0.629D+00
 Gap=     0.190 Goal=   None    Shift=    0.000
 RMSDP=4.23D-06 MaxDP=1.10D-04 DE=-5.03D-07 OVMax= 8.17D-05

 Cycle   9  Pass 1  IDiag  1:
 E= -592.991495437952     Delta-E=       -0.000000056417 Rises=F Damp=F
 DIIS: error= 3.09D-06 at cycle   9 NSaved=   9.
 NSaved= 9 IEnMin= 9 EnMin= -592.991495437952     IErMin= 9 ErrMin= 3.09D-06
 ErrMax= 3.09D-06  0.00D+00 EMaxC= 1.00D-01 BMatC= 1.32D-09 BMatP= 4.96D-08
 IDIUse=1 WtCom= 1.00D+00 WtEn= 0.00D+00
 Coeff-Com:  0.747D-04-0.134D-03-0.524D-03-0.674D-03-0.915D-03 0.198D-02
 Coeff-Com:  0.392D-01 0.185D+00 0.776D+00
 Coeff:      0.747D-04-0.134D-03-0.524D-03-0.674D-03-0.915D-03 0.198D-02
 Coeff:      0.392D-01 0.185D+00 0.776D+00
 Gap=     0.190 Goal=   None    Shift=    0.000
 RMSDP=1.38D-06 MaxDP=3.08D-05 DE=-5.64D-08 OVMax= 1.01D-05

 Cycle  10  Pass 1  IDiag  1:
 E= -592.991495439459     Delta-E=       -0.000000001507 Rises=F Damp=F
 DIIS: error= 4.40D-07 at cycle  10 NSaved=  10.
 NSaved=10 IEnMin=10 EnMin= -592.991495439459     IErMin=10 ErrMin= 4.40D-07
 ErrMax= 4.40D-07  0.00D+00 EMaxC= 1.00D-01 BMatC= 1.41D-11 BMatP= 1.32D-09
 IDIUse=1 WtCom= 1.00D+00 WtEn= 0.00D+00
 Coeff-Com:  0.400D-05 0.125D-05-0.305D-04-0.302D-04-0.171D-03-0.905D-03
 Coeff-Com: -0.489D-02 0.123D-01 0.978D-01 0.896D+00
 Coeff:      0.400D-05 0.125D-05-0.305D-04-0.302D-04-0.171D-03-0.905D-03
 Coeff:     -0.489D-02 0.123D-01 0.978D-01 0.896D+00
 Gap=     0.190 Goal=   None    Shift=    0.000
 RMSDP=1.19D-07 MaxDP=2.98D-06 DE=-1.51D-09 OVMax= 2.24D-06

 Cycle  11  Pass 1  IDiag  1:
 E= -592.991495439477     Delta-E=       -0.000000000018 Rises=F Damp=F
 DIIS: error= 7.88D-08 at cycle  11 NSaved=  11.
 NSaved=11 IEnMin=11 EnMin= -592.991495439477     IErMin=11 ErrMin= 7.88D-08
 ErrMax= 7.88D-08  0.00D+00 EMaxC= 1.00D-01 BMatC= 3.86D-13 BMatP= 1.41D-11
 IDIUse=1 WtCom= 1.00D+00 WtEn= 0.00D+00
 Coeff-Com: -0.796D-06 0.184D-05-0.179D-05 0.264D-06-0.199D-04-0.851D-04
 Coeff-Com: -0.742D-03-0.506D-03 0.382D-02 0.106D+00 0.892D+00
 Coeff:     -0.796D-06 0.184D-05-0.179D-05 0.264D-06-0.199D-04-0.851D-04
 Coeff:     -0.742D-03-0.506D-03 0.382D-02 0.106D+00 0.892D+00
 Gap=     0.190 Goal=   None    Shift=    0.000
 RMSDP=1.29D-08 MaxDP=1.95D-07 DE=-1.80D-11 OVMax= 2.05D-07

 Cycle  12  Pass 1  IDiag  1:
 E= -592.991495439476     Delta-E=        0.000000000000 Rises=F Damp=F
 DIIS: error= 8.71D-09 at cycle  12 NSaved=  12.
 NSaved=12 IEnMin=11 EnMin= -592.991495439477     IErMin=12 ErrMin= 8.71D-09
 ErrMax= 8.71D-09  0.00D+00 EMaxC= 1.00D-01 BMatC= 8.00D-15 BMatP= 3.86D-13
 IDIUse=1 WtCom= 1.00D+00 WtEn= 0.00D+00
 Coeff-Com: -0.258D-06 0.321D-06-0.489D-06-0.419D-06-0.141D-05-0.374D-06
 Coeff-Com:  0.196D-05-0.368D-03-0.110D-02 0.141D-02 0.159D+00 0.841D+00
 Coeff:     -0.258D-06 0.321D-06-0.489D-06-0.419D-06-0.141D-05-0.374D-06
 Coeff:      0.196D-05-0.368D-03-0.110D-02 0.141D-02 0.159D+00 0.841D+00
 Gap=     0.190 Goal=   None    Shift=    0.000
 RMSDP=4.40D-09 MaxDP=7.74D-08 DE= 2.27D-13 OVMax= 5.69D-08

 SCF Done:  E(RB3LYP) =  -592.991495439     A.U. after   12 cycles
            NFock= 12  Conv=0.44D-08     -V/T= 2.0046
 KE= 5.902939360242D+02 PE=-1.630529321479D+03 EE= 3.369352582855D+02
 Leave Link  502 at Sun Oct 13 09:51:19 2024, MaxMem=  2684354560 cpu:              35.1 elap:               1.6
 (Enter /usr/local/g16_AVX//g16/l801.exe)
 DoSCS=F DFT=T ScalE2(SS,OS)=  1.000000  1.000000
 Range of M.O.s used for correlation:     1    98
 NBasis=    98 NAE=    20 NBE=    20 NFC=     0 NFV=     0
 NROrb=     98 NOA=    20 NOB=    20 NVA=    78 NVB=    78

 **** Warning!!: The largest alpha MO coefficient is  0.32004698D+02

 Leave Link  801 at Sun Oct 13 09:51:19 2024, MaxMem=  2684354560 cpu:               0.7 elap:               0.1
 (Enter /usr/local/g16_AVX//g16/l1101.exe)
 Using compressed storage, NAtomX=     7.
 Will process      8 centers per pass.
 Leave Link 1101 at Sun Oct 13 09:51:19 2024, MaxMem=  2684354560 cpu:               3.5 elap:               0.2
 (Enter /usr/local/g16_AVX//g16/l1102.exe)
 Symmetrizing basis deriv contribution to polar:
 IMax=3 JMax=2 DiffMx= 0.00D+00
 Leave Link 1102 at Sun Oct 13 09:51:19 2024, MaxMem=  2684354560 cpu:               0.7 elap:               0.1
 (Enter /usr/local/g16_AVX//g16/l1110.exe)
 Forming Gx(P) for the SCF density, NAtomX=     7.
 Integral derivatives from FoFJK, PRISM(SPDF).
 Do as many integral derivatives as possible in FoFJK.
 G2DrvN: MDV=    2684353864.
 G2DrvN: will do     8 centers at a time, making    1 passes.
 Calling FoFCou, ICntrl=  3107 FMM=F I1Cent=   0 AccDes= 0.00D+00.
 FoFJK:  IHMeth= 1 ICntrl=    3107 DoSepK=F KAlg= 0 I1Cent=           0 FoldK=F
 IRaf=         0 NMat=       1 IRICut=       1 DoRegI=T DoRafI=F ISym2E= 0 IDoP0=0 IntGTp=1.
 FoFCou: FMM=F IPFlag=           0 FMFlag=      100000 FMFlg1=           0
         NFxFlg=           0 DoJE=F BraDBF=F KetDBF=F FulRan=T
         wScrn=  0.000000 ICntrl=      3107 IOpCl=  0 I1Cent=           0 NGrid=           0
         NMat0=    1 NMatS0=      1 NMatT0=    0 NMatD0=    1 NMtDS0=    0 NMtDT0=    0
 Symmetry not used in FoFCou.
 End of G2Drv F.D. properties file   721 does not exist.
 End of G2Drv F.D. properties file   722 does not exist.
 End of G2Drv F.D. properties file   788 does not exist.
 Leave Link 1110 at Sun Oct 13 09:51:21 2024, MaxMem=  2684354560 cpu:              38.0 elap:               1.5
 (Enter /usr/local/g16_AVX//g16/l1002.exe)
 Minotr:  Closed shell wavefunction.
          IDoAtm=1111111
          Direct CPHF calculation.
          Differentiating once with respect to electric field.
                with respect to dipole field.
          Differentiating once with respect to nuclear coordinates.
          Requested convergence is 1.0D-08 RMS, and 1.0D-07 maximum.
          Secondary convergence is 1.0D-12 RMS, and 1.0D-12 maximum.
          NewPWx=T KeepS1=F KeepF1=F KeepIn=T MapXYZ=F SortEE=F KeepMc=T.
         2136 words used for storage of precomputed grid.
 Keep R1 ints in memory in canonical form, NReq=35668397.
 FoFCou: FMM=F IPFlag=           0 FMFlag=           0 FMFlg1=           0
         NFxFlg=           0 DoJE=F BraDBF=F KetDBF=F FulRan=T
         wScrn=  0.000000 ICntrl=       600 IOpCl=  0 I1Cent=           0 NGrid=           0
         NMat0=    1 NMatS0=   4851 NMatT0=    0 NMatD0=    1 NMtDS0=    0 NMtDT0=    0
 Symmetry not used in FoFCou.
 Two-electron integral symmetry not used.
          MDV=    2684354560 using IRadAn=       1.
          Solving linear equations simultaneously, MaxMat=       0.
          There are    24 degrees of freedom in the 1st order CPHF.  IDoFFX=6 NUNeed=     3.
     21 vectors produced by pass  0 Test12= 6.50D-15 4.17D-09 XBig12= 1.07D+02 5.98D+00.
 AX will form    21 AO Fock derivatives at one time.
     21 vectors produced by pass  1 Test12= 6.50D-15 4.17D-09 XBig12= 4.28D+01 1.79D+00.
     21 vectors produced by pass  2 Test12= 6.50D-15 4.17D-09 XBig12= 8.05D-01 2.27D-01.
     21 vectors produced by pass  3 Test12= 6.50D-15 4.17D-09 XBig12= 1.18D-02 2.36D-02.
     21 vectors produced by pass  4 Test12= 6.50D-15 4.17D-09 XBig12= 4.49D-05 1.53D-03.
     17 vectors produced by pass  5 Test12= 6.50D-15 4.17D-09 XBig12= 1.13D-07 7.07D-05.
      6 vectors produced by pass  6 Test12= 6.50D-15 4.17D-09 XBig12= 1.06D-10 2.42D-06.
      1 vectors produced by pass  7 Test12= 6.50D-15 4.17D-09 XBig12= 7.27D-14 4.75D-08.
 InvSVY:  IOpt=1 It=  1 EMax= 5.33D-15
 Solved reduced A of dimension   129 with    24 vectors.
 FullF1:  Do perturbations      1 to       3.
 Isotropic polarizability for W=    0.000000       60.67 Bohr**3.
 End of Minotr F.D. properties file   721 does not exist.
 End of Minotr F.D. properties file   722 does not exist.
 End of Minotr F.D. properties file   788 does not exist.
 Leave Link 1002 at Sun Oct 13 09:51:23 2024, MaxMem=  2684354560 cpu:              53.6 elap:               2.1
 (Enter /usr/local/g16_AVX//g16/l601.exe)
 Copying SCF densities to generalized density rwf, IOpCl= 0 IROHF=0.

 **********************************************************************

            Population analysis using the SCF Density.

 **********************************************************************

 Alpha  occ. eigenvalues -- -101.38886 -14.10450 -10.10094  -9.96963  -9.30445
 Alpha  occ. eigenvalues --   -7.06691  -7.05948  -7.05948  -0.68170  -0.65869
 Alpha  occ. eigenvalues --   -0.53763  -0.30101  -0.30099  -0.25124  -0.18896
 Alpha  occ. eigenvalues --   -0.16230  -0.16229  -0.10715  -0.10715  -0.07774
 Alpha virt. eigenvalues --    0.11236   0.12909   0.14793   0.14793   0.16675
 Alpha virt. eigenvalues --    0.19685   0.20619   0.20619   0.22173   0.22175
 Alpha virt. eigenvalues --    0.24671   0.25057   0.25057   0.26833   0.26910
 Alpha virt. eigenvalues --    0.26911   0.31376   0.34190   0.34193   0.36944
 Alpha virt. eigenvalues --    0.38293   0.38337   0.38337   0.46603   0.47841
 Alpha virt. eigenvalues --    0.69502   0.75014   0.75461   0.75461   0.78559
 Alpha virt. eigenvalues --    0.78561   0.88494   0.88998   0.88999   0.98957
 Alpha virt. eigenvalues --    1.01564   1.01566   1.05354   1.06413   1.06415
 Alpha virt. eigenvalues --    1.09663   1.09668   1.12224   1.18572   1.18572
 Alpha virt. eigenvalues --    1.25814   1.31661   1.35723   1.49658   1.60080
 Alpha virt. eigenvalues --    1.60085   1.77128   1.77128   1.79476   1.79476
 Alpha virt. eigenvalues --    1.81582   2.14964   2.19246   2.19248   2.20017
 Alpha virt. eigenvalues --    2.20028   2.22650   2.53364   2.53376   2.63451
 Alpha virt. eigenvalues --    2.82593   2.82594   2.84224   2.96075   2.96091
 Alpha virt. eigenvalues --    3.26251   3.41226   3.56345   3.56357   4.21245
 Alpha virt. eigenvalues --    4.45115   4.46655   4.55972
          Condensed to atoms (all electrons):
               1          2          3          4          5          6
     1  C    5.490332  -0.162121   0.426567   0.426578   0.426579  -0.216657
     2  Cl  -0.162121  17.510655  -0.050876  -0.050825  -0.050822   0.105176
     3  H    0.426567  -0.050876   0.503159  -0.022485  -0.022486  -0.044031
     4  H    0.426578  -0.050825  -0.022485   0.503097  -0.022449  -0.044095
     5  H    0.426579  -0.050822  -0.022486  -0.022449   0.503095  -0.044099
     6  C   -0.216657   0.105176  -0.044031  -0.044095  -0.044099   5.974485
     7  N   -0.009127  -0.003822  -0.000743  -0.000742  -0.000741   0.687973
               7
     1  C   -0.009127
     2  Cl  -0.003822
     3  H   -0.000743
     4  H   -0.000742
     5  H   -0.000741
     6  C    0.687973
     7  N    6.861673
 Mulliken charges:
               1
     1  C   -0.382151
     2  Cl  -0.297365
     3  H    0.210895
     4  H    0.210921
     5  H    0.210923
     6  C   -0.418752
     7  N   -0.534471
 Sum of Mulliken charges =  -1.00000
 Mulliken charges with hydrogens summed into heavy atoms:
               1
     1  C    0.250589
     2  Cl  -0.297365
     6  C   -0.418752
     7  N   -0.534471
 APT charges:
               1
     1  C    0.871697
     2  Cl  -0.832248
     3  H    0.004879
     4  H    0.004943
     5  H    0.004946
     6  C   -0.414951
     7  N   -0.639266
 Sum of APT charges =  -1.00000
 APT charges with hydrogens summed into heavy atoms:
               1
     1  C    0.886465
     2  Cl  -0.832248
     6  C   -0.414951
     7  N   -0.639266
 Electronic spatial extent (au):  <R**2>=            850.3804
 Charge=             -1.0000 electrons
 Dipole moment (field-independent basis, Debye):
    X=             -8.2233    Y=              0.0000    Z=             -0.0005  Tot=              8.2233
 Quadrupole moment (field-independent basis, Debye-Ang):
   XX=            -88.1365   YY=            -35.3792   ZZ=            -35.3801
   XY=              0.0000   XZ=             -0.0011   YZ=              0.0000
 Traceless Quadrupole moment (field-independent basis, Debye-Ang):
   XX=            -35.1712   YY=             17.5861   ZZ=             17.5851
   XY=              0.0000   XZ=             -0.0011   YZ=              0.0000
 Octapole moment (field-independent basis, Debye-Ang**2):
  XXX=           -162.4307  YYY=             -0.0065  ZZZ=             -0.9372  XYY=            -10.1340
  XXY=              0.0003  XXZ=             -0.0086  XZZ=            -10.1346  YZZ=              0.0065
  YYZ=              0.9387  XYZ=             -0.0000
 Hexadecapole moment (field-independent basis, Debye-Ang**3):
 XXXX=          -1801.2383 YYYY=            -55.7902 ZZZZ=            -55.7894 XXXY=              0.0017
 XXXZ=             -0.0477 YYYX=             -0.0006 YYYZ=              0.0000 ZZZX=             -0.1353
 ZZZY=             -0.0000 XXYY=           -218.6916 XXZZ=           -218.6918 YYZZ=            -18.5975
 XXYZ=             -0.0000 YYXZ=              0.1275 ZZXY=              0.0010
 N-N= 1.103086317299D+02 E-N=-1.630529320457D+03  KE= 5.902939360242D+02
  Exact polarizability: 103.469  -0.000  39.263   0.003   0.000  39.263
 Approx polarizability: 128.778  -0.000  49.261   0.006   0.000  49.260
 No NMR shielding tensors so no spin-rotation constants.
 Leave Link  601 at Sun Oct 13 09:51:23 2024, MaxMem=  2684354560 cpu:               2.7 elap:               0.1
 (Enter /usr/local/g16_AVX//g16/l701.exe)
 ... and contract with generalized density number  0.
 Compute integral second derivatives.
 Leave Link  701 at Sun Oct 13 09:51:23 2024, MaxMem=  2684354560 cpu:               4.6 elap:               0.2
 (Enter /usr/local/g16_AVX//g16/l702.exe)
 L702 exits ... SP integral derivatives will be done elsewhere.
 Leave Link  702 at Sun Oct 13 09:51:23 2024, MaxMem=  2684354560 cpu:               0.5 elap:               0.0
 (Enter /usr/local/g16_AVX//g16/l703.exe)
 Integral derivatives from FoFJK, PRISM(SPDF).
 Compute integral second derivatives, UseDBF=F ICtDFT=           0.
 Calling FoFJK, ICntrl=    100127 FMM=F ISym2X=0 I1Cent= 0 IOpClX= 0 NMat=1 NMatS=1 NMatT=0.
 FoFJK:  IHMeth= 1 ICntrl=  100127 DoSepK=F KAlg= 0 I1Cent=           0 FoldK=F
 IRaf=         0 NMat=       1 IRICut=       1 DoRegI=T DoRafI=F ISym2E= 0 IDoP0=0 IntGTp=1.
 FoFCou: FMM=F IPFlag=           0 FMFlag=      100000 FMFlg1=         800
         NFxFlg=           0 DoJE=F BraDBF=F KetDBF=F FulRan=T
         wScrn=  0.000000 ICntrl=    100127 IOpCl=  0 I1Cent=           0 NGrid=           0
         NMat0=    1 NMatS0=      1 NMatT0=    0 NMatD0=    1 NMtDS0=    0 NMtDT0=    0
 Symmetry not used in FoFCou.
 Leave Link  703 at Sun Oct 13 09:51:26 2024, MaxMem=  2684354560 cpu:              65.9 elap:               2.6
 (Enter /usr/local/g16_AVX//g16/l716.exe)
 Dipole        =-3.23528452D+00 6.79990195D-06-2.12329366D-04
 Polarizability= 1.03469070D+02-1.18109283D-04 3.92630245D+01
                 3.44215999D-03 5.06974426D-06 3.92630792D+01
 Full mass-weighted force constant matrix:
 Low frequencies ---  -89.4549  -89.4513  -32.8913  -32.8859   -0.0064   -0.0063
 Low frequencies ---   -0.0056  113.3031  164.6178
 ******    2 imaginary frequencies (negative Signs) ****** 
 Diagonal vibrational polarizability:
      298.2970575      10.0640467      10.0673856
 Harmonic frequencies (cm**-1), IR intensities (KM/Mole), Raman scattering
 activities (A**4/AMU), depolarization ratios for plane and unpolarized
 incident light, reduced masses (AMU), force constants (mDyne/A),
 and normal coordinates:
                      1                      2                      3
                      A                      A                      A
 Frequencies --    -89.1104               -89.1074               164.6178
 Red. masses --     10.0003                 9.9986                11.1569
 Frc consts  --      0.0468                 0.0468                 0.1781
 IR Inten    --      0.1557                 0.1560               217.3696
  Atom  AN      X      Y      Z        X      Y      Z        X      Y      Z
     1   6     0.00   0.21  -0.02    -0.00   0.02   0.22    -0.49   0.00  -0.00
     2  17     0.00  -0.11   0.01    -0.00  -0.01  -0.11    -0.19  -0.00   0.00
     3   1    -0.02   0.27  -0.02     0.18   0.03   0.26    -0.26   0.00   0.04
     4   1    -0.14   0.26  -0.03    -0.10   0.02   0.26    -0.25  -0.04  -0.03
     5   1     0.16   0.26  -0.02    -0.07   0.03   0.27    -0.25   0.04  -0.03
     6   6     0.00   0.64  -0.06    -0.00   0.06   0.64     0.51  -0.00   0.00
     7   7    -0.00  -0.52   0.05     0.00  -0.05  -0.52     0.52  -0.00   0.00
                      4                      5                      6
                      A                      A                      A
 Frequencies --    190.4106               190.4376               363.5342
 Red. masses --      3.9691                 3.9690                13.6224
 Frc consts  --      0.0848                 0.0848                 1.0607
 IR Inten    --     12.7436                12.7426               400.0703
  Atom  AN      X      Y      Z        X      Y      Z        X      Y      Z
     1   6    -0.00  -0.01   0.42     0.00   0.42   0.01     0.78   0.00  -0.00
     2  17    -0.00   0.00  -0.10     0.00  -0.10  -0.00    -0.40  -0.00   0.00
     3   1     0.21  -0.01   0.49     0.01   0.47   0.01     0.22   0.00  -0.13
     4   1    -0.10  -0.00   0.47    -0.19   0.48   0.02     0.22   0.11   0.06
     5   1    -0.11  -0.02   0.47     0.18   0.48   0.00     0.22  -0.11   0.06
     6   6     0.00   0.01  -0.25    -0.00  -0.25  -0.01     0.15  -0.00   0.00
     7   7     0.00  -0.00   0.00    -0.00   0.00   0.00     0.15  -0.00   0.00
                      7                      8                      9
                      A                      A                      A
 Frequencies --    996.5825               996.6168              1225.2985
 Red. masses --      1.0958                 1.0957                 1.0680
 Frc consts  --      0.6412                 0.6412                 0.9447
 IR Inten    --      0.0460                 0.0458                49.3602
  Atom  AN      X      Y      Z        X      Y      Z        X      Y      Z
     1   6    -0.00   0.01  -0.08     0.00   0.08   0.01    -0.06   0.00   0.00
     2  17    -0.00  -0.00   0.02    -0.00  -0.02  -0.00    -0.02  -0.00   0.00
     3   1     0.78  -0.03   0.11    -0.11  -0.18  -0.02     0.56  -0.00   0.14
     4   1    -0.29  -0.05   0.17     0.73  -0.13   0.01     0.56  -0.12  -0.07
     5   1    -0.48   0.01   0.16    -0.62  -0.14  -0.05     0.56   0.12  -0.07
     6   6     0.00   0.00  -0.01    -0.00   0.01   0.00    -0.00   0.00   0.00
     7   7     0.00  -0.00   0.00    -0.00  -0.00  -0.00    -0.01   0.00  -0.00
                     10                     11                     12
                      A                      A                      A
 Frequencies --   1439.9482              1440.0650              2169.1576
 Red. masses --      1.0746                 1.0746                12.7985
 Frc consts  --      1.3127                 1.3130                35.4807
 IR Inten    --      6.1388                 6.1341                11.2715
  Atom  AN      X      Y      Z        X      Y      Z        X      Y      Z
     1   6    -0.00  -0.00  -0.08     0.00  -0.08   0.00    -0.00   0.00  -0.00
     2  17     0.00  -0.00  -0.00    -0.00  -0.00   0.00    -0.00   0.00   0.00
     3   1    -0.23   0.00  -0.12     0.00   0.77   0.00    -0.03   0.00  -0.01
     4   1     0.12  -0.39   0.55     0.20   0.11  -0.39    -0.03   0.01   0.00
     5   1     0.11   0.38   0.55    -0.20   0.10   0.38    -0.03  -0.01   0.00
     6   6     0.00  -0.00  -0.00    -0.00  -0.00   0.00     0.76  -0.00   0.00
     7   7    -0.00   0.00   0.00     0.00   0.00  -0.00    -0.64   0.00  -0.00
                     13                     14                     15
                      A                      A                      A
 Frequencies --   3154.2333              3307.6974              3307.7911
 Red. masses --      1.0188                 1.1160                 1.1160
 Frc consts  --      5.9721                 7.1940                 7.1942
 IR Inten    --      6.2927                 0.0356                 0.0344
  Atom  AN      X      Y      Z        X      Y      Z        X      Y      Z
     1   6     0.03  -0.00   0.00     0.00  -0.10   0.00     0.00  -0.00  -0.10
     2  17    -0.00   0.00  -0.00    -0.00   0.00  -0.00     0.00   0.00   0.00
     3   1    -0.13  -0.00   0.56     0.01  -0.02  -0.03    -0.20  -0.00   0.79
     4   1    -0.13  -0.49  -0.28     0.17   0.57   0.34     0.10   0.37   0.20
     5   1    -0.13   0.49  -0.28    -0.17   0.60  -0.35     0.09  -0.33   0.17
     6   6     0.00   0.00  -0.00     0.00   0.00  -0.00    -0.00   0.00   0.00
     7   7     0.00  -0.00   0.00    -0.00  -0.00   0.00     0.00  -0.00  -0.00

 -------------------
 - Thermochemistry -
 -------------------
 Temperature   298.150 Kelvin.  Pressure   1.00000 Atm.
 Atom     1 has atomic number  6 and mass  12.00000
 Atom     2 has atomic number 17 and mass  34.96885
 Atom     3 has atomic number  1 and mass   1.00783
 Atom     4 has atomic number  1 and mass   1.00783
 Atom     5 has atomic number  1 and mass   1.00783
 Atom     6 has atomic number  6 and mass  12.00000
 Atom     7 has atomic number  7 and mass  14.00307
 Molecular mass:    75.99540 amu.
 Principal axes and moments of inertia in atomic units:
                           1         2         3
     Eigenvalues --    11.813251463.257091463.25883
           X            1.00000   0.00000  -0.00001
           Y           -0.00000   0.99998  -0.00689
           Z            0.00001   0.00689   0.99998
 This molecule is an asymmetric top.
 Rotational symmetry number  1.
 Rotational temperatures (Kelvin)      7.33193     0.05919     0.05919
 Rotational constants (GHZ):         152.77268     1.23337     1.23337
    2 imaginary frequencies ignored.
 Zero-point vibrational energy     113324.6 (Joules/Mol)
                                   27.08523 (Kcal/Mol)
 Warning -- explicit consideration of   4 degrees of freedom as
           vibrations may cause significant error
 Vibrational temperatures:    236.85   273.96   274.00   523.04  1433.86
          (Kelvin)           1433.91  1762.93  2071.76  2071.93  3120.93
                             4538.24  4759.04  4759.17
 
 Zero-point correction=                           0.043163 (Hartree/Particle)
 Thermal correction to Energy=                    0.048215
 Thermal correction to Enthalpy=                  0.049159
 Thermal correction to Gibbs Free Energy=         0.014974
 Sum of electronic and zero-point Energies=           -592.948332
 Sum of electronic and thermal Energies=              -592.943280
 Sum of electronic and thermal Enthalpies=            -592.942336
 Sum of electronic and thermal Free Energies=         -592.976521
 
                     E (Thermal)             CV                S
                      KCal/Mol        Cal/Mol-Kelvin    Cal/Mol-Kelvin
 Total                   30.255             14.243             71.948
 Electronic               0.000              0.000              0.000
 Translational            0.889              2.981             38.900
 Rotational               0.889              2.981             24.740
 Vibrational             28.478              8.281              8.308
 Vibration     1          0.623              1.886              2.496
 Vibration     2          0.634              1.853              2.224
 Vibration     3          0.634              1.853              2.224
 Vibration     4          0.737              1.547              1.107
                       Q            Log10(Q)             Ln(Q)
 Total Bot       0.129509D-06         -6.887700        -15.859515
 Total V=0       0.924504D+13         12.965909         29.855109
 Vib (Bot)       0.873603D-19        -19.058686        -43.884246
 Vib (Bot)    1  0.122632D+01          0.088605          0.204020
 Vib (Bot)    2  0.105094D+01          0.021578          0.049686
 Vib (Bot)    3  0.105078D+01          0.021512          0.049534
 Vib (Bot)    4  0.503000D+00         -0.298432         -0.687165
 Vib (V=0)       0.623624D+01          0.794923          1.830378
 Vib (V=0)    1  0.182434D+01          0.261105          0.601216
 Vib (V=0)    2  0.166382D+01          0.221106          0.509116
 Vib (V=0)    3  0.166368D+01          0.221069          0.509029
 Vib (V=0)    4  0.120923D+01          0.082509          0.189985
 Electronic      0.100000D+01          0.000000          0.000000
 Translational   0.260396D+08          7.415635         17.075130
 Rotational      0.569313D+05          4.755351         10.949601
 
                                                       RxCoord=1.69960 DE=49.91
                                                             IR Spectrum
 
      3    3                                     2                           1       1                                               
      3    1                                     1                           4       2        9                        3     11      
      0    5                                     6                           4       2        9                        6     96      
      8    4                                     9                           0       5        7                        4     05      
 
      X    X                                     X                           X       X        X                        X     XX      
                                                                                     X                                 X      X      
                                                                                                                       X      X      
                                                                                                                       X      X      
                                                                                                                       X      X      
                                                                                                                       X      X      
                                                                                                                       X      X      
                                                                                                                       X      X      
                                                                                                                       X      X      
                                                                                                                       X      X      
                                                                                                                       X      X      
                                                                                                                       X             
                                                                                                                       X             
                                                                                                                       X             
                                                                                                                       X             
                                                                                                                       X             
                                                                                                                       X             
                                                                                                                       X             
                                                                                                                       X             
                                                                                                                       X             
 
 -------------------------------------------------------------------
 Center     Atomic                   Forces (Hartrees/Bohr)
 Number     Number              X              Y              Z
 -------------------------------------------------------------------
      1        6          -0.010101758   -0.000000272   -0.000016041
      2       17          -0.000236319   -0.000000389    0.000007659
      3        1           0.000256547   -0.000002056    0.000956186
      4        1           0.000238298   -0.000852469   -0.000474073
      5        1           0.000236951    0.000855063   -0.000470208
      6        6           0.003674274    0.000000191   -0.000005782
      7        7           0.005932007   -0.000000069    0.000002258
 -------------------------------------------------------------------
 Cartesian Forces:  Max     0.010101758 RMS     0.002706143
 Z-matrix is all fixed cartesians, so copy forces.
 Force constants in Cartesian coordinates: 
                1             2             3             4             5 
      1  0.118218D+00
      2 -0.441589D-05  0.632598D+00
      3  0.975610D-04  0.141708D-05  0.632522D+00
      4 -0.150052D-01  0.000000D+00  0.231756D-05  0.105514D+00
      5  0.000000D+00 -0.317812D-01  0.000000D+00  0.000000D+00  0.177190D-01
      6  0.220799D-05  0.000000D+00 -0.317760D-01 -0.193269D-04  0.000000D+00
      7 -0.395506D-01 -0.176793D-03  0.765343D-01 -0.231337D-01 -0.370341D-04
      8 -0.169019D-03 -0.505786D-01  0.682183D-03  0.138406D-04  0.431412D-03
      9  0.732788D-01  0.682093D-03 -0.345931D+00 -0.607623D-02 -0.154635D-04
     10 -0.396020D-01 -0.662889D-01 -0.384689D-01 -0.231253D-01 -0.138333D-01
     11 -0.634693D-01 -0.271469D+00 -0.128165D+00  0.526208D-02  0.544917D-02
     12 -0.368362D-01 -0.128159D+00 -0.124937D+00  0.305875D-02  0.291461D-02
     13 -0.396046D-01  0.664703D-01 -0.381658D-01 -0.231246D-01  0.138697D-01
     14  0.636433D-01 -0.272644D+00  0.127482D+00 -0.527666D-02  0.547622D-02
     15 -0.365459D-01  0.127475D+00 -0.123756D+00  0.303458D-02 -0.289916D-02
     16  0.328538D-02  0.000000D+00  0.190941D-05 -0.117088D-01  0.000000D+00
     17  0.000000D+00 -0.798597D-02  0.000000D+00  0.000000D+00  0.326757D-02
     18 -0.140057D-05  0.000000D+00 -0.798260D-02  0.465406D-05  0.000000D+00
     19  0.122591D-01  0.000000D+00 -0.144218D-05 -0.941629D-02  0.000000D+00
     20  0.000000D+00  0.186149D-02  0.000000D+00  0.000000D+00 -0.562143D-03
     21  0.503661D-05  0.000000D+00  0.186094D-02 -0.474658D-05  0.000000D+00
                6             7             8             9            10 
      6  0.177190D-01
      7  0.160050D-01  0.628909D-01
      8 -0.152632D-04  0.175128D-03  0.457610D-01
      9  0.713631D-02 -0.758386D-01 -0.715864D-03  0.355667D+00
     10 -0.802634D-02  0.300972D-02  0.582037D-02  0.397782D-02  0.629453D-01
     11  0.291146D-02 -0.502312D-03  0.287212D-02  0.303258D-02  0.656839D-01
     12  0.212138D-02 -0.704153D-02 -0.244792D-01 -0.963791D-02  0.381154D-01
     13 -0.796228D-02  0.300996D-02 -0.583861D-02  0.395114D-02  0.301025D-02
     14 -0.289621D-02  0.534962D-03  0.277264D-02 -0.297509D-02  0.635029D-02
     15  0.209456D-02 -0.703954D-02  0.245364D-01 -0.953881D-02  0.308612D-02
     16  0.000000D+00 -0.576656D-02  0.000000D+00  0.674615D-04 -0.577740D-02
     17  0.000000D+00  0.676098D-05 -0.164710D-02 -0.108152D-04  0.253407D-02
     18  0.326678D-02 -0.292726D-02 -0.108467D-04  0.302886D-02  0.147091D-02
     19  0.000000D+00 -0.459712D-03 -0.148849D-05  0.639621D-03 -0.460568D-03
     20  0.000000D+00  0.000000D+00  0.388534D-03  0.255734D-05 -0.266331D-03
     21 -0.562034D-03  0.307586D-03  0.257467D-05 -0.724076D-03 -0.155055D-03
               11            12            13            14            15 
     11  0.277525D+00
     12  0.134483D+00  0.123786D+00
     13 -0.636414D-02  0.305658D-02  0.629474D-01
     14 -0.157837D-01  0.136943D-01 -0.658635D-01  0.278758D+00
     15 -0.138086D-01  0.902885D-02  0.378149D-01 -0.133766D+00  0.122547D+00
     16 -0.571659D-04 -0.322295D-04 -0.577781D-02  0.571892D-04 -0.319357D-04
     17  0.185121D-02  0.202899D-02 -0.254082D-02  0.186989D-02 -0.201826D-02
     18  0.202979D-02 -0.469662D-03  0.145923D-02 -0.201902D-02 -0.488245D-03
     19 -0.552993D-03 -0.320773D-03 -0.460572D-03  0.554464D-03 -0.318225D-03
     20 -0.444122D-03 -0.483087D-03  0.267062D-03 -0.448588D-03  0.480538D-03
     21 -0.483446D-03  0.108064D-03 -0.153830D-03  0.480877D-03  0.112516D-03
               16            17            18            19            20 
     16  0.116902D+01
     17 -0.113676D-04  0.130309D-02
     18  0.379120D-03  0.000000D+00  0.130424D-02
     19 -0.114327D+01  0.116461D-04 -0.385249D-03  0.114181D+01
     20  0.116027D-04  0.134130D-02  0.000000D+00 -0.116424D-04 -0.213647D-02
     21 -0.384173D-03  0.000000D+00  0.134062D-02  0.385183D-03  0.000000D+00
               21 
     21 -0.213603D-02
 Leave Link  716 at Sun Oct 13 09:51:26 2024, MaxMem=  2684354560 cpu:               0.9 elap:               0.1
 (Enter /usr/local/g16_AVX//g16/l103.exe)

 GradGradGradGradGradGradGradGradGradGradGradGradGradGradGradGradGradGrad
 Berny optimization.
 Search for a local minimum.
 Step number   1 out of a maximum of    2
 All quantities printed in internal units (Hartrees-Bohrs-Radians)
 Second derivative matrix not updated -- analytic derivatives used.
 ITU=  0
     Eigenvalues ---   -0.00347  -0.00347   0.00732   0.00732   0.01109
     Eigenvalues ---    0.05385   0.05385   0.08604   0.10686   0.10827
     Eigenvalues ---    0.10828   0.43336   0.93108   0.93112   2.29779
 Eigenvalue     1 is  -3.47D-03 should be greater than     0.000000 Eigenvector:
                          Y6        Y7        Y2        Y3        Y4
   1                    0.66621  -0.61754  -0.19199   0.16813   0.16285
                          Y5        X5        X4        Y1        Z6
   1                    0.16255   0.14511  -0.13830   0.12249  -0.02614
 Eigenvalue     2 is  -3.47D-03 should be greater than     0.000000 Eigenvector:
                          Z6        Z7        Z2        Z5        Z4
   1                    0.66614  -0.61753  -0.19202   0.16672   0.16639
                          X3        Z3        Z1        X4        X5
   1                    0.16362   0.16060   0.12253  -0.08779  -0.07602
 Quadratic step=8.798D-01 exceeds max=3.000D-01 adjusted using Lamda=-2.207D-02.
 Angle between NR and scaled steps=   7.26 degrees.
 Angle between quadratic step and forces=  26.68 degrees.
 Linear search not attempted -- first point.
 B after Tr=     0.013098   -0.000001    0.000006
         Rot=    1.000000   -0.000000   -0.000002   -0.000000 Ang=  -0.00 deg.
 Variable       Old X    -DE/DX   Delta X   Delta X   Delta X     New X
                                 (Linear)    (Quad)   (Total)
    X1       -0.41710  -0.01010   0.00000  -0.18471  -0.17162  -0.58871
    Y1        0.00001  -0.00000   0.00000   0.00000   0.00000   0.00001
    Z1       -0.00034  -0.00002   0.00000  -0.00010  -0.00009  -0.00043
    X2       -4.08857  -0.00024   0.00000  -0.03071  -0.01761  -4.10618
    Y2       -0.00000  -0.00000   0.00000  -0.00000  -0.00000  -0.00001
    Z2        0.00009   0.00001   0.00000   0.00005   0.00007   0.00016
    X3        0.10010   0.00026   0.00000  -0.05660  -0.04350   0.05660
    Y3        0.00458  -0.00000   0.00000  -0.00006  -0.00006   0.00452
    Z3       -1.97711   0.00096   0.00000   0.02702   0.02703  -1.95008
    X4        0.10091   0.00024   0.00000  -0.05681  -0.04371   0.05720
    Y4        1.70970  -0.00085   0.00000  -0.02359  -0.02359   1.68611
    Z4        0.99160  -0.00047   0.00000  -0.01354  -0.01354   0.97806
    X5        0.10095   0.00024   0.00000  -0.05683  -0.04373   0.05722
    Y5       -1.71422   0.00086   0.00000   0.02366   0.02365  -1.69057
    Z5        0.98370  -0.00047   0.00000  -0.01343  -0.01343   0.97027
    X6        4.48020   0.00367   0.00000   0.14509   0.15819   4.63838
    Y6        0.00001   0.00000   0.00000   0.00000   0.00000   0.00001
    Z6       -0.00029  -0.00001   0.00000  -0.00010  -0.00012  -0.00041
    X7        6.70647   0.00593   0.00000   0.14889   0.16198   6.86845
    Y7       -0.00002  -0.00000   0.00000  -0.00000  -0.00000  -0.00002
    Z7        0.00046   0.00000   0.00000   0.00010   0.00008   0.00053
         Item               Value     Threshold  Converged?
 Maximum Force            0.010102     0.000450     NO 
 RMS     Force            0.002706     0.000300     NO 
 Maximum Displacement     0.171615     0.001800     NO 
 RMS     Displacement     0.065082     0.001200     NO 
 Predicted change in Energy=-2.658438D-03
 GradGradGradGradGradGradGradGradGradGradGradGradGradGradGradGradGradGrad

 Leave Link  103 at Sun Oct 13 09:51:26 2024, MaxMem=  2684354560 cpu:               0.6 elap:               0.1
 (Enter /usr/local/g16_AVX//g16/l9999.exe)

 ----------------------------------------------------------------------

 Electric dipole moment (input orientation):
 (Debye = 10**-18 statcoulomb cm , SI units = C m)
                  (au)            (Debye)         (10**-30 SI)
   Tot        0.323528D+01      0.822327D+01      0.274299D+02
   x         -0.323528D+01     -0.822327D+01     -0.274299D+02
   y          0.000000D+00      0.000000D+00      0.000000D+00
   z         -0.212329D-03     -0.539687D-03     -0.180020D-02

 Dipole polarizability, Alpha (input orientation).
 (esu units = cm**3 , SI units = C**2 m**2 J**-1)
 Alpha(0;0):
               (au)            (10**-24 esu)      (10**-40 SI)
   iso        0.606651D+02      0.898963D+01      0.100023D+02
   aniso      0.642060D+02      0.951435D+01      0.105861D+02
   xx         0.103469D+03      0.153325D+02      0.170597D+02
   yx        -0.118109D-03     -0.175020D-04     -0.194736D-04
   yy         0.392630D+02      0.581818D+01      0.647360D+01
   zx         0.344216D-02      0.510075D-03      0.567536D-03
   zy         0.000000D+00      0.000000D+00      0.000000D+00
   zz         0.392631D+02      0.581819D+01      0.647361D+01

 ----------------------------------------------------------------------

 Dipole orientation:
     6         -0.00031278          0.00001235          0.41709659
    17          0.00035715         -0.00001048          4.08857363
     1         -1.97711551          0.00458128         -0.09997092
     1          0.99159674          1.70969382         -0.10096908
     1          0.98368670         -1.71422156         -0.10101733
     6         -0.00058883          0.00001698         -4.48019668
     7          0.00001528         -0.00000102         -6.70646985

 Electric dipole moment (dipole orientation):
 (Debye = 10**-18 statcoulomb cm , SI units = C m)
                  (au)            (Debye)         (10**-30 SI)
   Tot        0.323528D+01      0.822327D+01      0.274299D+02
   x          0.000000D+00      0.000000D+00      0.000000D+00
   y          0.000000D+00      0.000000D+00      0.000000D+00
   z          0.323528D+01      0.822327D+01      0.274299D+02

 Dipole polarizability, Alpha (dipole orientation).
 (esu units = cm**3 , SI units = C**2 m**2 J**-1)
 Alpha(0;0):
               (au)            (10**-24 esu)      (10**-40 SI)
   iso        0.606651D+02      0.898963D+01      0.100023D+02
   aniso      0.642060D+02      0.951435D+01      0.105861D+02
   xx         0.392631D+02      0.581819D+01      0.647361D+01
   yx         0.000000D+00      0.000000D+00      0.000000D+00
   yy         0.392630D+02      0.581818D+01      0.647360D+01
   zx         0.771632D-03      0.114344D-03      0.127225D-03
   zy        -0.168406D-04     -0.249551D-05     -0.277663D-05
   zz         0.103469D+03      0.153325D+02      0.170597D+02

 ----------------------------------------------------------------------
 1\1\GINC-NODO7\Freq\RB3LYP\6-31++G(d,p)\C2H3Cl1N1(1-)\ALANQF\13-Oct-20
 24\0\\#p b3lyp 6-31++g(d,p) scf=verytight NoSymm freq=noraman int=ultr
 afine\\RxCoord=1.69960 DE=49.91\\-1,1\C,-0.220718,0.000007,-0.00018\Cl
 ,-2.16358,-0.000001,0.000047\H,0.052971,0.002422,-1.046241\H,0.053398,
 0.904732,0.524732\H,0.05342,-0.907126,0.52055\C,2.370818,0.000004,-0.0
 00156\N,3.548911,-0.000008,0.000241\\Version=ES64L-G16RevB.01\HF=-592.
 9914954\RMSD=4.399e-09\RMSF=2.706e-03\ZeroPoint=0.0431631\Thermal=0.04
 82149\Dipole=-3.1809231,0.0000078,-0.000236\DipoleDeriv=2.478698,0.000
 0041,-0.0001278,0.0000118,0.0681641,0.0000003,-0.0003055,0.0000003,0.0
 682279,-1.772585,-0.0000025,0.0000821,-0.0000028,-0.3620837,0.,0.00009
 32,0.,-0.3620759,-0.0725813,0.0000113,-0.0051396,0.0000314,0.0752872,0
 .0001462,-0.0144997,0.0001463,0.0119302,-0.0724949,0.0044579,0.002594,
 0.0126388,0.0279671,-0.0274781,0.0073826,-0.0274578,0.0593573,-0.07248
 72,-0.0044702,0.0025729,-0.0126794,0.0277155,0.0273318,0.0073259,0.027
 3112,0.0596109,-0.410699,-0.0000042,0.0001184,-0.0000083,-0.4170732,-0
 .0000002,0.0002837,-0.0000002,-0.4170797,-1.0778506,0.0000036,-0.0001,
 0.0000084,-0.4199769,0.,-0.0002802,0.,-0.4199706\Polar=103.4690695,-0.
 0001181,39.2630245,0.0034422,0.0000051,39.2630792\Quadrupole=-26.14892
 89,13.0748093,13.0741196,0.0000265,-0.000842,0.0000036\PG=C01 [X(C2H3C
 l1N1)]\NImag=2\\0.11821802,-0.00000442,0.63259758,0.00009756,0.0000014
 2,0.63252151,-0.01500521,-0.00000015,0.00000232,0.10551384,-0.00000017
 ,-0.03178120,0.00000002,0.00000085,0.01771897,0.00000221,0.00000002,-0
 .03177598,-0.00001933,0.,0.01771897,-0.03955064,-0.00017679,0.07653431
 ,-0.02313369,-0.00003703,0.01600501,0.06289093,-0.00016902,-0.05057865
 ,0.00068218,0.00001384,0.00043141,-0.00001526,0.00017513,0.04576104,0.
 07327875,0.00068209,-0.34593119,-0.00607623,-0.00001546,0.00713631,-0.
 07583856,-0.00071586,0.35566682,-0.03960197,-0.06628891,-0.03846887,-0
 .02312529,-0.01383335,-0.00802634,0.00300972,0.00582037,0.00397782,0.0
 6294525,-0.06346933,-0.27146924,-0.12816523,0.00526208,0.00544917,0.00
 291146,-0.00050231,0.00287212,0.00303258,0.06568386,0.27752456,-0.0368
 3622,-0.12815906,-0.12493656,0.00305875,0.00291461,0.00212138,-0.00704
 153,-0.02447919,-0.00963791,0.03811542,0.13448346,0.12378584,-0.039604
 64,0.06647031,-0.03816579,-0.02312457,0.01386969,-0.00796228,0.0030099
 6,-0.00583861,0.00395114,0.00301025,-0.00636414,0.00305658,0.06294739,
 0.06364325,-0.27264402,0.12748157,-0.00527666,0.00547622,-0.00289621,0
 .00053496,0.00277264,-0.00297509,0.00635029,-0.01578370,0.01369427,-0.
 06586350,0.27875756,-0.03654594,0.12747550,-0.12375612,0.00303458,-0.0
 0289916,0.00209456,-0.00703954,0.02453640,-0.00953881,0.00308612,-0.01
 380861,0.00902885,0.03781495,-0.13376641,0.12254725,0.00328538,-0.0000
 0007,0.00000191,-0.01170880,0.00000003,-0.00000015,-0.00576656,-0.0000
 0022,0.00006746,-0.00577740,-0.00005717,-0.00003223,-0.00577781,0.0000
 5719,-0.00003194,1.16901919,-0.00000020,-0.00798597,0.00000005,-0.0000
 0009,0.00326757,-0.00000002,0.00000676,-0.00164710,-0.00001082,0.00253
 407,0.00185121,0.00202899,-0.00254082,0.00186989,-0.00201826,-0.000011
 37,0.00130309,-0.00000140,0.00000004,-0.00798260,0.00000465,-0.0000000
 2,0.00326678,-0.00292726,-0.00001085,0.00302886,0.00147091,0.00202979,
 -0.00046966,0.00145923,-0.00201902,-0.00048824,0.00037912,0.00000005,0
 .00130424,0.01225906,0.00000003,-0.00000144,-0.00941629,-0.00000002,0.
 00000088,-0.00045971,-0.00000149,0.00063962,-0.00046057,-0.00055299,-0
 .00032077,-0.00046057,0.00055446,-0.00031822,-1.14327400,0.00001165,-0
 .00038525,1.14181209,-0.00000012,0.00186149,-0.00000001,0.00000014,-0.
 00056214,0.,-0.00000071,0.00038853,0.00000256,-0.00026633,-0.00044412,
 -0.00048309,0.00026706,-0.00044859,0.00048054,0.00001160,0.00134130,0.
 ,-0.00001164,-0.00213647,0.00000504,0.,0.00186094,-0.00000475,0.,-0.00
 056203,0.00030759,0.00000257,-0.00072408,-0.00015506,-0.00048345,0.000
 10806,-0.00015383,0.00048088,0.00011252,-0.00038417,0.,0.00134062,0.00
 038518,0.,-0.00213603\\0.01010176,0.00000027,0.00001604,0.00023632,0.0
 0000039,-0.00000766,-0.00025655,0.00000206,-0.00095619,-0.00023830,0.0
 0085247,0.00047407,-0.00023695,-0.00085506,0.00047021,-0.00367427,-0.0
 0000019,0.00000578,-0.00593201,0.00000007,-0.00000226\\\@


 IF YOU BELIEVE CERTAIN WORDS, YOU BELIEVE THEIR HIDDEN ARGUMENTS.
 WHEN YOU BELIEVE SOMETHING IS RIGHT OR WRONG, TRUE OR FALSE, 
 YOU BELIEVE THE ASSUMPTIONS IN THE WORDS WHICH EXPRESS THE ARGUMENTS.
 SUCH ASSUMPTIONS ARE OFTEN FULL OF HOLES, BUT REMAIN MOST PRECIOUS 
 TO THE CONVINCED.

                 -- THE OPEN-ENDED PROOF FROM THE PANOPLIA PROPHETICA
                    CHILDREN OF DUNE BY FRANK HERBERT
 Job cpu time:       0 days  0 hours  3 minutes 44.8 seconds.
 Elapsed time:       0 days  0 hours  0 minutes  9.6 seconds.
 File lengths (MBytes):  RWF=     88 Int=      0 D2E=      0 Chk=      2 Scr=      2
 Normal termination of Gaussian 16 at Sun Oct 13 09:51:26 2024.
