 Entering Gaussian System, Link 0=g16
 Initial command:
 /usr/local/g16_AVX//g16/l1.exe "/scratch/alanqf/0119-54561.ixchel.mda.cinvestav.mx/Gau-37770.inp" -scrdir="/scratch/alanqf/0119-54561.ixchel.mda.cinvestav.mx/"
 Entering Link 1 = /usr/local/g16_AVX//g16/l1.exe PID=     37776.
  
 Copyright (c) 1988-2017, Gaussian, Inc.  All Rights Reserved.
  
 This is part of the Gaussian(R) 16 program.  It is based on
 the Gaussian(R) 09 system (copyright 2009, Gaussian, Inc.),
 the Gaussian(R) 03 system (copyright 2003, Gaussian, Inc.),
 the Gaussian(R) 98 system (copyright 1998, Gaussian, Inc.),
 the Gaussian(R) 94 system (copyright 1995, Gaussian, Inc.),
 the Gaussian 92(TM) system (copyright 1992, Gaussian, Inc.),
 the Gaussian 90(TM) system (copyright 1990, Gaussian, Inc.),
 the Gaussian 88(TM) system (copyright 1988, Gaussian, Inc.),
 the Gaussian 86(TM) system (copyright 1986, Carnegie Mellon
 University), and the Gaussian 82(TM) system (copyright 1983,
 Carnegie Mellon University). Gaussian is a federally registered
 trademark of Gaussian, Inc.
  
 This software contains proprietary and confidential information,
 including trade secrets, belonging to Gaussian, Inc.
  
 This software is provided under written license and may be
 used, copied, transmitted, or stored only in accord with that
 written license.
  
 The following legend is applicable only to US Government
 contracts under FAR:
  
                    RESTRICTED RIGHTS LEGEND
  
 Use, reproduction and disclosure by the US Government is
 subject to restrictions as set forth in subparagraphs (a)
 and (c) of the Commercial Computer Software - Restricted
 Rights clause in FAR 52.227-19.
  
 Gaussian, Inc.
 340 Quinnipiac St., Bldg. 40, Wallingford CT 06492
  
  
 ---------------------------------------------------------------
 Warning -- This program may not be used in any manner that
 competes with the business of Gaussian, Inc. or will provide
 assistance to any competitor of Gaussian, Inc.  The licensee
 of this program is prohibited from giving any competitor of
 Gaussian, Inc. access to this program.  By using this program,
 the user acknowledges that Gaussian, Inc. is engaged in the
 business of creating and licensing software in the field of
 computational chemistry and represents and warrants to the
 licensee that it is not a competitor of Gaussian, Inc. and that
 it will not use this program in any manner prohibited above.
 ---------------------------------------------------------------
  

 Cite this work as:
 Gaussian 16, Revision B.01,
 M. J. Frisch, G. W. Trucks, H. B. Schlegel, G. E. Scuseria, 
 M. A. Robb, J. R. Cheeseman, G. Scalmani, V. Barone, 
 G. A. Petersson, H. Nakatsuji, X. Li, M. Caricato, A. V. Marenich, 
 J. Bloino, B. G. Janesko, R. Gomperts, B. Mennucci, H. P. Hratchian, 
 J. V. Ortiz, A. F. Izmaylov, J. L. Sonnenberg, D. Williams-Young, 
 F. Ding, F. Lipparini, F. Egidi, J. Goings, B. Peng, A. Petrone, 
 T. Henderson, D. Ranasinghe, V. G. Zakrzewski, J. Gao, N. Rega, 
 G. Zheng, W. Liang, M. Hada, M. Ehara, K. Toyota, R. Fukuda, 
 J. Hasegawa, M. Ishida, T. Nakajima, Y. Honda, O. Kitao, H. Nakai, 
 T. Vreven, K. Throssell, J. A. Montgomery, Jr., J. E. Peralta, 
 F. Ogliaro, M. J. Bearpark, J. J. Heyd, E. N. Brothers, K. N. Kudin, 
 V. N. Staroverov, T. A. Keith, R. Kobayashi, J. Normand, 
 K. Raghavachari, A. P. Rendell, J. C. Burant, S. S. Iyengar, 
 J. Tomasi, M. Cossi, J. M. Millam, M. Klene, C. Adamo, R. Cammi, 
 J. W. Ochterski, R. L. Martin, K. Morokuma, O. Farkas, 
 J. B. Foresman, and D. J. Fox, Gaussian, Inc., Wallingford CT, 2016.
 
 ******************************************
 Gaussian 16:  ES64L-G16RevB.01 20-Dec-2017
                13-Oct-2024 
 ******************************************
 %NProcShared=26
 Will use up to   26 processors via shared memory.
 %MEM=20GB
 %chk=CHKfiles/0119.chk
 ---------------------------------------------------------------------
 #p b3lyp 6-31++g(d,p) scf=verytight NoSymm freq=noraman int=ultrafine
 ---------------------------------------------------------------------
 1/10=4,30=1,38=1/1,3;
 2/12=2,15=1,17=6,18=5,40=1/2;
 3/5=1,6=6,7=1111,11=2,25=1,30=1,71=2,74=-5,75=-5,140=1/1,2,3;
 4//1;
 5/5=2,17=3,38=5,98=1/2;
 8/6=4,10=90,11=11/1;
 11/6=1,8=1,9=11,15=111,16=1,31=1/1,2,10;
 10/6=1,31=1/2;
 6/7=2,8=2,9=2,10=2,28=1/1;
 7/8=1,10=1,25=1,30=1/1,2,3,16;
 1/10=4,30=1/3;
 99//99;
 Leave Link    1 at Sun Oct 13 09:51:16 2024, MaxMem=  2684354560 cpu:               1.2 elap:               0.1
 (Enter /usr/local/g16_AVX//g16/l101.exe)
 ------------------------
 RxCoord=1.79958 DE=49.52
 ------------------------
 Symbolic Z-matrix:
 Charge = -1 Multiplicity = 1
 C                    -0.23397   0.00001  -0.00019 
 Cl                   -2.16178  0.         0.00005 
 H                     0.04771   0.00241  -1.04447 
 H                     0.04812   0.90319   0.52385 
 H                     0.04814  -0.90558   0.51968 
 C                     2.37506   0.       -0.00016 
 N                     3.55328  -0.00001   0.00024 
 
 ITRead=  0  0  0  0  0  0  0
 MicOpt= -1 -1 -1 -1 -1 -1 -1
 NAtoms=      7 NQM=        7 NQMF=       0 NMMI=      0 NMMIF=      0
                NMic=       0 NMicF=      0.
                    Isotopes and Nuclear Properties:
 (Nuclear quadrupole moments (NQMom) in fm**2, nuclear magnetic moments (NMagM)
  in nuclear magnetons)

  Atom         1           2           3           4           5           6           7
 IAtWgt=          12          35           1           1           1          12          14
 AtmWgt=  12.0000000  34.9688527   1.0078250   1.0078250   1.0078250  12.0000000  14.0030740
 NucSpn=           0           3           1           1           1           0           2
 AtZEff=  -0.0000000  -0.0000000  -0.0000000  -0.0000000  -0.0000000  -0.0000000  -0.0000000
 NQMom=    0.0000000  -8.1650000   0.0000000   0.0000000   0.0000000   0.0000000   2.0440000
 NMagM=    0.0000000   0.8218740   2.7928460   2.7928460   2.7928460   0.0000000   0.4037610
 AtZNuc=   6.0000000  17.0000000   1.0000000   1.0000000   1.0000000   6.0000000   7.0000000
 Leave Link  101 at Sun Oct 13 09:51:16 2024, MaxMem=  2684354560 cpu:               2.9 elap:               0.2
 (Enter /usr/local/g16_AVX//g16/l103.exe)

 GradGradGradGradGradGradGradGradGradGradGradGradGradGradGradGradGradGrad
 Berny optimization.
 Initialization pass.
 Trust Radius=3.00D-01 FncErr=1.00D-07 GrdErr=1.00D-07 EigMax=2.50D+02 EigMin=1.00D-04
 Number of steps in this run=      2 maximum allowed number of steps=      2.
 GradGradGradGradGradGradGradGradGradGradGradGradGradGradGradGradGradGrad

 Leave Link  103 at Sun Oct 13 09:51:17 2024, MaxMem=  2684354560 cpu:               0.5 elap:               0.1
 (Enter /usr/local/g16_AVX//g16/l202.exe)
                          Input orientation:                          
 ---------------------------------------------------------------------
 Center     Atomic      Atomic             Coordinates (Angstroms)
 Number     Number       Type             X           Y           Z
 ---------------------------------------------------------------------
      1          6           0       -0.233974    0.000007   -0.000185
      2         17           0       -2.161781   -0.000001    0.000048
      3          1           0        0.047707    0.002414   -1.044474
      4          1           0        0.048119    0.903189    0.523853
      5          1           0        0.048143   -0.905576    0.519684
      6          6           0        2.375059    0.000004   -0.000158
      7          7           0        3.553283   -0.000008    0.000242
 ---------------------------------------------------------------------
                    Distance matrix (angstroms):
                    1          2          3          4          5
     1  C    0.000000
     2  Cl   1.927807   0.000000
     3  H    1.081614   2.443945   0.000000
     4  H    1.081633   2.444132   1.808603   0.000000
     5  H    1.081635   2.444146   1.808601   1.808770   0.000000
     6  C    2.609033   4.536840   2.550915   2.550486   2.550461
     7  N    3.787257   5.715064   3.657937   3.657336   3.657305
                    6          7
     6  C    0.000000
     7  N    1.178224   0.000000
 Symmetry turned off by external request.
 Stoichiometry    C2H3ClN(1-)
 Framework group  C1[X(C2H3ClN)]
 Deg. of freedom    15
 Full point group                 C1      NOp   1
 Rotational constants (GHZ):         153.2918217           1.2319614           1.2319601
 Leave Link  202 at Sun Oct 13 09:51:17 2024, MaxMem=  2684354560 cpu:               0.2 elap:               0.1
 (Enter /usr/local/g16_AVX//g16/l301.exe)
 Standard basis: 6-31++G(d,p) (6D, 7F)
 Ernie: Thresh=  0.10000D-02 Tol=  0.10000D-05 Strict=F.
    98 basis functions,   176 primitive gaussians,    98 cartesian basis functions
    20 alpha electrons       20 beta electrons
       nuclear repulsion energy       110.4473814130 Hartrees.
 IExCor=  402 DFT=T Ex+Corr=B3LYP ExCW=0 ScaHFX=  0.200000
 ScaDFX=  0.800000  0.720000  1.000000  0.810000 ScalE2=  1.000000  1.000000
 IRadAn=      5 IRanWt=     -1 IRanGd=            0 ICorTp=0 IEmpDi=  4
 NAtoms=    7 NActive=    7 NUniq=    7 SFac= 1.00D+00 NAtFMM=   60 NAOKFM=F Big=F
 Integral buffers will be    131072 words long.
 Raffenetti 2 integral format.
 Two-electron integral symmetry is turned off.
 Leave Link  301 at Sun Oct 13 09:51:17 2024, MaxMem=  2684354560 cpu:               1.3 elap:               0.1
 (Enter /usr/local/g16_AVX//g16/l302.exe)
 NPDir=0 NMtPBC=     1 NCelOv=     1 NCel=       1 NClECP=     1 NCelD=      1
         NCelK=      1 NCelE2=     1 NClLst=     1 CellRange=     0.0.
 One-electron integrals computed using PRISM.
 NBasis=    98 RedAO= T EigKep=  1.26D-04  NBF=    98
 NBsUse=    98 1.00D-06 EigRej= -1.00D+00 NBFU=    98
 Precomputing XC quadrature grid using
 IXCGrd= 4 IRadAn=           5 IRanWt=          -1 IRanGd=           0 AccXCQ= 0.00D+00.
 Generated NRdTot=       0 NPtTot=           0 NUsed=           0 NTot=          32
 NSgBfM=    98    98    98    98    98 MxSgAt=     7 MxSgA2=     7.
 Leave Link  302 at Sun Oct 13 09:51:17 2024, MaxMem=  2684354560 cpu:               3.9 elap:               0.2
 (Enter /usr/local/g16_AVX//g16/l303.exe)
 DipDrv:  MaxL=1.
 Leave Link  303 at Sun Oct 13 09:51:17 2024, MaxMem=  2684354560 cpu:               0.7 elap:               0.1
 (Enter /usr/local/g16_AVX//g16/l401.exe)
 ExpMin= 3.60D-02 ExpMax= 2.52D+04 ExpMxC= 3.78D+03 IAcc=3 IRadAn=         5 AccDes= 0.00D+00
 Harris functional with IExCor=  402 and IRadAn=       5 diagonalized for initial guess.
 HarFok:  IExCor=  402 AccDes= 0.00D+00 IRadAn=         5 IDoV= 1 UseB2=F ITyADJ=14
 ICtDFT=  3500011 ScaDFX=  1.000000  1.000000  1.000000  1.000000
 FoFCou: FMM=F IPFlag=           0 FMFlag=      100000 FMFlg1=           0
         NFxFlg=           0 DoJE=T BraDBF=F KetDBF=T FulRan=T
         wScrn=  0.000000 ICntrl=       500 IOpCl=  0 I1Cent=   200000004 NGrid=           0
         NMat0=    1 NMatS0=      1 NMatT0=    0 NMatD0=    1 NMtDS0=    0 NMtDT0=    0
 Symmetry not used in FoFCou.
 Harris En= -593.069809787765    
 JPrj=0 DoOrth=F DoCkMO=F.
 Leave Link  401 at Sun Oct 13 09:51:17 2024, MaxMem=  2684354560 cpu:               5.7 elap:               0.3
 (Enter /usr/local/g16_AVX//g16/l502.exe)
 Keep R1 ints in memory in canonical form, NReq=35752935.
 FoFCou: FMM=F IPFlag=           0 FMFlag=           0 FMFlg1=           0
         NFxFlg=           0 DoJE=F BraDBF=F KetDBF=F FulRan=T
         wScrn=  0.000000 ICntrl=       600 IOpCl=  0 I1Cent=           0 NGrid=           0
         NMat0=    1 NMatS0=   4851 NMatT0=    0 NMatD0=    1 NMtDS0=    0 NMtDT0=    0
 Symmetry not used in FoFCou.
 Two-electron integral symmetry not used.
 Closed shell SCF:
 Using DIIS extrapolation, IDIIS=  1040.
 NGot=  2684354560 LenX=  2672563405 LenY=  2672553360
 Requested convergence on RMS density matrix=1.00D-08 within 128 cycles.
 Requested convergence on MAX density matrix=1.00D-06.
 Requested convergence on             energy=1.00D-06.
 No special actions if energy rises.

 Cycle   1  Pass 1  IDiag  1:
 E= -592.837056116576    
 DIIS: error= 3.46D-02 at cycle   1 NSaved=   1.
 NSaved= 1 IEnMin= 1 EnMin= -592.837056116576     IErMin= 1 ErrMin= 3.46D-02
 ErrMax= 3.46D-02  0.00D+00 EMaxC= 1.00D-01 BMatC= 1.31D-01 BMatP= 1.31D-01
 IDIUse=3 WtCom= 6.54D-01 WtEn= 3.46D-01
 Coeff-Com:  0.100D+01
 Coeff-En:   0.100D+01
 Coeff:      0.100D+01
 Gap=     0.394 Goal=   None    Shift=    0.000
 GapD=    0.394 DampG=1.000 DampE=0.500 DampFc=0.5000 IDamp=-1.
 Damping current iteration by 5.00D-01
 RMSDP=8.52D-02 MaxDP=2.98D+00              OVMax= 3.91D-01

 Cycle   2  Pass 1  IDiag  1:
 E= -592.871787221487     Delta-E=       -0.034731104911 Rises=F Damp=T
 DIIS: error= 1.12D-02 at cycle   2 NSaved=   2.
 NSaved= 2 IEnMin= 2 EnMin= -592.871787221487     IErMin= 2 ErrMin= 1.12D-02
 ErrMax= 1.12D-02  0.00D+00 EMaxC= 1.00D-01 BMatC= 1.71D-02 BMatP= 1.31D-01
 IDIUse=3 WtCom= 8.88D-01 WtEn= 1.12D-01
 Coeff-Com:  0.199D+00 0.801D+00
 Coeff-En:   0.378D+00 0.622D+00
 Coeff:      0.219D+00 0.781D+00
 Gap=     0.196 Goal=   None    Shift=    0.000
 RMSDP=4.17D-02 MaxDP=1.50D+00 DE=-3.47D-02 OVMax= 2.88D-01

 Cycle   3  Pass 1  IDiag  1:
 E= -592.979291819322     Delta-E=       -0.107504597835 Rises=F Damp=F
 DIIS: error= 1.63D-02 at cycle   3 NSaved=   3.
 NSaved= 3 IEnMin= 3 EnMin= -592.979291819322     IErMin= 2 ErrMin= 1.12D-02
 ErrMax= 1.63D-02  0.00D+00 EMaxC= 1.00D-01 BMatC= 1.32D-02 BMatP= 1.71D-02
 IDIUse=3 WtCom= 8.37D-01 WtEn= 1.63D-01
 Coeff-Com:  0.611D-01 0.470D+00 0.469D+00
 Coeff-En:   0.000D+00 0.000D+00 0.100D+01
 Coeff:      0.511D-01 0.393D+00 0.555D+00
 Gap=     0.199 Goal=   None    Shift=    0.000
 RMSDP=1.90D-03 MaxDP=3.77D-02 DE=-1.08D-01 OVMax= 6.61D-02

 Cycle   4  Pass 1  IDiag  1:
 E= -592.983824470009     Delta-E=       -0.004532650687 Rises=F Damp=F
 DIIS: error= 1.40D-02 at cycle   4 NSaved=   4.
 NSaved= 4 IEnMin= 4 EnMin= -592.983824470009     IErMin= 2 ErrMin= 1.12D-02
 ErrMax= 1.40D-02  0.00D+00 EMaxC= 1.00D-01 BMatC= 8.62D-03 BMatP= 1.32D-02
 IDIUse=3 WtCom= 8.60D-01 WtEn= 1.40D-01
 Coeff-Com: -0.133D-01 0.990D-01 0.441D+00 0.473D+00
 Coeff-En:   0.000D+00 0.000D+00 0.414D+00 0.586D+00
 Coeff:     -0.114D-01 0.852D-01 0.437D+00 0.489D+00
 Gap=     0.185 Goal=   None    Shift=    0.000
 RMSDP=1.17D-03 MaxDP=1.72D-02 DE=-4.53D-03 OVMax= 3.36D-02

 Cycle   5  Pass 1  IDiag  1:
 E= -592.991402674643     Delta-E=       -0.007578204635 Rises=F Damp=F
 DIIS: error= 2.38D-03 at cycle   5 NSaved=   5.
 NSaved= 5 IEnMin= 5 EnMin= -592.991402674643     IErMin= 5 ErrMin= 2.38D-03
 ErrMax= 2.38D-03  0.00D+00 EMaxC= 1.00D-01 BMatC= 3.66D-04 BMatP= 8.62D-03
 IDIUse=3 WtCom= 9.76D-01 WtEn= 2.38D-02
 Coeff-Com: -0.104D-01 0.272D-01 0.202D+00 0.274D+00 0.507D+00
 Coeff-En:   0.000D+00 0.000D+00 0.000D+00 0.000D+00 0.100D+01
 Coeff:     -0.102D-01 0.266D-01 0.197D+00 0.268D+00 0.519D+00
 Gap=     0.189 Goal=   None    Shift=    0.000
 RMSDP=4.63D-04 MaxDP=7.24D-03 DE=-7.58D-03 OVMax= 9.59D-03

 Cycle   6  Pass 1  IDiag  1:
 E= -592.991797177652     Delta-E=       -0.000394503009 Rises=F Damp=F
 DIIS: error= 3.87D-04 at cycle   6 NSaved=   6.
 NSaved= 6 IEnMin= 6 EnMin= -592.991797177652     IErMin= 6 ErrMin= 3.87D-04
 ErrMax= 3.87D-04  0.00D+00 EMaxC= 1.00D-01 BMatC= 1.45D-05 BMatP= 3.66D-04
 IDIUse=3 WtCom= 9.96D-01 WtEn= 3.87D-03
 Coeff-Com: -0.338D-02 0.125D-02 0.553D-01 0.817D-01 0.238D+00 0.627D+00
 Coeff-En:   0.000D+00 0.000D+00 0.000D+00 0.000D+00 0.000D+00 0.100D+01
 Coeff:     -0.337D-02 0.124D-02 0.551D-01 0.814D-01 0.237D+00 0.628D+00
 Gap=     0.188 Goal=   None    Shift=    0.000
 RMSDP=7.88D-05 MaxDP=1.70D-03 DE=-3.95D-04 OVMax= 1.35D-03

 Cycle   7  Pass 1  IDiag  1:
 E= -592.991812004267     Delta-E=       -0.000014826615 Rises=F Damp=F
 DIIS: error= 6.23D-05 at cycle   7 NSaved=   7.
 NSaved= 7 IEnMin= 7 EnMin= -592.991812004267     IErMin= 7 ErrMin= 6.23D-05
 ErrMax= 6.23D-05  0.00D+00 EMaxC= 1.00D-01 BMatC= 4.19D-07 BMatP= 1.45D-05
 IDIUse=1 WtCom= 1.00D+00 WtEn= 0.00D+00
 Coeff-Com: -0.974D-04-0.105D-02 0.367D-02 0.520D-02 0.359D-01 0.201D+00
 Coeff-Com:  0.755D+00
 Coeff:     -0.974D-04-0.105D-02 0.367D-02 0.520D-02 0.359D-01 0.201D+00
 Coeff:      0.755D+00
 Gap=     0.189 Goal=   None    Shift=    0.000
 RMSDP=2.47D-05 MaxDP=4.33D-04 DE=-1.48D-05 OVMax= 3.99D-04

 Cycle   8  Pass 1  IDiag  1:
 E= -592.991812480304     Delta-E=       -0.000000476036 Rises=F Damp=F
 DIIS: error= 1.81D-05 at cycle   8 NSaved=   8.
 NSaved= 8 IEnMin= 8 EnMin= -592.991812480304     IErMin= 8 ErrMin= 1.81D-05
 ErrMax= 1.81D-05  0.00D+00 EMaxC= 1.00D-01 BMatC= 4.45D-08 BMatP= 4.19D-07
 IDIUse=1 WtCom= 1.00D+00 WtEn= 0.00D+00
 Coeff-Com:  0.227D-03-0.709D-03-0.157D-02-0.222D-02 0.278D-02 0.510D-01
 Coeff-Com:  0.319D+00 0.631D+00
 Coeff:      0.227D-03-0.709D-03-0.157D-02-0.222D-02 0.278D-02 0.510D-01
 Coeff:      0.319D+00 0.631D+00
 Gap=     0.189 Goal=   None    Shift=    0.000
 RMSDP=4.18D-06 MaxDP=1.07D-04 DE=-4.76D-07 OVMax= 7.86D-05

 Cycle   9  Pass 1  IDiag  1:
 E= -592.991812530919     Delta-E=       -0.000000050616 Rises=F Damp=F
 DIIS: error= 3.15D-06 at cycle   9 NSaved=   9.
 NSaved= 9 IEnMin= 9 EnMin= -592.991812530919     IErMin= 9 ErrMin= 3.15D-06
 ErrMax= 3.15D-06  0.00D+00 EMaxC= 1.00D-01 BMatC= 1.35D-09 BMatP= 4.45D-08
 IDIUse=1 WtCom= 1.00D+00 WtEn= 0.00D+00
 Coeff-Com:  0.737D-04-0.133D-03-0.498D-03-0.643D-03-0.892D-03 0.218D-02
 Coeff-Com:  0.402D-01 0.193D+00 0.766D+00
 Coeff:      0.737D-04-0.133D-03-0.498D-03-0.643D-03-0.892D-03 0.218D-02
 Coeff:      0.402D-01 0.193D+00 0.766D+00
 Gap=     0.189 Goal=   None    Shift=    0.000
 RMSDP=1.36D-06 MaxDP=3.04D-05 DE=-5.06D-08 OVMax= 1.00D-05

 Cycle  10  Pass 1  IDiag  1:
 E= -592.991812532460     Delta-E=       -0.000000001541 Rises=F Damp=F
 DIIS: error= 4.36D-07 at cycle  10 NSaved=  10.
 NSaved=10 IEnMin=10 EnMin= -592.991812532460     IErMin=10 ErrMin= 4.36D-07
 ErrMax= 4.36D-07  0.00D+00 EMaxC= 1.00D-01 BMatC= 1.38D-11 BMatP= 1.35D-09
 IDIUse=1 WtCom= 1.00D+00 WtEn= 0.00D+00
 Coeff-Com:  0.387D-05 0.128D-05-0.287D-04-0.270D-04-0.174D-03-0.920D-03
 Coeff-Com: -0.504D-02 0.130D-01 0.968D-01 0.896D+00
 Coeff:      0.387D-05 0.128D-05-0.287D-04-0.270D-04-0.174D-03-0.920D-03
 Coeff:     -0.504D-02 0.130D-01 0.968D-01 0.896D+00
 Gap=     0.189 Goal=   None    Shift=    0.000
 RMSDP=1.16D-07 MaxDP=2.91D-06 DE=-1.54D-09 OVMax= 2.20D-06

 Cycle  11  Pass 1  IDiag  1:
 E= -592.991812532478     Delta-E=       -0.000000000018 Rises=F Damp=F
 DIIS: error= 7.99D-08 at cycle  11 NSaved=  11.
 NSaved=11 IEnMin=11 EnMin= -592.991812532478     IErMin=11 ErrMin= 7.99D-08
 ErrMax= 7.99D-08  0.00D+00 EMaxC= 1.00D-01 BMatC= 3.89D-13 BMatP= 1.38D-11
 IDIUse=1 WtCom= 1.00D+00 WtEn= 0.00D+00
 Coeff-Com: -0.787D-06 0.180D-05-0.202D-05 0.256D-06-0.201D-04-0.876D-04
 Coeff-Com: -0.746D-03-0.515D-03 0.394D-02 0.104D+00 0.893D+00
 Coeff:     -0.787D-06 0.180D-05-0.202D-05 0.256D-06-0.201D-04-0.876D-04
 Coeff:     -0.746D-03-0.515D-03 0.394D-02 0.104D+00 0.893D+00
 Gap=     0.189 Goal=   None    Shift=    0.000
 RMSDP=1.33D-08 MaxDP=2.04D-07 DE=-1.76D-11 OVMax= 2.09D-07

 Cycle  12  Pass 1  IDiag  1:
 E= -592.991812532479     Delta-E=       -0.000000000002 Rises=F Damp=F
 DIIS: error= 8.67D-09 at cycle  12 NSaved=  12.
 NSaved=12 IEnMin=12 EnMin= -592.991812532479     IErMin=12 ErrMin= 8.67D-09
 ErrMax= 8.67D-09  0.00D+00 EMaxC= 1.00D-01 BMatC= 7.94D-15 BMatP= 3.89D-13
 IDIUse=1 WtCom= 1.00D+00 WtEn= 0.00D+00
 Coeff-Com: -0.253D-06 0.312D-06-0.570D-06-0.493D-06-0.137D-05-0.578D-06
 Coeff-Com:  0.372D-05-0.384D-03-0.103D-02 0.117D-02 0.160D+00 0.841D+00
 Coeff:     -0.253D-06 0.312D-06-0.570D-06-0.493D-06-0.137D-05-0.578D-06
 Coeff:      0.372D-05-0.384D-03-0.103D-02 0.117D-02 0.160D+00 0.841D+00
 Gap=     0.189 Goal=   None    Shift=    0.000
 RMSDP=4.47D-09 MaxDP=7.88D-08 DE=-1.59D-12 OVMax= 5.73D-08

 SCF Done:  E(RB3LYP) =  -592.991812532     A.U. after   12 cycles
            NFock= 12  Conv=0.45D-08     -V/T= 2.0046
 KE= 5.903005529653D+02 PE=-1.630791585055D+03 EE= 3.370518381442D+02
 Leave Link  502 at Sun Oct 13 09:51:19 2024, MaxMem=  2684354560 cpu:              35.3 elap:               1.6
 (Enter /usr/local/g16_AVX//g16/l801.exe)
 DoSCS=F DFT=T ScalE2(SS,OS)=  1.000000  1.000000
 Range of M.O.s used for correlation:     1    98
 NBasis=    98 NAE=    20 NBE=    20 NFC=     0 NFV=     0
 NROrb=     98 NOA=    20 NOB=    20 NVA=    78 NVB=    78

 **** Warning!!: The largest alpha MO coefficient is  0.32775760D+02

 Leave Link  801 at Sun Oct 13 09:51:19 2024, MaxMem=  2684354560 cpu:               0.6 elap:               0.0
 (Enter /usr/local/g16_AVX//g16/l1101.exe)
 Using compressed storage, NAtomX=     7.
 Will process      8 centers per pass.
 Leave Link 1101 at Sun Oct 13 09:51:19 2024, MaxMem=  2684354560 cpu:               3.5 elap:               0.2
 (Enter /usr/local/g16_AVX//g16/l1102.exe)
 Symmetrizing basis deriv contribution to polar:
 IMax=3 JMax=2 DiffMx= 0.00D+00
 Leave Link 1102 at Sun Oct 13 09:51:19 2024, MaxMem=  2684354560 cpu:               0.7 elap:               0.1
 (Enter /usr/local/g16_AVX//g16/l1110.exe)
 Forming Gx(P) for the SCF density, NAtomX=     7.
 Integral derivatives from FoFJK, PRISM(SPDF).
 Do as many integral derivatives as possible in FoFJK.
 G2DrvN: MDV=    2684353864.
 G2DrvN: will do     8 centers at a time, making    1 passes.
 Calling FoFCou, ICntrl=  3107 FMM=F I1Cent=   0 AccDes= 0.00D+00.
 FoFJK:  IHMeth= 1 ICntrl=    3107 DoSepK=F KAlg= 0 I1Cent=           0 FoldK=F
 IRaf=         0 NMat=       1 IRICut=       1 DoRegI=T DoRafI=F ISym2E= 0 IDoP0=0 IntGTp=1.
 FoFCou: FMM=F IPFlag=           0 FMFlag=      100000 FMFlg1=           0
         NFxFlg=           0 DoJE=F BraDBF=F KetDBF=F FulRan=T
         wScrn=  0.000000 ICntrl=      3107 IOpCl=  0 I1Cent=           0 NGrid=           0
         NMat0=    1 NMatS0=      1 NMatT0=    0 NMatD0=    1 NMtDS0=    0 NMtDT0=    0
 Symmetry not used in FoFCou.
 End of G2Drv F.D. properties file   721 does not exist.
 End of G2Drv F.D. properties file   722 does not exist.
 End of G2Drv F.D. properties file   788 does not exist.
 Leave Link 1110 at Sun Oct 13 09:51:21 2024, MaxMem=  2684354560 cpu:              38.2 elap:               1.5
 (Enter /usr/local/g16_AVX//g16/l1002.exe)
 Minotr:  Closed shell wavefunction.
          IDoAtm=1111111
          Direct CPHF calculation.
          Differentiating once with respect to electric field.
                with respect to dipole field.
          Differentiating once with respect to nuclear coordinates.
          Requested convergence is 1.0D-08 RMS, and 1.0D-07 maximum.
          Secondary convergence is 1.0D-12 RMS, and 1.0D-12 maximum.
          NewPWx=T KeepS1=F KeepF1=F KeepIn=T MapXYZ=F SortEE=F KeepMc=T.
         2136 words used for storage of precomputed grid.
 Keep R1 ints in memory in canonical form, NReq=35668397.
 FoFCou: FMM=F IPFlag=           0 FMFlag=           0 FMFlg1=           0
         NFxFlg=           0 DoJE=F BraDBF=F KetDBF=F FulRan=T
         wScrn=  0.000000 ICntrl=       600 IOpCl=  0 I1Cent=           0 NGrid=           0
         NMat0=    1 NMatS0=   4851 NMatT0=    0 NMatD0=    1 NMtDS0=    0 NMtDT0=    0
 Symmetry not used in FoFCou.
 Two-electron integral symmetry not used.
          MDV=    2684354560 using IRadAn=       1.
          Solving linear equations simultaneously, MaxMat=       0.
          There are    24 degrees of freedom in the 1st order CPHF.  IDoFFX=6 NUNeed=     3.
     21 vectors produced by pass  0 Test12= 6.50D-15 4.17D-09 XBig12= 1.03D+02 5.76D+00.
 AX will form    21 AO Fock derivatives at one time.
     21 vectors produced by pass  1 Test12= 6.50D-15 4.17D-09 XBig12= 4.29D+01 1.82D+00.
     21 vectors produced by pass  2 Test12= 6.50D-15 4.17D-09 XBig12= 8.52D-01 2.37D-01.
     21 vectors produced by pass  3 Test12= 6.50D-15 4.17D-09 XBig12= 1.33D-02 2.56D-02.
     21 vectors produced by pass  4 Test12= 6.50D-15 4.17D-09 XBig12= 4.97D-05 1.61D-03.
     16 vectors produced by pass  5 Test12= 6.50D-15 4.17D-09 XBig12= 1.28D-07 7.13D-05.
      6 vectors produced by pass  6 Test12= 6.50D-15 4.17D-09 XBig12= 1.24D-10 2.59D-06.
      1 vectors produced by pass  7 Test12= 6.50D-15 4.17D-09 XBig12= 8.59D-14 5.23D-08.
 InvSVY:  IOpt=1 It=  1 EMax= 7.11D-15
 Solved reduced A of dimension   128 with    24 vectors.
 FullF1:  Do perturbations      1 to       3.
 Isotropic polarizability for W=    0.000000       60.10 Bohr**3.
 End of Minotr F.D. properties file   721 does not exist.
 End of Minotr F.D. properties file   722 does not exist.
 End of Minotr F.D. properties file   788 does not exist.
 Leave Link 1002 at Sun Oct 13 09:51:23 2024, MaxMem=  2684354560 cpu:              52.2 elap:               2.1
 (Enter /usr/local/g16_AVX//g16/l601.exe)
 Copying SCF densities to generalized density rwf, IOpCl= 0 IROHF=0.

 **********************************************************************

            Population analysis using the SCF Density.

 **********************************************************************

 Alpha  occ. eigenvalues -- -101.39111 -14.10316 -10.10011  -9.96810  -9.30679
 Alpha  occ. eigenvalues --   -7.06931  -7.06177  -7.06177  -0.68544  -0.65731
 Alpha  occ. eigenvalues --   -0.53722  -0.30097  -0.30095  -0.25403  -0.18818
 Alpha  occ. eigenvalues --   -0.16366  -0.16365  -0.10584  -0.10584  -0.07650
 Alpha virt. eigenvalues --    0.11224   0.12950   0.14779   0.14779   0.16761
 Alpha virt. eigenvalues --    0.19792   0.20613   0.20614   0.22175   0.22177
 Alpha virt. eigenvalues --    0.24638   0.25068   0.25068   0.26896   0.26991
 Alpha virt. eigenvalues --    0.26991   0.31405   0.34168   0.34171   0.36862
 Alpha virt. eigenvalues --    0.38335   0.38394   0.38394   0.46640   0.47916
 Alpha virt. eigenvalues --    0.69112   0.74875   0.75377   0.75377   0.78438
 Alpha virt. eigenvalues --    0.78439   0.88521   0.89114   0.89115   0.98934
 Alpha virt. eigenvalues --    1.01341   1.01342   1.05902   1.06233   1.06236
 Alpha virt. eigenvalues --    1.09701   1.09705   1.12197   1.18664   1.18664
 Alpha virt. eigenvalues --    1.25953   1.31132   1.35819   1.49508   1.60159
 Alpha virt. eigenvalues --    1.60163   1.77267   1.77267   1.79618   1.79618
 Alpha virt. eigenvalues --    1.81313   2.15131   2.19387   2.19388   2.20389
 Alpha virt. eigenvalues --    2.20399   2.23429   2.52798   2.52808   2.63920
 Alpha virt. eigenvalues --    2.82723   2.82723   2.84368   2.96189   2.96202
 Alpha virt. eigenvalues --    3.26308   3.40944   3.56319   3.56329   4.21335
 Alpha virt. eigenvalues --    4.44774   4.46575   4.56093
          Condensed to atoms (all electrons):
               1          2          3          4          5          6
     1  C    5.493211  -0.157656   0.426106   0.426113   0.426115  -0.219197
     2  Cl  -0.157656  17.493916  -0.051022  -0.050967  -0.050964   0.103203
     3  H    0.426106  -0.051022   0.503852  -0.022651  -0.022651  -0.044011
     4  H    0.426113  -0.050967  -0.022651   0.503793  -0.022618  -0.044077
     5  H    0.426115  -0.050964  -0.022651  -0.022618   0.503791  -0.044081
     6  C   -0.219197   0.103203  -0.044011  -0.044077  -0.044081   5.995082
     7  N   -0.007952  -0.003815  -0.000643  -0.000641  -0.000641   0.684956
               7
     1  C   -0.007952
     2  Cl  -0.003815
     3  H   -0.000643
     4  H   -0.000641
     5  H   -0.000641
     6  C    0.684956
     7  N    6.860543
 Mulliken charges:
               1
     1  C   -0.386740
     2  Cl  -0.282695
     3  H    0.211020
     4  H    0.211047
     5  H    0.211050
     6  C   -0.431874
     7  N   -0.531807
 Sum of Mulliken charges =  -1.00000
 Mulliken charges with hydrogens summed into heavy atoms:
               1
     1  C    0.246377
     2  Cl  -0.282695
     6  C   -0.431874
     7  N   -0.531807
 APT charges:
               1
     1  C    0.844044
     2  Cl  -0.813529
     3  H    0.006298
     4  H    0.006359
     5  H    0.006362
     6  C   -0.411886
     7  N   -0.637648
 Sum of APT charges =  -1.00000
 APT charges with hydrogens summed into heavy atoms:
               1
     1  C    0.863063
     2  Cl  -0.813529
     6  C   -0.411886
     7  N   -0.637648
 Electronic spatial extent (au):  <R**2>=            851.2404
 Charge=             -1.0000 electrons
 Dipole moment (field-independent basis, Debye):
    X=             -8.4195    Y=              0.0000    Z=             -0.0005  Tot=              8.4195
 Quadrupole moment (field-independent basis, Debye-Ang):
   XX=            -88.1779   YY=            -35.3863   ZZ=            -35.3870
   XY=              0.0000   XZ=             -0.0012   YZ=              0.0000
 Traceless Quadrupole moment (field-independent basis, Debye-Ang):
   XX=            -35.1942   YY=             17.5975   ZZ=             17.5967
   XY=              0.0000   XZ=             -0.0012   YZ=              0.0000
 Octapole moment (field-independent basis, Debye-Ang**2):
  XXX=           -164.6339  YYY=             -0.0065  ZZZ=             -0.9283  XYY=            -10.3358
  XXY=              0.0003  XXZ=             -0.0086  XZZ=            -10.3364  YZZ=              0.0064
  YYZ=              0.9299  XYZ=             -0.0000
 Hexadecapole moment (field-independent basis, Debye-Ang**3):
 XXXX=          -1806.0830 YYYY=            -55.8219 ZZZZ=            -55.8211 XXXY=              0.0017
 XXXZ=             -0.0482 YYYX=             -0.0005 YYYZ=              0.0000 ZZZX=             -0.1307
 ZZZY=             -0.0000 XXYY=           -219.0079 XXZZ=           -219.0080 YYZZ=            -18.6080
 XXYZ=             -0.0000 YYXZ=              0.1230 ZZXY=              0.0010
 N-N= 1.104473814130D+02 E-N=-1.630791584040D+03  KE= 5.903005529653D+02
  Exact polarizability: 101.699  -0.000  39.306   0.003   0.000  39.306
 Approx polarizability: 126.316  -0.000  49.308   0.006   0.000  49.307
 No NMR shielding tensors so no spin-rotation constants.
 Leave Link  601 at Sun Oct 13 09:51:23 2024, MaxMem=  2684354560 cpu:               2.6 elap:               0.1
 (Enter /usr/local/g16_AVX//g16/l701.exe)
 ... and contract with generalized density number  0.
 Compute integral second derivatives.
 Leave Link  701 at Sun Oct 13 09:51:23 2024, MaxMem=  2684354560 cpu:               4.5 elap:               0.2
 (Enter /usr/local/g16_AVX//g16/l702.exe)
 L702 exits ... SP integral derivatives will be done elsewhere.
 Leave Link  702 at Sun Oct 13 09:51:23 2024, MaxMem=  2684354560 cpu:               0.6 elap:               0.0
 (Enter /usr/local/g16_AVX//g16/l703.exe)
 Integral derivatives from FoFJK, PRISM(SPDF).
 Compute integral second derivatives, UseDBF=F ICtDFT=           0.
 Calling FoFJK, ICntrl=    100127 FMM=F ISym2X=0 I1Cent= 0 IOpClX= 0 NMat=1 NMatS=1 NMatT=0.
 FoFJK:  IHMeth= 1 ICntrl=  100127 DoSepK=F KAlg= 0 I1Cent=           0 FoldK=F
 IRaf=         0 NMat=       1 IRICut=       1 DoRegI=T DoRafI=F ISym2E= 0 IDoP0=0 IntGTp=1.
 FoFCou: FMM=F IPFlag=           0 FMFlag=      100000 FMFlg1=         800
         NFxFlg=           0 DoJE=F BraDBF=F KetDBF=F FulRan=T
         wScrn=  0.000000 ICntrl=    100127 IOpCl=  0 I1Cent=           0 NGrid=           0
         NMat0=    1 NMatS0=      1 NMatT0=    0 NMatD0=    1 NMtDS0=    0 NMtDT0=    0
 Symmetry not used in FoFCou.
 Leave Link  703 at Sun Oct 13 09:51:26 2024, MaxMem=  2684354560 cpu:              65.7 elap:               2.6
 (Enter /usr/local/g16_AVX//g16/l716.exe)
 Dipole        =-3.31247607D+00 6.57725812D-06-2.05501428D-04
 Polarizability= 1.01699378D+02-1.28122369D-04 3.93061307D+01
                 3.48780707D-03 3.20533852D-06 3.93063002D+01
 Full mass-weighted force constant matrix:
 Low frequencies ---  -91.8976  -91.8947  -34.4163  -34.4116   -0.0050   -0.0028
 Low frequencies ---    0.0021  112.4423  172.4078
 ******    2 imaginary frequencies (negative Signs) ****** 
 Diagonal vibrational polarizability:
      223.6909571      10.4568632      10.4605632
 Harmonic frequencies (cm**-1), IR intensities (KM/Mole), Raman scattering
 activities (A**4/AMU), depolarization ratios for plane and unpolarized
 incident light, reduced masses (AMU), force constants (mDyne/A),
 and normal coordinates:
                      1                      2                      3
                      A                      A                      A
 Frequencies --    -91.6702               -91.6678               172.4078
 Red. masses --     10.0678                10.0659                11.5017
 Frc consts  --      0.0498                 0.0498                 0.2014
 IR Inten    --      0.1025                 0.1027               167.2420
  Atom  AN      X      Y      Z        X      Y      Z        X      Y      Z
     1   6     0.00   0.21  -0.02    -0.00   0.02   0.21    -0.44   0.00  -0.00
     2  17     0.00  -0.11   0.01    -0.00  -0.01  -0.11    -0.22  -0.00   0.00
     3   1    -0.02   0.26  -0.02     0.17   0.02   0.26    -0.26   0.00   0.03
     4   1    -0.14   0.26  -0.03    -0.10   0.02   0.26    -0.25  -0.03  -0.02
     5   1     0.16   0.26  -0.02    -0.07   0.03   0.26    -0.25   0.03  -0.02
     6   6     0.00   0.64  -0.05    -0.00   0.05   0.64     0.52  -0.00   0.00
     7   7    -0.00  -0.52   0.04     0.00  -0.04  -0.52     0.53  -0.00   0.00
                      4                      5                      6
                      A                      A                      A
 Frequencies --    183.5708               183.5992               394.4002
 Red. masses --      3.9145                 3.9143                12.7334
 Frc consts  --      0.0777                 0.0777                 1.1670
 IR Inten    --     12.5889                12.5832               412.6218
  Atom  AN      X      Y      Z        X      Y      Z        X      Y      Z
     1   6    -0.00  -0.01   0.42     0.00   0.42   0.01     0.78   0.00  -0.00
     2  17    -0.00   0.00  -0.10     0.00  -0.10  -0.00    -0.37  -0.00   0.00
     3   1     0.22  -0.01   0.49     0.00   0.47   0.01     0.24   0.00  -0.13
     4   1    -0.11  -0.00   0.47    -0.19   0.48   0.02     0.24   0.11   0.06
     5   1    -0.11  -0.02   0.47     0.19   0.48   0.00     0.24  -0.11   0.06
     6   6     0.00   0.01  -0.24    -0.00  -0.24  -0.01     0.11  -0.00   0.00
     7   7     0.00   0.00  -0.00    -0.00  -0.00  -0.00     0.11  -0.00   0.00
                      7                      8                      9
                      A                      A                      A
 Frequencies --    999.3986               999.4281              1235.7426
 Red. masses --      1.1015                 1.1015                 1.0700
 Frc consts  --      0.6482                 0.6482                 0.9627
 IR Inten    --      0.0558                 0.0556                45.3990
  Atom  AN      X      Y      Z        X      Y      Z        X      Y      Z
     1   6    -0.00   0.01  -0.09     0.00   0.09   0.01    -0.06  -0.00   0.00
     2  17     0.00  -0.00   0.02    -0.00  -0.02  -0.00    -0.02  -0.00   0.00
     3   1     0.77  -0.03   0.12    -0.11  -0.19  -0.02     0.56  -0.00   0.14
     4   1    -0.29  -0.05   0.18     0.73  -0.13   0.01     0.56  -0.13  -0.07
     5   1    -0.49   0.01   0.17    -0.61  -0.14  -0.06     0.56   0.13  -0.07
     6   6     0.00   0.00  -0.01    -0.00   0.01   0.00    -0.00  -0.00   0.00
     7   7     0.00  -0.00   0.00    -0.00  -0.00  -0.00    -0.01   0.00  -0.00
                     10                     11                     12
                      A                      A                      A
 Frequencies --   1442.0174              1442.1147              2168.1808
 Red. masses --      1.0729                 1.0729                12.8012
 Frc consts  --      1.3144                 1.3146                35.4562
 IR Inten    --      6.2914                 6.2876                11.9098
  Atom  AN      X      Y      Z        X      Y      Z        X      Y      Z
     1   6    -0.00   0.00  -0.08     0.00  -0.08  -0.00    -0.00   0.00  -0.00
     2  17    -0.00   0.00  -0.00    -0.00  -0.00  -0.00    -0.00   0.00   0.00
     3   1    -0.24  -0.00  -0.12    -0.00   0.77   0.00    -0.03   0.00  -0.01
     4   1     0.12  -0.39   0.55     0.21   0.10  -0.38    -0.03   0.01   0.00
     5   1     0.12   0.38   0.55    -0.20   0.10   0.39    -0.03  -0.01   0.00
     6   6     0.00   0.00  -0.00    -0.00  -0.00  -0.00     0.76  -0.00   0.00
     7   7    -0.00  -0.00   0.00     0.00   0.00   0.00    -0.64   0.00  -0.00
                     13                     14                     15
                      A                      A                      A
 Frequencies --   3151.8743              3302.1722              3302.2772
 Red. masses --      1.0195                 1.1155                 1.1155
 Frc consts  --      5.9673                 7.1667                 7.1670
 IR Inten    --      6.9158                 0.0122                 0.0116
  Atom  AN      X      Y      Z        X      Y      Z        X      Y      Z
     1   6     0.03  -0.00   0.00    -0.00  -0.10   0.01     0.00  -0.01  -0.10
     2  17    -0.00   0.00  -0.00    -0.00   0.00  -0.00     0.00   0.00   0.00
     3   1    -0.13  -0.00   0.56     0.01  -0.02  -0.05    -0.20  -0.00   0.79
     4   1    -0.13  -0.49  -0.28     0.17   0.56   0.34     0.11   0.38   0.20
     5   1    -0.13   0.49  -0.28    -0.18   0.61  -0.36     0.09  -0.31   0.16
     6   6     0.00   0.00  -0.00    -0.00   0.00  -0.00    -0.00   0.00   0.00
     7   7     0.00  -0.00   0.00    -0.00  -0.00   0.00     0.00  -0.00  -0.00

 -------------------
 - Thermochemistry -
 -------------------
 Temperature   298.150 Kelvin.  Pressure   1.00000 Atm.
 Atom     1 has atomic number  6 and mass  12.00000
 Atom     2 has atomic number 17 and mass  34.96885
 Atom     3 has atomic number  1 and mass   1.00783
 Atom     4 has atomic number  1 and mass   1.00783
 Atom     5 has atomic number  1 and mass   1.00783
 Atom     6 has atomic number  6 and mass  12.00000
 Atom     7 has atomic number  7 and mass  14.00307
 Molecular mass:    75.99540 amu.
 Principal axes and moments of inertia in atomic units:
                           1         2         3
     Eigenvalues --    11.773241464.933291464.93474
           X            1.00000   0.00000  -0.00001
           Y           -0.00000   0.99996  -0.00868
           Z            0.00001   0.00868   0.99996
 This molecule is an asymmetric top.
 Rotational symmetry number  1.
 Rotational temperatures (Kelvin)      7.35685     0.05912     0.05912
 Rotational constants (GHZ):         153.29182     1.23196     1.23196
    2 imaginary frequencies ignored.
 Zero-point vibrational energy     113508.8 (Joules/Mol)
                                   27.12925 (Kcal/Mol)
 Warning -- explicit consideration of   4 degrees of freedom as
           vibrations may cause significant error
 Vibrational temperatures:    248.06   264.12   264.16   567.45  1437.91
          (Kelvin)           1437.95  1777.96  2074.74  2074.88  3119.53
                             4534.84  4751.09  4751.24
 
 Zero-point correction=                           0.043233 (Hartree/Particle)
 Thermal correction to Energy=                    0.048261
 Thermal correction to Enthalpy=                  0.049205
 Thermal correction to Gibbs Free Energy=         0.015058
 Sum of electronic and zero-point Energies=           -592.948579
 Sum of electronic and thermal Energies=              -592.943552
 Sum of electronic and thermal Enthalpies=            -592.942608
 Sum of electronic and thermal Free Energies=         -592.976754
 
                     E (Thermal)             CV                S
                      KCal/Mol        Cal/Mol-Kelvin    Cal/Mol-Kelvin
 Total                   30.284             14.173             71.868
 Electronic               0.000              0.000              0.000
 Translational            0.889              2.981             38.900
 Rotational               0.889              2.981             24.739
 Vibrational             28.507              8.211              8.230
 Vibration     1          0.626              1.876              2.409
 Vibration     2          0.631              1.862              2.292
 Vibration     3          0.631              1.862              2.291
 Vibration     4          0.761              1.482              0.983
                       Q            Log10(Q)             Ln(Q)
 Total Bot       0.118518D-06         -6.926214        -15.948198
 Total V=0       0.911302D+13         12.959662         29.840726
 Vib (Bot)       0.799906D-19        -19.096961        -43.972377
 Vib (Bot)    1  0.116797D+01          0.067430          0.155264
 Vib (Bot)    2  0.109277D+01          0.038529          0.088717
 Vib (Bot)    3  0.109259D+01          0.038458          0.088552
 Vib (Bot)    4  0.453761D+00         -0.343172         -0.790184
 Vib (V=0)       0.615058D+01          0.788916          1.816546
 Vib (V=0)    1  0.177049D+01          0.248093          0.571256
 Vib (V=0)    2  0.170173D+01          0.230890          0.531644
 Vib (V=0)    3  0.170156D+01          0.230848          0.531548
 Vib (V=0)    4  0.117520D+01          0.070113          0.161441
 Electronic      0.100000D+01          0.000000          0.000000
 Translational   0.260396D+08          7.415635         17.075130
 Rotational      0.568999D+05          4.755112         10.949049
 
                                                       RxCoord=1.79958 DE=49.52
                                                             IR Spectrum
 
      3    3                                     2                           1       1                                               
      3    1                                     1                           4       2        9                      3       11      
      0    5                                     6                           4       3        9                      9       87      
      2    2                                     8                           2       6        9                      4       42      
 
           X                                     X                           X       X        X                      X       XX      
                                                                                     X                               X        X      
                                                                                                                     X        X      
                                                                                                                     X        X      
                                                                                                                     X        X      
                                                                                                                     X        X      
                                                                                                                     X        X      
                                                                                                                     X        X      
                                                                                                                     X               
                                                                                                                     X               
                                                                                                                     X               
                                                                                                                     X               
                                                                                                                     X               
                                                                                                                     X               
                                                                                                                     X               
                                                                                                                     X               
                                                                                                                     X               
                                                                                                                     X               
                                                                                                                     X               
                                                                                                                     X               
 
 -------------------------------------------------------------------
 Center     Atomic                   Forces (Hartrees/Bohr)
 Number     Number              X              Y              Z
 -------------------------------------------------------------------
      1        6          -0.008976589   -0.000000862   -0.000012764
      2       17          -0.001539213   -0.000000452    0.000007285
      3        1           0.000295385   -0.000001942    0.000941892
      4        1           0.000278256   -0.000836849   -0.000468348
      5        1           0.000276584    0.000839985   -0.000464805
      6        6           0.003693799    0.000000190   -0.000005524
      7        7           0.005971779   -0.000000070    0.000002263
 -------------------------------------------------------------------
 Cartesian Forces:  Max     0.008976589 RMS     0.002537570
 Z-matrix is all fixed cartesians, so copy forces.
 Force constants in Cartesian coordinates: 
                1             2             3             4             5 
      1  0.132530D+00
      2 -0.412789D-05  0.629047D+00
      3  0.921522D-04  0.267052D-05  0.628989D+00
      4 -0.224308D-01  0.000000D+00  0.283423D-05  0.112987D+00
      5  0.000000D+00 -0.322344D-01  0.000000D+00  0.000000D+00  0.178899D-01
      6  0.277457D-05  0.000000D+00 -0.322297D-01 -0.200097D-04  0.000000D+00
      7 -0.413526D-01 -0.179913D-03  0.779925D-01 -0.233622D-01 -0.379430D-04
      8 -0.172620D-03 -0.503733D-01  0.676454D-03  0.139870D-04  0.451249D-03
      9  0.749411D-01  0.676342D-03 -0.343696D+00 -0.615374D-02 -0.158393D-04
     10 -0.414024D-01 -0.675443D-01 -0.391982D-01 -0.233544D-01 -0.141938D-01
     11 -0.649020D-01 -0.269743D+00 -0.127287D+00  0.532932D-02  0.559939D-02
     12 -0.376681D-01 -0.127282D+00 -0.124224D+00  0.309773D-02  0.299041D-02
     13 -0.414055D-01  0.677286D-01 -0.388896D-01 -0.233535D-01  0.142310D-01
     14  0.650792D-01 -0.270906D+00  0.126608D+00 -0.534408D-02  0.562712D-02
     15 -0.373714D-01  0.126603D+00 -0.123052D+00  0.307327D-02 -0.297459D-02
     16  0.244883D-02  0.000000D+00  0.179885D-05 -0.112660D-01  0.000000D+00
     17  0.000000D+00 -0.755998D-02  0.000000D+00  0.000000D+00  0.322201D-02
     18 -0.128102D-05  0.000000D+00 -0.755699D-02  0.459462D-05  0.000000D+00
     19  0.116128D-01  0.000000D+00 -0.143849D-05 -0.922042D-02  0.000000D+00
     20  0.000000D+00  0.176970D-02  0.000000D+00  0.000000D+00 -0.555294D-03
     21  0.477678D-05  0.000000D+00  0.176920D-02 -0.467146D-05  0.000000D+00
                6             7             8             9            10 
      6  0.178898D-01
      7  0.164218D-01  0.643941D-01
      8 -0.156281D-04  0.178928D-03  0.457777D-01
      9  0.733048D-02 -0.776010D-01 -0.710111D-03  0.353652D+00
     10 -0.823551D-02  0.310301D-02  0.598073D-02  0.404126D-02  0.644466D-01
     11  0.298715D-02 -0.476123D-03  0.276095D-02  0.296347D-02  0.672024D-01
     12  0.218541D-02 -0.721162D-02 -0.245569D-01 -0.983483D-02  0.389977D-01
     13 -0.816983D-02  0.310327D-02 -0.599920D-02  0.401389D-02  0.310369D-02
     14 -0.297155D-02  0.509530D-03  0.266089D-02 -0.290562D-02  0.648441D-02
     15  0.215791D-02 -0.720975D-02  0.246144D-01 -0.973524D-02  0.319337D-02
     16  0.000000D+00 -0.550061D-02  0.000000D+00  0.105644D-03 -0.551077D-02
     17  0.000000D+00  0.613597D-05 -0.166782D-02 -0.107705D-04  0.230065D-02
     18  0.322123D-02 -0.265758D-02 -0.108033D-04  0.299579D-02  0.133534D-02
     19  0.000000D+00 -0.384956D-03 -0.151811D-05  0.652848D-03 -0.385751D-03
     20  0.000000D+00  0.000000D+00  0.390362D-03  0.252961D-05 -0.230081D-03
     21 -0.555183D-03  0.265739D-03  0.254733D-05 -0.712063D-03 -0.133961D-03
               11            12            13            14            15 
     11  0.276021D+00
     12  0.133604D+00  0.123294D+00
     13 -0.649870D-02  0.316324D-02  0.644490D-01
     14 -0.160251D-01  0.136987D-01 -0.673856D-01  0.277242D+00
     15 -0.138137D-01  0.895992D-02  0.386904D-01 -0.132892D+00  0.122065D+00
     16 -0.904979D-04 -0.514918D-04 -0.551118D-02  0.906053D-04 -0.510434D-04
     17  0.182131D-02  0.202387D-02 -0.230676D-02  0.183991D-02 -0.201319D-02
     18  0.202465D-02 -0.493344D-03  0.132476D-02 -0.201392D-02 -0.511854D-03
     19 -0.564440D-03 -0.327433D-03 -0.385749D-03  0.565942D-03 -0.324840D-03
     20 -0.434678D-03 -0.478695D-03  0.230711D-03 -0.439099D-03  0.476174D-03
     21 -0.479059D-03  0.112428D-03 -0.132906D-03  0.476518D-03  0.116834D-03
               16            17            18            19            20 
     16  0.116766D+01
     17 -0.113503D-04  0.864406D-03
     18  0.382057D-03  0.000000D+00  0.865632D-03
     19 -0.114232D+01  0.116368D-04 -0.387895D-03  0.114109D+01
     20  0.115906D-04  0.148017D-02  0.000000D+00 -0.116337D-04 -0.221116D-02
     21 -0.386818D-03  0.000000D+00  0.147954D-02  0.387840D-03  0.000000D+00
               21 
     21 -0.221075D-02
 Leave Link  716 at Sun Oct 13 09:51:26 2024, MaxMem=  2684354560 cpu:               0.9 elap:               0.1
 (Enter /usr/local/g16_AVX//g16/l103.exe)

 GradGradGradGradGradGradGradGradGradGradGradGradGradGradGradGradGradGrad
 Berny optimization.
 Search for a local minimum.
 Step number   1 out of a maximum of    2
 All quantities printed in internal units (Hartrees-Bohrs-Radians)
 Second derivative matrix not updated -- analytic derivatives used.
 ITU=  0
     Eigenvalues ---   -0.00370  -0.00370   0.00670   0.00670   0.01239
     Eigenvalues ---    0.05489   0.05489   0.09376   0.10837   0.10838
     Eigenvalues ---    0.11386   0.43813   0.92645   0.92648   2.29580
 Eigenvalue     1 is  -3.70D-03 should be greater than     0.000000 Eigenvector:
                          Y6        Y7        Y2        Y3        Y4
   1                    0.67446  -0.61799  -0.18878   0.16243   0.15678
                          Y5        X5        X4        Y1        Z6
   1                    0.15651   0.13951  -0.13402   0.11659  -0.02185
 Eigenvalue     2 is  -3.70D-03 should be greater than     0.000000 Eigenvector:
                          Z6        Z7        Z2        Z5        Z4
   1                    0.67439  -0.61798  -0.18881   0.16089   0.16059
                          X3        Z3        Z1        X4        X5
   1                    0.15792   0.15444   0.11664  -0.08380  -0.07431
 Quadratic step=7.371D-01 exceeds max=3.000D-01 adjusted using Lamda=-1.845D-02.
 Angle between NR and scaled steps=   5.91 degrees.
 Angle between quadratic step and forces=  27.90 degrees.
 Linear search not attempted -- first point.
 B after Tr=     0.012245   -0.000001    0.000006
         Rot=    1.000000   -0.000000   -0.000002   -0.000000 Ang=  -0.00 deg.
 Variable       Old X    -DE/DX   Delta X   Delta X   Delta X     New X
                                 (Linear)    (Quad)   (Total)
    X1       -0.44215  -0.00898   0.00000  -0.16732  -0.15507  -0.59722
    Y1        0.00001  -0.00000   0.00000   0.00000   0.00000   0.00001
    Z1       -0.00035  -0.00001   0.00000  -0.00009  -0.00008  -0.00043
    X2       -4.08517  -0.00154   0.00000  -0.04811  -0.03587  -4.12104
    Y2       -0.00000  -0.00000   0.00000  -0.00000  -0.00001  -0.00001
    Z2        0.00009   0.00001   0.00000   0.00005   0.00007   0.00016
    X3        0.09015   0.00030   0.00000  -0.05960  -0.04736   0.04279
    Y3        0.00456  -0.00000   0.00000  -0.00005  -0.00005   0.00451
    Z3       -1.97377   0.00094   0.00000   0.02360   0.02361  -1.95016
    X4        0.09093   0.00028   0.00000  -0.05980  -0.04756   0.04338
    Y4        1.70678  -0.00084   0.00000  -0.02060  -0.02060   1.68618
    Z4        0.98994  -0.00047   0.00000  -0.01183  -0.01182   0.97811
    X5        0.09098   0.00028   0.00000  -0.05982  -0.04758   0.04340
    Y5       -1.71129   0.00084   0.00000   0.02066   0.02066  -1.69063
    Z5        0.98206  -0.00046   0.00000  -0.01173  -0.01173   0.97033
    X6        4.48821   0.00369   0.00000   0.15256   0.16480   4.65301
    Y6        0.00001   0.00000   0.00000   0.00000   0.00000   0.00001
    Z6       -0.00030  -0.00001   0.00000  -0.00011  -0.00012  -0.00042
    X7        6.71473   0.00597   0.00000   0.15639   0.16863   6.88337
    Y7       -0.00002  -0.00000   0.00000  -0.00000  -0.00000  -0.00002
    Z7        0.00046   0.00000   0.00000   0.00010   0.00008   0.00054
         Item               Value     Threshold  Converged?
 Maximum Force            0.008977     0.000450     NO 
 RMS     Force            0.002538     0.000300     NO 
 Maximum Displacement     0.168634     0.001800     NO 
 RMS     Displacement     0.065242     0.001200     NO 
 Predicted change in Energy=-2.379602D-03
 GradGradGradGradGradGradGradGradGradGradGradGradGradGradGradGradGradGrad

 Leave Link  103 at Sun Oct 13 09:51:26 2024, MaxMem=  2684354560 cpu:               0.6 elap:               0.1
 (Enter /usr/local/g16_AVX//g16/l9999.exe)

 ----------------------------------------------------------------------

 Electric dipole moment (input orientation):
 (Debye = 10**-18 statcoulomb cm , SI units = C m)
                  (au)            (Debye)         (10**-30 SI)
   Tot        0.331248D+01      0.841947D+01      0.280843D+02
   x         -0.331248D+01     -0.841947D+01     -0.280843D+02
   y          0.000000D+00      0.000000D+00      0.000000D+00
   z         -0.205501D-03     -0.522333D-03     -0.174231D-02

 Dipole polarizability, Alpha (input orientation).
 (esu units = cm**3 , SI units = C**2 m**2 J**-1)
 Alpha(0;0):
               (au)            (10**-24 esu)      (10**-40 SI)
   iso        0.601039D+02      0.890648D+01      0.990980D+01
   aniso      0.623932D+02      0.924571D+01      0.102872D+02
   xx         0.101699D+03      0.150703D+02      0.167680D+02
   yx        -0.128122D-03     -0.189858D-04     -0.211245D-04
   yy         0.393061D+02      0.582457D+01      0.648071D+01
   zx         0.348781D-02      0.516840D-03      0.575062D-03
   zy         0.000000D+00      0.000000D+00      0.000000D+00
   zz         0.393063D+02      0.582459D+01      0.648073D+01

 ----------------------------------------------------------------------

 Dipole orientation:
     6         -0.00032217          0.00001235          0.44214680
    17          0.00034415         -0.00001000          4.08517402
     1         -1.97377538          0.00456590         -0.09003071
     1          0.98993645          1.70677806         -0.09098976
     1          0.98205139         -1.71129239         -0.09104141
     6         -0.00057702          0.00001647         -4.48821101
     7          0.00004074         -0.00000179         -6.71473173

 Electric dipole moment (dipole orientation):
 (Debye = 10**-18 statcoulomb cm , SI units = C m)
                  (au)            (Debye)         (10**-30 SI)
   Tot        0.331248D+01      0.841947D+01      0.280843D+02
   x          0.000000D+00      0.000000D+00      0.000000D+00
   y          0.000000D+00      0.000000D+00      0.000000D+00
   z          0.331248D+01      0.841947D+01      0.280843D+02

 Dipole polarizability, Alpha (dipole orientation).
 (esu units = cm**3 , SI units = C**2 m**2 J**-1)
 Alpha(0;0):
               (au)            (10**-24 esu)      (10**-40 SI)
   iso        0.601039D+02      0.890648D+01      0.990980D+01
   aniso      0.623932D+02      0.924571D+01      0.102872D+02
   xx         0.393063D+02      0.582459D+01      0.648073D+01
   yx         0.000000D+00      0.000000D+00      0.000000D+00
   yy         0.393061D+02      0.582457D+01      0.648071D+01
   zx         0.382973D-03      0.567508D-04      0.631437D-04
   zy         0.000000D+00      0.000000D+00      0.000000D+00
   zz         0.101699D+03      0.150703D+02      0.167680D+02

 ----------------------------------------------------------------------
 1\1\GINC-NODO6\Freq\RB3LYP\6-31++G(d,p)\C2H3Cl1N1(1-)\ALANQF\13-Oct-20
 24\0\\#p b3lyp 6-31++g(d,p) scf=verytight NoSymm freq=noraman int=ultr
 afine\\RxCoord=1.79958 DE=49.52\\-1,1\C,-0.233974,0.000007,-0.000185\C
 l,-2.161781,-0.000001,0.000048\H,0.047707,0.002414,-1.044474\H,0.04811
 9,0.903189,0.523853\H,0.048143,-0.905576,0.519684\C,2.375059,0.000004,
 -0.000158\N,3.553283,-0.000008,0.000242\\Version=ES64L-G16RevB.01\HF=-
 592.9918125\RMSD=4.471e-09\RMSF=2.538e-03\ZeroPoint=0.0432332\Thermal=
 0.0482608\Dipole=-3.2585373,0.0000075,-0.000229\DipoleDeriv=2.3982573,
 0.0000038,-0.0001303,0.0000118,0.0669078,0.,-0.0003021,0.,0.0669676,-1
 .7358388,-0.0000025,0.0000821,-0.0000025,-0.3523775,0.,0.0001004,0.,-0
 .3523718,-0.0667146,0.0000103,-0.0047009,0.0000239,0.0758958,0.0001526
 ,-0.0112784,0.0001527,0.0097131,-0.0666291,0.0040773,0.0023755,0.00984
 49,0.0264551,-0.0287056,0.0057598,-0.0286893,0.0592501,-0.0666199,-0.0
 040882,0.002356,-0.0098779,0.0261923,0.0285531,0.0057159,0.0285368,0.0
 595145,-0.3904607,-0.0000043,0.00012,-0.0000085,-0.4225951,-0.0000003,
 0.000281,-0.0000003,-0.4226012,-1.0719941,0.0000037,-0.0001024,0.00000
 83,-0.4204784,0.,-0.0002767,0.,-0.4204724\Polar=101.699378,-0.0001281,
 39.3061307,0.0034878,0.0000032,39.3063002\Quadrupole=-26.1660072,13.08
 32934,13.0827138,0.0000249,-0.0008652,0.0000044\PG=C01 [X(C2H3Cl1N1)]\
 NImag=2\\0.13252975,-0.00000413,0.62904678,0.00009215,0.00000267,0.628
 98944,-0.02243082,-0.00000022,0.00000283,0.11298735,-0.00000021,-0.032
 23441,0.00000002,0.00000095,0.01788994,0.00000277,0.00000003,-0.032229
 66,-0.00002001,0.00000002,0.01788982,-0.04135259,-0.00017991,0.0779924
 6,-0.02336225,-0.00003794,0.01642180,0.06439413,-0.00017262,-0.0503733
 2,0.00067645,0.00001399,0.00045125,-0.00001563,0.00017893,0.04577769,0
 .07494114,0.00067634,-0.34369597,-0.00615374,-0.00001584,0.00733048,-0
 .07760104,-0.00071011,0.35365183,-0.04140239,-0.06754427,-0.03919823,-
 0.02335437,-0.01419383,-0.00823551,0.00310301,0.00598073,0.00404126,0.
 06444658,-0.06490196,-0.26974268,-0.12728680,0.00532932,0.00559939,0.0
 0298715,-0.00047612,0.00276095,0.00296347,0.06720240,0.27602085,-0.037
 66814,-0.12728171,-0.12422358,0.00309773,0.00299041,0.00218541,-0.0072
 1162,-0.02455689,-0.00983483,0.03899772,0.13360427,0.12329400,-0.04140
 553,0.06772858,-0.03888958,-0.02335352,0.01423101,-0.00816983,0.003103
 27,-0.00599920,0.00401389,0.00310369,-0.00649870,0.00316324,0.06444903
 ,0.06507924,-0.27090608,0.12660762,-0.00534408,0.00562712,-0.00297155,
 0.00050953,0.00266089,-0.00290562,0.00648441,-0.01602514,0.01369875,-0
 .06738565,0.27724241,-0.03737143,0.12660264,-0.12305244,0.00307327,-0.
 00297459,0.00215791,-0.00720975,0.02461443,-0.00973524,0.00319337,-0.0
 1381368,0.00895992,0.03869042,-0.13289179,0.12206487,0.00244883,-0.000
 00008,0.00000180,-0.01126597,0.00000003,-0.00000015,-0.00550061,-0.000
 00031,0.00010564,-0.00551077,-0.00009050,-0.00005149,-0.00551118,0.000
 09061,-0.00005104,1.16766260,-0.00000022,-0.00755998,0.00000005,-0.000
 00009,0.00322201,-0.00000002,0.00000614,-0.00166782,-0.00001077,0.0023
 0065,0.00182131,0.00202387,-0.00230676,0.00183991,-0.00201319,-0.00001
 135,0.00086441,-0.00000128,0.00000004,-0.00755699,0.00000459,-0.000000
 02,0.00322123,-0.00265758,-0.00001080,0.00299579,0.00133534,0.00202465
 ,-0.00049334,0.00132476,-0.00201392,-0.00051185,0.00038206,0.00000005,
 0.00086563,0.01161276,0.00000003,-0.00000144,-0.00922042,-0.00000001,0
 .00000092,-0.00038496,-0.00000152,0.00065285,-0.00038575,-0.00056444,-
 0.00032743,-0.00038575,0.00056594,-0.00032484,-1.14232290,0.00001164,-
 0.00038789,1.14108701,-0.00000010,0.00176970,-0.00000001,0.00000013,-0
 .00055529,0.,-0.00000062,0.00039036,0.00000253,-0.00023008,-0.00043468
 ,-0.00047869,0.00023071,-0.00043910,0.00047617,0.00001159,0.00148017,0
 .,-0.00001163,-0.00221116,0.00000478,0.,0.00176920,-0.00000467,0.,-0.0
 0055518,0.00026574,0.00000255,-0.00071206,-0.00013396,-0.00047906,0.00
 011243,-0.00013291,0.00047652,0.00011683,-0.00038682,0.,0.00147954,0.0
 0038784,0.,-0.00221075\\0.00897659,0.00000086,0.00001276,0.00153921,0.
 00000045,-0.00000729,-0.00029538,0.00000194,-0.00094189,-0.00027826,0.
 00083685,0.00046835,-0.00027658,-0.00083999,0.00046480,-0.00369380,-0.
 00000019,0.00000552,-0.00597178,0.00000007,-0.00000226\\\@


 IF YOU BELIEVE CERTAIN WORDS, YOU BELIEVE THEIR HIDDEN ARGUMENTS.
 WHEN YOU BELIEVE SOMETHING IS RIGHT OR WRONG, TRUE OR FALSE, 
 YOU BELIEVE THE ASSUMPTIONS IN THE WORDS WHICH EXPRESS THE ARGUMENTS.
 SUCH ASSUMPTIONS ARE OFTEN FULL OF HOLES, BUT REMAIN MOST PRECIOUS 
 TO THE CONVINCED.

                 -- THE OPEN-ENDED PROOF FROM THE PANOPLIA PROPHETICA
                    CHILDREN OF DUNE BY FRANK HERBERT
 Job cpu time:       0 days  0 hours  3 minutes 43.2 seconds.
 Elapsed time:       0 days  0 hours  0 minutes  9.6 seconds.
 File lengths (MBytes):  RWF=     88 Int=      0 D2E=      0 Chk=      2 Scr=      2
 Normal termination of Gaussian 16 at Sun Oct 13 09:51:26 2024.
