RxCoord=1.79958 DE=49.52                                                
Freq      RB3LYP                                                      6-31++G(d,p)        
Number of atoms                            I                7
Info1-9                                    I   N=           9
          16          16           0           0           0         100
           6          18        -502
Full Title                                 C   N=           2
RxCoord=1.79958 DE=49.52
Route                                      C   N=           6
#p b3lyp 6-31++g(d,p) scf=verytight NoSymm freq=noraman int=
ultrafine   
Charge                                     I               -1
Multiplicity                               I                1
Number of electrons                        I               40
Number of alpha electrons                  I               20
Number of beta electrons                   I               20
Number of basis functions                  I               98
Number of independent functions            I               98
Number of point charges in /Mol/           I                0
Number of translation vectors              I                0
Atomic numbers                             I   N=           7
           6          17           1           1           1           6
           7
Nuclear charges                            R   N=           7
  6.00000000E+00  1.70000000E+01  1.00000000E+00  1.00000000E+00  1.00000000E+00
  6.00000000E+00  7.00000000E+00
Current cartesian coordinates              R   N=          21
 -4.42146780E-01  1.32280829E-05 -3.49599333E-04 -4.08517403E+00 -1.88972612E-06
  9.07068540E-05  9.01531642E-02  4.56179886E-03 -1.97376980E+00  9.09317314E-02
  1.70677985E+00  9.89938700E-01  9.09770848E-02 -1.71129062E+00  9.82060431E-01
  4.48821104E+00  7.55890450E-06 -2.98576728E-04  6.71473171E+00 -1.51178090E-05
  4.57313722E-04
Number of symbols in /Mol/                 I                0
Force Field                                I                0
Atom Types                                 C   N=           7
                                                            
                        
Int Atom Types                             I   N=           7
           0           0           0           0           0           0
           0
MM charges                                 R   N=           7
  0.00000000E+00  0.00000000E+00  0.00000000E+00  0.00000000E+00  0.00000000E+00
  0.00000000E+00  0.00000000E+00
Integer atomic weights                     I   N=           7
          12          35           1           1           1          12
          14
Real atomic weights                        R   N=           7
  1.20000000E+01  3.49688527E+01  1.00782504E+00  1.00782504E+00  1.00782504E+00
  1.20000000E+01  1.40030740E+01
Atom fragment info                         I   N=           7
           0           0           0           0           0           0
           0
Atom residue num                           I   N=           7
           0           0           0           0           0           0
           0
Nuclear spins                              I   N=           7
           0           3           1           1           1           0
           2
Nuclear ZEff                               R   N=           7
 -3.60000000E+00 -1.42400000E+01 -1.00000000E+00 -1.00000000E+00 -1.00000000E+00
 -3.60000000E+00 -4.55000000E+00
Nuclear ZNuc                               R   N=           7
  6.00000000E+00  1.70000000E+01  1.00000000E+00  1.00000000E+00  1.00000000E+00
  6.00000000E+00  7.00000000E+00
Nuclear QMom                               R   N=           7
  0.00000000E+00 -8.16500000E+00  0.00000000E+00  0.00000000E+00  0.00000000E+00
  0.00000000E+00  2.04400000E+00
Nuclear GFac                               R   N=           7
  0.00000000E+00  8.21874000E-01  2.79284600E+00  2.79284600E+00  2.79284600E+00
  0.00000000E+00  4.03761000E-01
MicOpt                                     I   N=           7
          -1          -1          -1          -1          -1          -1
          -1
Number of residues                         I                0
Number of secondary structures             I                0
Number of contracted shells                I               33
Number of primitive shells                 I               72
Pure/Cartesian d shells                    I                1
Pure/Cartesian f shells                    I                0
Highest angular momentum                   I                2
Largest degree of contraction              I                6
Shell types                                I   N=          33
           0          -1          -1          -1           2           0
          -1          -1          -1          -1           2           0
           0           0           1           0           0           0
           1           0           0           0           1           0
          -1          -1          -1           2           0          -1
          -1          -1           2
Number of primitives per shell             I   N=          33
           6           3           1           1           1           6
           6           3           1           1           1           3
           1           1           1           3           1           1
           1           3           1           1           1           6
           3           1           1           1           6           3
           1           1           1
Shell to atom map                          I   N=          33
           1           1           1           1           1           2
           2           2           2           2           2           3
           3           3           3           4           4           4
           4           5           5           5           5           6
           6           6           6           6           7           7
           7           7           7
Primitive exponents                        R   N=          72
  3.04752488E+03  4.57369518E+02  1.03948685E+02  2.92101553E+01  9.28666296E+00
  3.16392696E+00  7.86827235E+00  1.88128854E+00  5.44249258E-01  1.68714478E-01
  4.38000000E-02  8.00000000E-01  2.51801000E+04  3.78035000E+03  8.60474000E+02
  2.42145000E+02  7.73349000E+01  2.62470000E+01  4.91765000E+02  1.16984000E+02
  3.74153000E+01  1.37834000E+01  5.45215000E+00  2.22588000E+00  3.18649000E+00
  1.14427000E+00  4.20377000E-01  1.42657000E-01  4.83000000E-02  7.50000000E-01
  1.87311370E+01  2.82539436E+00  6.40121692E-01  1.61277759E-01  3.60000000E-02
  1.10000000E+00  1.87311370E+01  2.82539436E+00  6.40121692E-01  1.61277759E-01
  3.60000000E-02  1.10000000E+00  1.87311370E+01  2.82539436E+00  6.40121692E-01
  1.61277759E-01  3.60000000E-02  1.10000000E+00  3.04752488E+03  4.57369518E+02
  1.03948685E+02  2.92101553E+01  9.28666296E+00  3.16392696E+00  7.86827235E+00
  1.88128854E+00  5.44249258E-01  1.68714478E-01  4.38000000E-02  8.00000000E-01
  4.17351146E+03  6.27457911E+02  1.42902093E+02  4.02343293E+01  1.28202129E+01
  4.39043701E+00  1.16263619E+01  2.71627981E+00  7.72218397E-01  2.12031498E-01
  6.39000000E-02  8.00000000E-01
Contraction coefficients                   R   N=          72
  1.83473713E-03  1.40373228E-02  6.88426223E-02  2.32184443E-01  4.67941348E-01
  3.62311985E-01 -1.19332420E-01 -1.60854152E-01  1.14345644E+00  1.00000000E+00
  1.00000000E+00  1.00000000E+00  1.83295985E-03  1.40341988E-02  6.90973943E-02
  2.37451980E-01  4.83033960E-01  3.39855972E-01 -2.29739142E-03 -3.07137189E-02
 -1.12528069E-01  4.50163278E-02  5.89353363E-01  4.65206287E-01 -2.51828028E-01
  6.15892514E-02  1.06018433E+00  1.00000000E+00  1.00000000E+00  1.00000000E+00
  3.34946043E-02  2.34726953E-01  8.13757326E-01  1.00000000E+00  1.00000000E+00
  1.00000000E+00  3.34946043E-02  2.34726953E-01  8.13757326E-01  1.00000000E+00
  1.00000000E+00  1.00000000E+00  3.34946043E-02  2.34726953E-01  8.13757326E-01
  1.00000000E+00  1.00000000E+00  1.00000000E+00  1.83473713E-03  1.40373228E-02
  6.88426223E-02  2.32184443E-01  4.67941348E-01  3.62311985E-01 -1.19332420E-01
 -1.60854152E-01  1.14345644E+00  1.00000000E+00  1.00000000E+00  1.00000000E+00
  1.83477216E-03  1.39946270E-02  6.85865518E-02  2.32240873E-01  4.69069948E-01
  3.60455199E-01 -1.14961182E-01 -1.69117479E-01  1.14585195E+00  1.00000000E+00
  1.00000000E+00  1.00000000E+00
P(S=P) Contraction coefficients            R   N=          72
  0.00000000E+00  0.00000000E+00  0.00000000E+00  0.00000000E+00  0.00000000E+00
  0.00000000E+00  6.89990666E-02  3.16423961E-01  7.44308291E-01  1.00000000E+00
  1.00000000E+00  0.00000000E+00  0.00000000E+00  0.00000000E+00  0.00000000E+00
  0.00000000E+00  0.00000000E+00  0.00000000E+00  3.98940088E-03  3.03177067E-02
  1.29880029E-01  3.27951072E-01  4.53527100E-01  2.52154056E-01 -1.42993147E-02
  3.23572333E-01  7.43507765E-01  1.00000000E+00  1.00000000E+00  0.00000000E+00
  0.00000000E+00  0.00000000E+00  0.00000000E+00  0.00000000E+00  0.00000000E+00
  0.00000000E+00  0.00000000E+00  0.00000000E+00  0.00000000E+00  0.00000000E+00
  0.00000000E+00  0.00000000E+00  0.00000000E+00  0.00000000E+00  0.00000000E+00
  0.00000000E+00  0.00000000E+00  0.00000000E+00  0.00000000E+00  0.00000000E+00
  0.00000000E+00  0.00000000E+00  0.00000000E+00  0.00000000E+00  6.89990666E-02
  3.16423961E-01  7.44308291E-01  1.00000000E+00  1.00000000E+00  0.00000000E+00
  0.00000000E+00  0.00000000E+00  0.00000000E+00  0.00000000E+00  0.00000000E+00
  0.00000000E+00  6.75797439E-02  3.23907296E-01  7.40895140E-01  1.00000000E+00
  1.00000000E+00  0.00000000E+00
Coordinates of each shell                  R   N=          99
 -4.42146780E-01  1.32280829E-05 -3.49599333E-04 -4.42146780E-01  1.32280829E-05
 -3.49599333E-04 -4.42146780E-01  1.32280829E-05 -3.49599333E-04 -4.42146780E-01
  1.32280829E-05 -3.49599333E-04 -4.42146780E-01  1.32280829E-05 -3.49599333E-04
 -4.08517403E+00 -1.88972612E-06  9.07068540E-05 -4.08517403E+00 -1.88972612E-06
  9.07068540E-05 -4.08517403E+00 -1.88972612E-06  9.07068540E-05 -4.08517403E+00
 -1.88972612E-06  9.07068540E-05 -4.08517403E+00 -1.88972612E-06  9.07068540E-05
 -4.08517403E+00 -1.88972612E-06  9.07068540E-05  9.01531642E-02  4.56179886E-03
 -1.97376980E+00  9.01531642E-02  4.56179886E-03 -1.97376980E+00  9.01531642E-02
  4.56179886E-03 -1.97376980E+00  9.01531642E-02  4.56179886E-03 -1.97376980E+00
  9.09317314E-02  1.70677985E+00  9.89938700E-01  9.09317314E-02  1.70677985E+00
  9.89938700E-01  9.09317314E-02  1.70677985E+00  9.89938700E-01  9.09317314E-02
  1.70677985E+00  9.89938700E-01  9.09770848E-02 -1.71129062E+00  9.82060431E-01
  9.09770848E-02 -1.71129062E+00  9.82060431E-01  9.09770848E-02 -1.71129062E+00
  9.82060431E-01  9.09770848E-02 -1.71129062E+00  9.82060431E-01  4.48821104E+00
  7.55890450E-06 -2.98576728E-04  4.48821104E+00  7.55890450E-06 -2.98576728E-04
  4.48821104E+00  7.55890450E-06 -2.98576728E-04  4.48821104E+00  7.55890450E-06
 -2.98576728E-04  4.48821104E+00  7.55890450E-06 -2.98576728E-04  6.71473171E+00
 -1.51178090E-05  4.57313722E-04  6.71473171E+00 -1.51178090E-05  4.57313722E-04
  6.71473171E+00 -1.51178090E-05  4.57313722E-04  6.71473171E+00 -1.51178090E-05
  4.57313722E-04  6.71473171E+00 -1.51178090E-05  4.57313722E-04
Num ILSW                                   I              100
ILSW                                       I   N=         100
           0           1           0           0           2           0
           0           0           0           0         402          -1
           5           0           0           0           2           0
           0           0           0           0           1           0
           1           1           0           0           0           0
           0           0      100000           0          -1           0
           0           0           0           0           0           0
           0           0           0           1           0           0
           0 -2000000000           1           0           0           0
           0           0           4          52           0           0
           0           0           5           0           0           0
           0           0           0           7           0           1
           0           0           0           0           0           0
           0           0           0           0           0           0
           0           0           0           0           0           0
           0           0           0           0           0           0
           0           0           0           0
Num RLSW                                   I               52
RLSW                                       R   N=          52
  8.00000000E-01  7.20000000E-01  1.00000000E+00  8.10000000E-01  2.00000000E-01
  0.00000000E+00  0.00000000E+00  1.00000000E+00  0.00000000E+00  0.00000000E+00
  0.00000000E+00  0.00000000E+00  1.00000000E+00  0.00000000E+00  0.00000000E+00
  0.00000000E+00  0.00000000E+00  1.00000000E+00  0.00000000E+00  0.00000000E+00
  0.00000000E+00  0.00000000E+00  1.00000000E+00  0.00000000E+00  0.00000000E+00
  0.00000000E+00  0.00000000E+00  1.00000000E+00  0.00000000E+00  0.00000000E+00
  0.00000000E+00  0.00000000E+00  1.00000000E+00  0.00000000E+00  0.00000000E+00
  0.00000000E+00  0.00000000E+00  0.00000000E+00  1.00000000E+00  1.00000000E+00
  0.00000000E+00  1.00000000E+00  0.00000000E+00  0.00000000E+00  0.00000000E+00
  0.00000000E+00  0.00000000E+00  0.00000000E+00  0.00000000E+00  0.00000000E+00
  0.00000000E+00  0.00000000E+00
MxBond                                     I                4
NBond                                      I   N=           7
           4           1           1           1           1           1
           1
IBond                                      I   N=          28
           2           3           4           5           1           0
           0           0           1           0           0           0
           1           0           0           0           1           0
           0           0           7           0           0           0
           6           0           0           0
RBond                                      R   N=          28
  1.00000000E+00  1.00000000E+00  1.00000000E+00  1.00000000E+00  1.00000000E+00
  0.00000000E+00  0.00000000E+00  0.00000000E+00  1.00000000E+00  0.00000000E+00
  0.00000000E+00  0.00000000E+00  1.00000000E+00  0.00000000E+00  0.00000000E+00
  0.00000000E+00  1.00000000E+00  0.00000000E+00  0.00000000E+00  0.00000000E+00
  2.00000000E+00  0.00000000E+00  0.00000000E+00  0.00000000E+00  2.00000000E+00
  0.00000000E+00  0.00000000E+00  0.00000000E+00
Virial Ratio                               R      2.004559134416642E+00
SCF Energy                                 R     -5.929918125324792E+02
Total Energy                               R     -5.929918125324792E+02
RMS Force                                  R      2.537570143352227E-03
RMS Density                                R      4.471468324699539E-09
NImag                                      I                2
Job Status                                 I                1
Nuclear derivative order                   I                2
External E-field                           R   N=          35
  0.00000000E+00  0.00000000E+00  0.00000000E+00  0.00000000E+00  0.00000000E+00
  0.00000000E+00  0.00000000E+00  0.00000000E+00  0.00000000E+00  0.00000000E+00
  0.00000000E+00  0.00000000E+00  0.00000000E+00  0.00000000E+00  0.00000000E+00
  0.00000000E+00  0.00000000E+00  0.00000000E+00  0.00000000E+00  0.00000000E+00
  0.00000000E+00  0.00000000E+00  0.00000000E+00  0.00000000E+00  0.00000000E+00
  0.00000000E+00  0.00000000E+00  0.00000000E+00  0.00000000E+00  0.00000000E+00
  0.00000000E+00  0.00000000E+00  0.00000000E+00  0.00000000E+00  0.00000000E+00
IOpCl                                      I                0
IROHF                                      I                0
Alpha Orbital Energies                     R   N=          98
 -1.01391109E+02 -1.41031636E+01 -1.01001128E+01 -9.96810010E+00 -9.30679126E+00
 -7.06931183E+00 -7.06177012E+00 -7.06176998E+00 -6.85437044E-01 -6.57306928E-01
 -5.37215259E-01 -3.00973348E-01 -3.00952475E-01 -2.54032700E-01 -1.88180300E-01
 -1.63657713E-01 -1.63652657E-01 -1.05840974E-01 -1.05840751E-01 -7.65015091E-02
  1.12242013E-01  1.29502105E-01  1.47791989E-01  1.47792536E-01  1.67605352E-01
  1.97924050E-01  2.06133648E-01  2.06135192E-01  2.21748093E-01  2.21765642E-01
  2.46375189E-01  2.50679211E-01  2.50684009E-01  2.68955485E-01  2.69909548E-01
  2.69913444E-01  3.14048077E-01  3.41681830E-01  3.41705007E-01  3.68623088E-01
  3.83353312E-01  3.83942320E-01  3.83943569E-01  4.66404756E-01  4.79162025E-01
  6.91118738E-01  7.48746921E-01  7.53768166E-01  7.53771265E-01  7.84377963E-01
  7.84387856E-01  8.85212462E-01  8.91140186E-01  8.91153469E-01  9.89343654E-01
  1.01340638E+00  1.01342080E+00  1.05902427E+00  1.06233373E+00  1.06235620E+00
  1.09700773E+00  1.09704892E+00  1.12197450E+00  1.18663994E+00  1.18664281E+00
  1.25953054E+00  1.31131805E+00  1.35819342E+00  1.49507952E+00  1.60158700E+00
  1.60163466E+00  1.77266685E+00  1.77266890E+00  1.79618112E+00  1.79618342E+00
  1.81313380E+00  2.15130967E+00  2.19386953E+00  2.19388096E+00  2.20389099E+00
  2.20398584E+00  2.23429317E+00  2.52797652E+00  2.52807629E+00  2.63920449E+00
  2.82722749E+00  2.82723173E+00  2.84367928E+00  2.96188515E+00  2.96202114E+00
  3.26307930E+00  3.40943527E+00  3.56318834E+00  3.56328838E+00  4.21335246E+00
  4.44773852E+00  4.46574622E+00  4.56092657E+00
Alpha MO coefficients                      R   N=        9604
 -4.84629493E-06 -1.86132765E-05 -4.39686901E-05 -2.82378321E-10  6.90016330E-09
  5.50047660E-05 -8.31285135E-05  7.81401960E-11 -6.57667592E-09 -1.02246698E-04
 -1.09001494E-04 -7.78366060E-10  2.09208333E-08  3.98607604E-05  1.73989932E-05
  1.73898641E-05 -1.39625949E-10  3.84332594E-10  1.00402355E-10  9.95997238E-01
  1.51506029E-02  3.41334691E-05  7.02101353E-11 -3.49288154E-09 -2.10567764E-02
 -1.70285407E-05 -5.71138571E-11  2.08393161E-09  1.86541467E-03 -6.22045833E-05
 -3.21692396E-10  9.64829234E-09 -4.00458856E-04 -1.52673869E-05 -2.88049352E-11
  1.13272617E-09  7.49669530E-03  7.52581489E-03  7.52581497E-03 -1.83492595E-10
  5.26913166E-09 -6.91592625E-13 -1.77838556E-05 -1.61194154E-05  4.21299570E-05
  2.25799684E-05  2.04250968E-08 -8.82915554E-06 -1.77727310E-05 -1.61207651E-05
  4.21141449E-05  2.25872586E-05  7.63605612E-06  4.43048763E-06 -1.77717604E-05
 -1.61215053E-05  4.21133903E-05  2.25877210E-05 -7.65633177E-06  4.39531278E-06
 -1.41312672E-06 -1.50459509E-06  1.97925358E-06  9.83244751E-11 -3.60000154E-09
 -1.40343066E-04 -1.43067526E-04  8.51690134E-10 -2.77398060E-08  3.30217395E-05
 -1.08377412E-04  2.89584869E-10 -2.98358108E-09 -1.27614644E-05 -1.26841469E-06
 -1.26860387E-06  2.01455311E-10 -6.52326633E-09 -6.76843511E-12 -2.99413978E-06
 -1.22242003E-05 -1.21254004E-06 -2.83759587E-11  8.74048970E-10  1.72926357E-04
 -8.60858647E-05  1.08098954E-09 -3.58402158E-08  1.07904625E-04  1.53211127E-05
  3.71440901E-10 -1.55289681E-08  3.71135542E-06 -8.22262033E-06 -8.22258358E-06
 -1.82733193E-10  6.20398724E-09  5.42630960E-13  1.07734662E-06  1.57550128E-05
 -1.26095267E-05 -3.44608659E-12 -3.78110740E-10 -3.82447133E-07  7.63933167E-06
  5.80572880E-10 -2.62964942E-08  1.17939040E-03  2.35203153E-04  1.09713883E-09
 -1.03521632E-07 -1.39713228E-05  4.25891280E-06  4.25975343E-06 -1.68918290E-10
  2.38971194E-09  2.56834822E-11  1.13805060E-07  1.93721878E-06 -2.71046402E-07
  2.10767551E-11 -3.17711833E-10  4.05183731E-06  1.27629812E-06 -1.21569437E-10
  1.80538862E-09 -4.81841784E-05 -1.06390258E-05  3.63594486E-10 -3.46280902E-09
 -3.50479899E-05 -4.45215796E-05 -1.48877262E-09  5.52700021E-08  5.84615197E-06
  3.06945047E-06  3.06975013E-06  1.76884064E-11  7.22513088E-10  1.52537372E-11
  4.97255954E-06 -7.01710469E-05 -1.78022237E-04 -3.51930857E-06  1.17676040E-08
 -5.11048465E-06  4.95754899E-06 -7.00954624E-05 -1.78215223E-04 -3.52151768E-06
  4.41717685E-06  2.56392293E-06  4.95680326E-06 -7.00933231E-05 -1.78226344E-04
 -3.52171679E-06 -4.42890737E-06  2.54351066E-06  8.42703539E-05  2.05133442E-04
 -2.97524238E-04  2.99112766E-09 -9.87574841E-08 -2.39356119E-04 -4.07003164E-04
  4.44461641E-09 -1.51023640E-07  1.26778345E-03  1.14746341E-03 -1.22255382E-08
  3.67190258E-07 -7.72649816E-04 -1.15053672E-05 -1.15062518E-05  8.99875990E-09
 -2.99279494E-07 -1.47513492E-11  9.92697834E-01  3.44557686E-02 -1.42683407E-03
  1.43261607E-08 -4.78516639E-07  5.20454896E-03  1.23079463E-04 -1.22048171E-09
  3.99125567E-08 -3.03568966E-03  2.57509111E-05 -4.42024843E-11  2.17687317E-08
 -7.69751467E-03 -8.42601500E-03 -8.42601511E-03 -8.54270134E-09  2.84535660E-07
 -8.89402421E-12  9.93030008E-01  4.94619039E-02 -5.16382921E-04  4.68123898E-09
 -1.75605086E-07 -1.63032723E-02  3.81366696E-04 -1.33289636E-08  9.07239947E-07
  6.16758693E-03 -3.03369364E-03 -1.44223977E-08  9.30847095E-07 -9.28527446E-03
 -8.73708901E-03 -8.73718733E-03 -5.00993295E-09  1.24548476E-07  3.97980106E-09
 -7.53855681E-06 -5.77415355E-05 -1.91794044E-05 -4.70430184E-10  6.68814900E-09
 -1.50119244E-04  2.18941131E-04  3.38904423E-09 -5.15303511E-08  2.63909984E-03
  1.54145778E-03 -1.81166317E-09 -1.83708062E-07 -5.00181194E-03 -1.76255025E-03
 -1.89827782E-09  7.95008804E-08  2.35749949E-05 -1.48983106E-04 -1.48998053E-04
 -6.02708151E-10 -3.37604778E-08 -6.66223554E-10 -1.60965076E-04  3.03758079E-03
 -9.23546787E-04  4.79780445E-05  2.89716960E-07 -1.24708154E-04 -1.61024744E-04
  3.03660610E-03 -9.24185018E-04  4.80026599E-05  1.07861939E-04  6.25550404E-05
 -1.61020809E-04  3.03658498E-03 -9.24147348E-04  4.79999860E-05 -1.08145329E-04
  6.20579304E-05 -1.33590992E-05 -1.18269681E-04  4.51870914E-05 -2.71591632E-09
  3.74321660E-08 -9.00720732E-04 -1.54624982E-03  2.30279910E-08 -5.34117312E-07
  1.56527708E-03  6.50377970E-04  2.51090158E-08 -4.18797297E-07  2.10725360E-05
 -3.86007326E-05 -3.85781220E-05  8.88793837E-11 -2.25147793E-08  5.27149316E-10
 -4.69123048E-05 -1.89399472E-04  1.44799229E-05 -3.76996014E-10  2.77052879E-08
  1.98764799E-03 -6.79193351E-04  6.78352257E-09 -3.02642727E-07 -7.69805375E-04
 -2.49550913E-04 -2.11337204E-08  4.32782861E-07 -5.24744566E-05 -1.06238225E-04
 -1.06240496E-04  5.00388856E-10  1.28295900E-09 -2.02681354E-11 -3.05163246E-05
 -1.43898562E-04 -9.38344782E-05 -5.50903607E-10  1.73887116E-08  4.69192700E-04
  7.21460253E-04  8.78335564E-09 -3.09508679E-07 -2.07169346E-03  7.47332309E-03
  9.78755216E-09 -4.79963070E-07  3.97007469E-05 -3.43224876E-05 -3.43229377E-05
  2.95706335E-10 -1.49435353E-08  2.04480920E-10  2.43828911E-07  8.39528386E-06
  7.02062681E-06  1.91947071E-10 -4.01125744E-09  1.98804657E-05 -4.59223963E-05
 -1.14054796E-09  2.32884087E-08 -2.35350459E-04  4.47093690E-04  4.36833120E-09
 -8.54982031E-08  8.27350413E-03  2.04252221E-03  1.28119116E-08 -3.62994831E-07
  5.80890184E-05 -9.40846164E-07 -9.35887398E-07  6.46142096E-10 -1.08479895E-08
  1.39207877E-10 -3.85142442E-05 -4.60676892E-04  1.30029123E-04 -2.59894233E-05
  7.11124397E-09 -3.39290481E-06 -3.85398234E-05 -4.60243081E-04  1.29943387E-04
 -2.58898441E-05  2.88853593E-06  1.69927323E-06 -3.85419420E-05 -4.60226619E-04
  1.29919986E-04 -2.58835945E-05 -2.89493973E-06  1.68432835E-06  9.92835319E-01
  4.94053907E-02  1.83812003E-03 -2.04695339E-08  6.88989412E-07 -1.07162960E-02
 -4.20771444E-04  1.00255632E-08 -3.78359887E-07 -1.03784428E-02  1.10081041E-03
  1.04645887E-09 -3.51986732E-07 -8.45662131E-03 -9.72527856E-03 -9.72528269E-03
 -1.45222852E-08  4.90739512E-07 -8.83262500E-11 -4.87086492E-04  8.51611142E-05
  4.25665008E-04 -3.98242524E-09  1.33230973E-07 -1.55110113E-03  7.34804289E-04
 -1.01989913E-08  3.36628882E-07  9.11903273E-03 -3.70016786E-03  3.87576746E-08
 -1.12888398E-06 -2.57650121E-04  1.91676761E-04  1.91677001E-04  5.59947099E-09
 -1.89985373E-07 -8.45375616E-14 -7.93844645E-05  1.30765849E-04  2.64283336E-04
  4.39266718E-10 -4.73292629E-09  2.55260600E-03 -1.59665907E-03 -1.27518582E-08
  3.96908767E-08 -2.57470764E-02  3.71502280E-02  1.01909437E-07 -3.09340102E-06
 -6.14695646E-04 -8.89939643E-05 -8.90523799E-05 -2.53556890E-09  5.86821746E-08
 -1.95235215E-09 -2.84610500E-01  1.02275427E+00  4.02184863E-03  8.61439297E-09
 -4.21200724E-07  7.59596470E-02  5.14896212E-04  1.46487885E-09 -5.47349412E-08
 -2.59464345E-02 -1.62844731E-03 -3.24270758E-09  1.64182929E-07  5.76471053E-02
  1.64557354E-02  8.88072609E-08 -2.51631703E-06 -1.53046857E-02 -1.55617013E-02
 -1.55617038E-02  1.92830257E-09 -4.30431004E-08  1.03901632E-10 -5.08961990E-05
 -7.47030036E-04  7.09682346E-04 -5.78601994E-05 -1.46759579E-10 -1.06516811E-07
 -5.09251434E-05 -7.46865153E-04  7.10557541E-04 -5.77025715E-05  8.67537921E-08
  7.51394652E-08 -5.09292894E-05 -7.46872893E-04  7.10602786E-04 -5.76907825E-05
 -8.84289568E-08  7.50492485E-08  1.86532757E-05  8.29514229E-05  4.17507158E-05
 -9.34793204E-10  6.42105425E-08 -1.91561873E-04  2.67814123E-04 -4.80123674E-10
 -1.13941221E-07 -2.47529302E-02  1.20791436E-02 -5.04657538E-08  7.58448412E-07
  8.98440511E-05  1.70863970E-05  1.70821416E-05 -1.62853895E-11  4.15768975E-09
 -1.25962898E-10 -1.95430624E-06  1.07356106E-05 -1.71864041E-05 -5.44820523E-10
  2.43635230E-08 -2.54923723E-04  3.93053136E-04 -1.99783344E-09  4.83361401E-08
  9.17752625E-04 -2.95353934E-03  1.87776278E-08 -1.67710285E-07 -6.34821102E-05
 -9.85943350E-07 -9.84614277E-07  6.18055121E-10 -3.11733317E-08  2.77737904E-11
  8.22511526E-05  1.33646992E-03 -2.79034333E-05  4.60846790E-11 -4.23351421E-08
 -3.32367822E-04  1.48228395E-03 -3.36299751E-08  7.81871469E-07  3.26204508E-02
 -6.12049910E-02 -1.02834359E-07  3.14981501E-06 -1.47643669E-03  2.59097272E-04
  2.58905426E-04 -6.56673265E-09  2.04366686E-07 -6.32090195E-09  1.18556426E-03
 -4.51617955E-03  9.90404697E-01  1.97188742E-06 -8.95850237E-05 -2.24847145E-04
  3.12577620E-02  6.74008704E-08 -2.92748546E-06  4.34470378E-03 -1.32506970E-02
 -3.21647481E-08  1.31030633E-06 -6.97235842E-02 -1.40303007E-02 -1.15211677E-07
  3.10256443E-06  4.41361049E-04 -3.77674799E-04 -3.77687230E-04  3.52301375E-09
 -1.11240056E-07 -2.97686804E-10 -2.35131226E-04  1.42156359E-03 -5.78474200E-03
 -3.06005548E-04  1.08299639E-07 -4.65409544E-05 -2.35496398E-04  1.42089297E-03
 -5.78537885E-03 -3.05773961E-04  4.03676657E-05  2.34151466E-05 -2.35520162E-04
  1.42085419E-03 -5.78540761E-03 -3.05756940E-04 -4.04806852E-05  2.32332894E-05
 -3.26484354E-05 -1.77343669E-04 -1.00928702E-04  7.86126382E-10 -7.54597132E-08
  3.31913890E-03  2.03586684E-03 -2.18565343E-08  9.35082112E-07  5.48987473E-02
 -2.13896996E-02  5.91957317E-08 -5.72334152E-07  8.46539054E-05 -5.86019740E-05
 -5.86001974E-05 -4.23297251E-09  1.32287721E-07  6.40840910E-11 -4.00749927E-06
  1.19817348E-05  3.51744842E-05  6.77781833E-10 -3.18927011E-08 -1.29566943E-03
  9.95322696E-04 -1.19044779E-08  4.24682139E-07 -9.76182673E-03  6.70145351E-03
 -5.21436714E-08  1.03386189E-06 -1.16249267E-04  1.10940290E-05  1.10899097E-05
  1.83314073E-09 -4.63088954E-08 -4.57115588E-11  2.61389554E-09  1.57690495E-08
  1.98099925E-09 -6.77231897E-05  8.74728071E-07 -8.24471812E-08 -9.42938273E-09
  3.15577429E-04 -4.08473043E-06  6.37652115E-08 -6.53045118E-07  3.37181008E-04
 -4.33449367E-06  1.33181966E-09  1.59785352E-06 -1.59697211E-06  2.51125195E-05
 -3.23791020E-07 -9.30932120E-05  5.60407838E-10 -3.67012636E-09 -3.13296213E-06
  9.90764354E-01 -1.27952139E-02 -2.47881005E-09 -8.60946652E-08  2.95861006E-02
 -3.82088491E-04  4.47162717E-08  2.84709888E-08 -1.16148993E-02  1.49999123E-04
 -6.40412885E-07 -1.81594206E-07  5.17724548E-03 -6.68597365E-05 -1.43277802E-09
 -9.49853148E-08  9.22516128E-08  2.58793574E-04 -3.34179076E-06  5.44347406E-06
 -1.05354431E-06  8.63178658E-06 -6.88140089E-05 -3.57717634E-06 -2.72079300E-05
  1.14993768E-06 -5.94394787E-05  4.84138931E-04 -3.88200461E-03 -2.01694367E-04
 -6.60373447E-05 -2.21233221E-05  6.05019487E-05 -4.92609610E-04  3.95076851E-03
  2.05261713E-04 -6.68224597E-05  2.30387265E-05 -1.17502040E-09 -4.85400791E-09
  4.51845794E-10  5.47060209E-05 -7.06271779E-07  1.34780528E-08 -2.18542254E-08
 -2.20818692E-04  2.85082926E-06  5.44359638E-07 -2.97604131E-07  1.03214437E-03
 -1.33285076E-05 -1.96363302E-09 -6.16115989E-08  5.78382030E-08 -1.89595895E-06
  2.43939507E-08  3.47784702E-06 -3.67471738E-10 -1.91556472E-09  8.11261999E-11
 -2.22502375E-05  2.87348035E-07  2.09827978E-08 -9.34781606E-09  1.34878788E-04
 -1.74164853E-06 -2.53338361E-08  8.40966152E-08 -3.81537311E-04  4.92718806E-06
 -7.32849090E-11 -4.24984768E-08  4.16787129E-08 -1.58767275E-05  2.04960316E-07
  2.45104331E-06 -2.83549279E-08 -1.73846619E-07 -2.03966680E-08 -8.74981524E-07
 -6.77611495E-05  8.31989848E-07  6.08135307E-08  4.06307613E-06  3.15328066E-04
 -3.34352148E-06  1.16027423E-05  4.35947582E-06  3.36015833E-04 -1.60499580E-08
 -8.07277276E-05  8.07227545E-05  3.25185889E-07  2.51393742E-05 -1.84966734E-06
 -1.85448430E-08  9.37931473E-08  8.96382735E-05  1.27952139E-02  9.90764358E-01
  4.21790692E-08  2.55708057E-06  3.82089724E-04  2.95860666E-02 -7.16761854E-07
 -8.40898774E-07 -1.50000368E-04 -1.16147869E-02  1.19853075E-05  3.59884613E-06
  6.68635824E-05  5.17727463E-03  5.25374448E-08  4.77987669E-06 -4.76115360E-06
  3.34272282E-06  2.58804433E-04  1.09034583E-07  6.91082261E-05 -5.64940012E-04
  4.52116649E-03  2.35054923E-04 -2.29196985E-07 -7.96227090E-05 -3.55240159E-05
  2.89108376E-04 -2.31910020E-03 -1.20546518E-04 -2.35527925E-05 -4.06791220E-05
 -3.37057993E-05  2.74223120E-04 -2.19989404E-03 -1.14348548E-04  2.17113725E-05
 -3.98877915E-05  1.77723268E-08  7.49607626E-08 -7.29801148E-09  7.06449798E-07