RxCoord=1.89956 DE=49.14                                                
Freq      RB3LYP                                                      6-31++G(d,p)        
Number of atoms                            I                7
Info1-9                                    I   N=           9
          16          16           0           0           0         100
           6          18        -502
Full Title                                 C   N=           2
RxCoord=1.89956 DE=49.14
Route                                      C   N=           6
#p b3lyp 6-31++g(d,p) scf=verytight NoSymm freq=noraman int=
ultrafine   
Charge                                     I               -1
Multiplicity                               I                1
Number of electrons                        I               40
Number of alpha electrons                  I               20
Number of beta electrons                   I               20
Number of basis functions                  I               98
Number of independent functions            I               98
Number of point charges in /Mol/           I                0
Number of translation vectors              I                0
Atomic numbers                             I   N=           7
           6          17           1           1           1           6
           7
Nuclear charges                            R   N=           7
  6.00000000E+00  1.70000000E+01  1.00000000E+00  1.00000000E+00  1.00000000E+00
  6.00000000E+00  7.00000000E+00
Current cartesian coordinates              R   N=          21
 -4.66930538E-01  1.13383567E-05 -3.57158238E-04 -4.08219960E+00 -3.77945225E-06
  9.25965801E-05  7.96897507E-02  4.54479133E-03 -1.97050625E+00  8.04191850E-02
  1.70393014E+00  9.88328653E-01  8.04664281E-02 -1.70842769E+00  9.80474951E-01
  4.49673370E+00  9.44863062E-06 -3.08025358E-04  6.72350760E+00 -1.51178090E-05
  4.61093174E-04
Number of symbols in /Mol/                 I                0
Force Field                                I                0
Atom Types                                 C   N=           7
                                                            
                        
Int Atom Types                             I   N=           7
           0           0           0           0           0           0
           0
MM charges                                 R   N=           7
  0.00000000E+00  0.00000000E+00  0.00000000E+00  0.00000000E+00  0.00000000E+00
  0.00000000E+00  0.00000000E+00
Integer atomic weights                     I   N=           7
          12          35           1           1           1          12
          14
Real atomic weights                        R   N=           7
  1.20000000E+01  3.49688527E+01  1.00782504E+00  1.00782504E+00  1.00782504E+00
  1.20000000E+01  1.40030740E+01
Atom fragment info                         I   N=           7
           0           0           0           0           0           0
           0
Atom residue num                           I   N=           7
           0           0           0           0           0           0
           0
Nuclear spins                              I   N=           7
           0           3           1           1           1           0
           2
Nuclear ZEff                               R   N=           7
 -3.60000000E+00 -1.42400000E+01 -1.00000000E+00 -1.00000000E+00 -1.00000000E+00
 -3.60000000E+00 -4.55000000E+00
Nuclear ZNuc                               R   N=           7
  6.00000000E+00  1.70000000E+01  1.00000000E+00  1.00000000E+00  1.00000000E+00
  6.00000000E+00  7.00000000E+00
Nuclear QMom                               R   N=           7
  0.00000000E+00 -8.16500000E+00  0.00000000E+00  0.00000000E+00  0.00000000E+00
  0.00000000E+00  2.04400000E+00
Nuclear GFac                               R   N=           7
  0.00000000E+00  8.21874000E-01  2.79284600E+00  2.79284600E+00  2.79284600E+00
  0.00000000E+00  4.03761000E-01
MicOpt                                     I   N=           7
          -1          -1          -1          -1          -1          -1
          -1
Number of residues                         I                0
Number of secondary structures             I                0
Number of contracted shells                I               33
Number of primitive shells                 I               72
Pure/Cartesian d shells                    I                1
Pure/Cartesian f shells                    I                0
Highest angular momentum                   I                2
Largest degree of contraction              I                6
Shell types                                I   N=          33
           0          -1          -1          -1           2           0
          -1          -1          -1          -1           2           0
           0           0           1           0           0           0
           1           0           0           0           1           0
          -1          -1          -1           2           0          -1
          -1          -1           2
Number of primitives per shell             I   N=          33
           6           3           1           1           1           6
           6           3           1           1           1           3
           1           1           1           3           1           1
           1           3           1           1           1           6
           3           1           1           1           6           3
           1           1           1
Shell to atom map                          I   N=          33
           1           1           1           1           1           2
           2           2           2           2           2           3
           3           3           3           4           4           4
           4           5           5           5           5           6
           6           6           6           6           7           7
           7           7           7
Primitive exponents                        R   N=          72
  3.04752488E+03  4.57369518E+02  1.03948685E+02  2.92101553E+01  9.28666296E+00
  3.16392696E+00  7.86827235E+00  1.88128854E+00  5.44249258E-01  1.68714478E-01
  4.38000000E-02  8.00000000E-01  2.51801000E+04  3.78035000E+03  8.60474000E+02
  2.42145000E+02  7.73349000E+01  2.62470000E+01  4.91765000E+02  1.16984000E+02
  3.74153000E+01  1.37834000E+01  5.45215000E+00  2.22588000E+00  3.18649000E+00
  1.14427000E+00  4.20377000E-01  1.42657000E-01  4.83000000E-02  7.50000000E-01
  1.87311370E+01  2.82539436E+00  6.40121692E-01  1.61277759E-01  3.60000000E-02
  1.10000000E+00  1.87311370E+01  2.82539436E+00  6.40121692E-01  1.61277759E-01
  3.60000000E-02  1.10000000E+00  1.87311370E+01  2.82539436E+00  6.40121692E-01
  1.61277759E-01  3.60000000E-02  1.10000000E+00  3.04752488E+03  4.57369518E+02
  1.03948685E+02  2.92101553E+01  9.28666296E+00  3.16392696E+00  7.86827235E+00
  1.88128854E+00  5.44249258E-01  1.68714478E-01  4.38000000E-02  8.00000000E-01
  4.17351146E+03  6.27457911E+02  1.42902093E+02  4.02343293E+01  1.28202129E+01
  4.39043701E+00  1.16263619E+01  2.71627981E+00  7.72218397E-01  2.12031498E-01
  6.39000000E-02  8.00000000E-01
Contraction coefficients                   R   N=          72
  1.83473713E-03  1.40373228E-02  6.88426223E-02  2.32184443E-01  4.67941348E-01
  3.62311985E-01 -1.19332420E-01 -1.60854152E-01  1.14345644E+00  1.00000000E+00
  1.00000000E+00  1.00000000E+00  1.83295985E-03  1.40341988E-02  6.90973943E-02
  2.37451980E-01  4.83033960E-01  3.39855972E-01 -2.29739142E-03 -3.07137189E-02
 -1.12528069E-01  4.50163278E-02  5.89353363E-01  4.65206287E-01 -2.51828028E-01
  6.15892514E-02  1.06018433E+00  1.00000000E+00  1.00000000E+00  1.00000000E+00
  3.34946043E-02  2.34726953E-01  8.13757326E-01  1.00000000E+00  1.00000000E+00
  1.00000000E+00  3.34946043E-02  2.34726953E-01  8.13757326E-01  1.00000000E+00
  1.00000000E+00  1.00000000E+00  3.34946043E-02  2.34726953E-01  8.13757326E-01
  1.00000000E+00  1.00000000E+00  1.00000000E+00  1.83473713E-03  1.40373228E-02
  6.88426223E-02  2.32184443E-01  4.67941348E-01  3.62311985E-01 -1.19332420E-01
 -1.60854152E-01  1.14345644E+00  1.00000000E+00  1.00000000E+00  1.00000000E+00
  1.83477216E-03  1.39946270E-02  6.85865518E-02  2.32240873E-01  4.69069948E-01
  3.60455199E-01 -1.14961182E-01 -1.69117479E-01  1.14585195E+00  1.00000000E+00
  1.00000000E+00  1.00000000E+00
P(S=P) Contraction coefficients            R   N=          72
  0.00000000E+00  0.00000000E+00  0.00000000E+00  0.00000000E+00  0.00000000E+00
  0.00000000E+00  6.89990666E-02  3.16423961E-01  7.44308291E-01  1.00000000E+00
  1.00000000E+00  0.00000000E+00  0.00000000E+00  0.00000000E+00  0.00000000E+00
  0.00000000E+00  0.00000000E+00  0.00000000E+00  3.98940088E-03  3.03177067E-02
  1.29880029E-01  3.27951072E-01  4.53527100E-01  2.52154056E-01 -1.42993147E-02
  3.23572333E-01  7.43507765E-01  1.00000000E+00  1.00000000E+00  0.00000000E+00
  0.00000000E+00  0.00000000E+00  0.00000000E+00  0.00000000E+00  0.00000000E+00
  0.00000000E+00  0.00000000E+00  0.00000000E+00  0.00000000E+00  0.00000000E+00
  0.00000000E+00  0.00000000E+00  0.00000000E+00  0.00000000E+00  0.00000000E+00
  0.00000000E+00  0.00000000E+00  0.00000000E+00  0.00000000E+00  0.00000000E+00
  0.00000000E+00  0.00000000E+00  0.00000000E+00  0.00000000E+00  6.89990666E-02
  3.16423961E-01  7.44308291E-01  1.00000000E+00  1.00000000E+00  0.00000000E+00
  0.00000000E+00  0.00000000E+00  0.00000000E+00  0.00000000E+00  0.00000000E+00
  0.00000000E+00  6.75797439E-02  3.23907296E-01  7.40895140E-01  1.00000000E+00
  1.00000000E+00  0.00000000E+00
Coordinates of each shell                  R   N=          99
 -4.66930538E-01  1.13383567E-05 -3.57158238E-04 -4.66930538E-01  1.13383567E-05
 -3.57158238E-04 -4.66930538E-01  1.13383567E-05 -3.57158238E-04 -4.66930538E-01
  1.13383567E-05 -3.57158238E-04 -4.66930538E-01  1.13383567E-05 -3.57158238E-04
 -4.08219960E+00 -3.77945225E-06  9.25965801E-05 -4.08219960E+00 -3.77945225E-06
  9.25965801E-05 -4.08219960E+00 -3.77945225E-06  9.25965801E-05 -4.08219960E+00
 -3.77945225E-06  9.25965801E-05 -4.08219960E+00 -3.77945225E-06  9.25965801E-05
 -4.08219960E+00 -3.77945225E-06  9.25965801E-05  7.96897507E-02  4.54479133E-03
 -1.97050625E+00  7.96897507E-02  4.54479133E-03 -1.97050625E+00  7.96897507E-02
  4.54479133E-03 -1.97050625E+00  7.96897507E-02  4.54479133E-03 -1.97050625E+00
  8.04191850E-02  1.70393014E+00  9.88328653E-01  8.04191850E-02  1.70393014E+00
  9.88328653E-01  8.04191850E-02  1.70393014E+00  9.88328653E-01  8.04191850E-02
  1.70393014E+00  9.88328653E-01  8.04664281E-02 -1.70842769E+00  9.80474951E-01
  8.04664281E-02 -1.70842769E+00  9.80474951E-01  8.04664281E-02 -1.70842769E+00
  9.80474951E-01  8.04664281E-02 -1.70842769E+00  9.80474951E-01  4.49673370E+00
  9.44863062E-06 -3.08025358E-04  4.49673370E+00  9.44863062E-06 -3.08025358E-04
  4.49673370E+00  9.44863062E-06 -3.08025358E-04  4.49673370E+00  9.44863062E-06
 -3.08025358E-04  4.49673370E+00  9.44863062E-06 -3.08025358E-04  6.72350760E+00
 -1.51178090E-05  4.61093174E-04  6.72350760E+00 -1.51178090E-05  4.61093174E-04
  6.72350760E+00 -1.51178090E-05  4.61093174E-04  6.72350760E+00 -1.51178090E-05
  4.61093174E-04  6.72350760E+00 -1.51178090E-05  4.61093174E-04
Num ILSW                                   I              100
ILSW                                       I   N=         100
           0           1           0           0           2           0
           0           0           0           0         402          -1
           5           0           0           0           2           0
           0           0           0           0           1           0
           1           1           0           0           0           0
           0           0      100000           0          -1           0
           0           0           0           0           0           0
           0           0           0           1           0           0
           0 -2000000000           1           0           0           0
           0           0           4          52           0           0
           0           0           5           0           0           0
           0           0           0           7           0           1
           0           0           0           0           0           0
           0           0           0           0           0           0
           0           0           0           0           0           0
           0           0           0           0           0           0
           0           0           0           0
Num RLSW                                   I               52
RLSW                                       R   N=          52
  8.00000000E-01  7.20000000E-01  1.00000000E+00  8.10000000E-01  2.00000000E-01
  0.00000000E+00  0.00000000E+00  1.00000000E+00  0.00000000E+00  0.00000000E+00
  0.00000000E+00  0.00000000E+00  1.00000000E+00  0.00000000E+00  0.00000000E+00
  0.00000000E+00  0.00000000E+00  1.00000000E+00  0.00000000E+00  0.00000000E+00
  0.00000000E+00  0.00000000E+00  1.00000000E+00  0.00000000E+00  0.00000000E+00
  0.00000000E+00  0.00000000E+00  1.00000000E+00  0.00000000E+00  0.00000000E+00
  0.00000000E+00  0.00000000E+00  1.00000000E+00  0.00000000E+00  0.00000000E+00
  0.00000000E+00  0.00000000E+00  0.00000000E+00  1.00000000E+00  1.00000000E+00
  0.00000000E+00  1.00000000E+00  0.00000000E+00  0.00000000E+00  0.00000000E+00
  0.00000000E+00  0.00000000E+00  0.00000000E+00  0.00000000E+00  0.00000000E+00
  0.00000000E+00  0.00000000E+00
MxBond                                     I                4
NBond                                      I   N=           7
           4           1           1           1           1           1
           1
IBond                                      I   N=          28
           2           3           4           5           1           0
           0           0           1           0           0           0
           1           0           0           0           1           0
           0           0           7           0           0           0
           6           0           0           0
RBond                                      R   N=          28
  1.00000000E+00  1.00000000E+00  1.00000000E+00  1.00000000E+00  1.00000000E+00
  0.00000000E+00  0.00000000E+00  0.00000000E+00  1.00000000E+00  0.00000000E+00
  0.00000000E+00  0.00000000E+00  1.00000000E+00  0.00000000E+00  0.00000000E+00
  0.00000000E+00  1.00000000E+00  0.00000000E+00  0.00000000E+00  0.00000000E+00
  2.00000000E+00  0.00000000E+00  0.00000000E+00  0.00000000E+00  2.00000000E+00
  0.00000000E+00  0.00000000E+00  0.00000000E+00
Virial Ratio                               R      2.004548089461534E+00
SCF Energy                                 R     -5.929920955270683E+02
Total Energy                               R     -5.929920955270683E+02
RMS Force                                  R      2.387608779742286E-03
RMS Density                                R      4.516879191764637E-09
NImag                                      I                2
Job Status                                 I                1
Nuclear derivative order                   I                2
External E-field                           R   N=          35
  0.00000000E+00  0.00000000E+00  0.00000000E+00  0.00000000E+00  0.00000000E+00
  0.00000000E+00  0.00000000E+00  0.00000000E+00  0.00000000E+00  0.00000000E+00
  0.00000000E+00  0.00000000E+00  0.00000000E+00  0.00000000E+00  0.00000000E+00
  0.00000000E+00  0.00000000E+00  0.00000000E+00  0.00000000E+00  0.00000000E+00
  0.00000000E+00  0.00000000E+00  0.00000000E+00  0.00000000E+00  0.00000000E+00
  0.00000000E+00  0.00000000E+00  0.00000000E+00  0.00000000E+00  0.00000000E+00
  0.00000000E+00  0.00000000E+00  0.00000000E+00  0.00000000E+00  0.00000000E+00
IOpCl                                      I                0
IROHF                                      I                0
Alpha Orbital Energies                     R   N=          98
 -1.01393258E+02 -1.41019090E+01 -1.00993131E+01 -9.96667298E+00 -9.30903159E+00
 -7.07161185E+00 -7.06396727E+00 -7.06396716E+00 -6.89138029E-01 -6.55998923E-01
 -5.36817453E-01 -3.01017693E-01 -3.01003100E-01 -2.56823533E-01 -1.87401547E-01
 -1.64914197E-01 -1.64909980E-01 -1.04605836E-01 -1.04605667E-01 -7.53350425E-02
  1.12103443E-01  1.29877736E-01  1.47638948E-01  1.47640541E-01  1.68463565E-01
  1.99085168E-01  2.06054462E-01  2.06055754E-01  2.21774629E-01  2.21788951E-01
  2.46042454E-01  2.50777220E-01  2.50781683E-01  2.69549068E-01  2.70682620E-01
  2.70686318E-01  3.14316810E-01  3.41424882E-01  3.41444393E-01  3.67812669E-01
  3.83758315E-01  3.84473469E-01  3.84475398E-01  4.66721219E-01  4.79893424E-01
  6.87185734E-01  7.47416563E-01  7.52953709E-01  7.52956265E-01  7.83228434E-01
  7.83236238E-01  8.85516385E-01  8.92223453E-01  8.92235423E-01  9.89030921E-01
  1.01120662E+00  1.01121846E+00  1.06050559E+00  1.06052490E+00  1.06433193E+00
  1.09742577E+00  1.09745750E+00  1.12183140E+00  1.18749675E+00  1.18749889E+00
  1.26090949E+00  1.30583614E+00  1.35930238E+00  1.49357545E+00  1.60247765E+00
  1.60251517E+00  1.77397386E+00  1.77397587E+00  1.79750458E+00  1.79750688E+00
  1.81022921E+00  2.15291925E+00  2.19514070E+00  2.19514847E+00  2.20745636E+00
  2.20753052E+00  2.24235179E+00  2.52269342E+00  2.52276954E+00  2.64365320E+00
  2.82843702E+00  2.82844037E+00  2.84505441E+00  2.96270295E+00  2.96280547E+00
  3.26354223E+00  3.40679115E+00  3.56302019E+00  3.56309487E+00  4.21415931E+00
  4.44410569E+00  4.46514555E+00  4.56247924E+00
Alpha MO coefficients                      R   N=        9604
 -5.14006426E-06 -1.21400096E-05 -4.54446270E-05 -3.22591303E-10  6.95622267E-09
  6.22467627E-05 -7.87977860E-05  9.02919961E-11 -4.72213897E-09 -9.24819860E-05
 -1.16112172E-04 -9.00447635E-10  1.93783199E-08  3.20699675E-05  1.68495902E-05
  1.68422609E-05 -1.96910236E-10  7.00221792E-10  8.39149371E-11  9.95997194E-01
  1.51506265E-02  3.49655351E-05  5.99037051E-11 -3.81305301E-09 -2.10573592E-02
 -1.74489180E-05 -6.24448276E-11  2.14568828E-09  1.86706644E-03 -6.15542702E-05
 -3.01430002E-10  9.74003560E-09 -4.12070170E-04 -1.84239098E-05 -3.35416891E-11
  1.75954057E-09  7.49681387E-03  7.52560398E-03  7.52560406E-03 -1.80875687E-10
  5.20893283E-09  1.14193467E-13 -1.90039083E-05 -1.77669357E-05  4.17432606E-05
  2.27432904E-05  2.16885116E-08 -9.39403673E-06 -1.89941538E-05 -1.77685136E-05
  4.17311353E-05  2.27505836E-05  8.12388911E-06  4.71327018E-06 -1.89932025E-05
 -1.77692068E-05  4.17301979E-05  2.27511834E-05 -8.14541067E-06  4.67589305E-06
 -1.35834429E-06 -1.12671819E-06  1.85852827E-06  1.20856112E-10 -3.70175232E-09
 -1.38949809E-04 -1.39415800E-04  8.45708382E-10 -2.74886390E-08  3.64340676E-05
 -1.09389769E-04  1.61935913E-10 -3.10647166E-09 -1.29548639E-05 -1.15328295E-06
 -1.15347184E-06  2.19871789E-10 -6.54174578E-09 -6.98041238E-12 -2.93605048E-06
 -1.19263108E-05 -1.26978124E-06 -3.01461574E-11  7.99374842E-10  1.69476524E-04
 -8.47946754E-05  1.15993921E-09 -3.57668281E-08  1.06370036E-04  1.58897861E-05
  4.85407169E-10 -1.56261085E-08  3.79316350E-06 -8.12460223E-06 -8.12456684E-06
 -2.02176476E-10  6.31235515E-09  4.22396246E-13  1.39463733E-06  1.61594629E-05
 -1.13194377E-05 -2.62715991E-13 -8.04706722E-10 -4.79588997E-06  4.04022150E-06
  5.06048433E-10 -2.12090156E-08  1.17976995E-03  2.06760381E-04  1.49181181E-09
 -9.50687674E-08 -1.27344721E-05  4.90827842E-06  4.90927914E-06 -1.82025620E-10
  2.23708374E-09  2.87191473E-11  1.11012624E-07  1.95099239E-06 -3.03613242E-07
  2.23505687E-11 -3.22306276E-10  3.98220524E-06  1.49609951E-06 -1.28675381E-10
  1.83990086E-09 -4.79810343E-05 -1.23176893E-05  3.88556675E-10 -3.88803020E-09
 -6.60663598E-05 -5.25371872E-05 -1.80225223E-09  5.80168106E-08  5.71930624E-06
  3.17604229E-06  3.17629265E-06  1.39259520E-11  6.86366047E-10  1.56823633E-11
  5.32282748E-06 -6.81267841E-05 -1.80138193E-04 -3.22975818E-06  1.14108811E-08
 -4.96434526E-06  5.30842870E-06 -6.80582397E-05 -1.80341642E-04 -3.23181377E-06
  4.29086015E-06  2.49045939E-06  5.30767784E-06 -6.80561296E-05 -1.80353974E-04
 -3.23199461E-06 -4.30222735E-06  2.47065667E-06  8.42653396E-05  2.05284698E-04
 -2.95577033E-04  3.20825124E-09 -9.98191024E-08 -2.42035502E-04 -4.10310629E-04
  4.89885662E-09 -1.54673305E-07  1.30211320E-03  1.12885854E-03 -1.29450840E-08
  3.71459984E-07 -7.70700021E-04 -1.16955496E-05 -1.16963718E-05  9.71703782E-09
 -3.03654246E-07 -1.39706874E-11  9.92697579E-01  3.44548676E-02 -1.42269120E-03
  1.55087089E-08 -4.85809894E-07  5.20895021E-03  1.20091304E-04 -1.31417638E-09
  3.99115478E-08 -3.03585852E-03  3.10033734E-05 -1.74617934E-10  2.26709254E-08
 -7.69922830E-03 -8.42621289E-03 -8.42621301E-03 -9.22927155E-09  2.88868512E-07
 -9.40634620E-12  9.93025002E-01  4.94876983E-02 -5.42657270E-04  2.91892467E-09
 -1.40485847E-07 -1.63305683E-02  4.40151724E-04 -1.00400577E-08  7.14936458E-07
  6.22895526E-03 -2.95075034E-03 -1.40979218E-08  8.28882546E-07 -9.28562197E-03
 -8.75474983E-03 -8.75481284E-03 -5.41932840E-09  1.13658098E-07  3.46134943E-09
 -7.61783317E-06 -5.67787960E-05 -1.68973889E-05 -4.71909779E-10  5.96463198E-09
 -1.29654032E-04  2.15573307E-04  3.46507176E-09 -4.93324745E-08  2.70618314E-03
  1.58234161E-03 -2.22163190E-09 -1.87959178E-07 -4.98681468E-03 -1.75166465E-03
 -1.52738084E-09  1.04880617E-07  1.47441148E-06 -1.52345039E-04 -1.52358500E-04
 -8.38336566E-10 -2.83664272E-08 -6.92981418E-10 -1.58799046E-04  3.03695675E-03
 -9.15864982E-04  4.60417166E-05  2.78751946E-07 -1.20135236E-04 -1.58838262E-04
  3.03616925E-03 -9.16355886E-04  4.60586741E-05  1.03898374E-04  6.02607520E-05
 -1.58835888E-04  3.03615571E-03 -9.16317135E-04  4.60558859E-05 -1.04170124E-04
  5.97823683E-05 -1.37406189E-05 -1.12025434E-04  4.48237682E-05 -2.70960499E-09
  3.61001164E-08 -8.28759787E-04 -1.44637120E-03  2.26801974E-08 -5.06301584E-07
  1.48101347E-03  7.10188312E-04  2.52104845E-08 -4.00449259E-07  1.79610588E-05
 -3.83793342E-05 -3.83585644E-05  2.57758694E-10 -2.20427559E-08  5.21174151E-10
 -4.48032059E-05 -1.79757285E-04  1.28674668E-05 -4.82658774E-10  2.71887511E-08
  1.87398772E-03 -6.30873002E-04  7.28857417E-09 -2.91105063E-07 -8.03223608E-04
 -2.60009150E-04 -2.22531310E-08  4.31447169E-07 -5.08477339E-05 -1.01859000E-04
 -1.01860963E-04  5.19442900E-10  7.71526879E-10 -1.88565834E-11 -2.91045212E-05
 -1.38417261E-04 -9.54751114E-05 -5.27569372E-10  1.49863118E-08  4.61443672E-04
  7.14595907E-04  8.11233949E-09 -2.78215613E-07 -2.20708769E-03  7.13407128E-03
  1.15105198E-08 -4.69038742E-07  3.36758277E-05 -3.37183654E-05 -3.37177073E-05
  2.91711911E-10 -1.20299002E-08  1.72232681E-10  2.35824522E-07  8.16807217E-06
  6.66871728E-06  1.87283707E-10 -3.91644015E-09  1.94889986E-05 -4.36242834E-05
 -1.11804952E-09  2.28090657E-08 -2.21290327E-04  4.39996177E-04  4.40520388E-09
 -8.73246146E-08  8.05365374E-03  1.97253927E-03  1.16036515E-08 -3.62858349E-07
  5.70588484E-05 -1.16128344E-06 -1.15655329E-06  6.37291917E-10 -1.16150256E-08
  1.43824022E-10 -3.89696521E-05 -4.61472710E-04  1.11100549E-04 -2.66170280E-05
  9.90764609E-09 -4.58957372E-06 -3.89982002E-05 -4.61071487E-04  1.11006668E-04
 -2.65244589E-05  3.92646398E-06  2.29951852E-06 -3.90005180E-05 -4.61056640E-04
  1.10984319E-04 -2.65184085E-05 -3.93560272E-06  2.27987762E-06  9.92835674E-01
  4.93994549E-02  1.84800904E-03 -2.23257779E-08  7.00819619E-07 -1.07431953E-02
 -4.65534550E-04  1.18415970E-08 -3.91335481E-07 -9.96651207E-03  9.11186089E-04
  7.74613828E-09 -3.64948859E-07 -8.45562066E-03 -9.72425066E-03 -9.72425420E-03
 -1.57884437E-08  4.99513840E-07 -8.66215280E-11 -4.87790974E-04  8.04796025E-05
  4.28408705E-04 -4.38459315E-09  1.36481182E-07 -1.49748532E-03  7.12671842E-04
 -1.06499491E-08  3.33905495E-07  9.09988233E-03 -3.65383412E-03  3.89882675E-08
 -1.14937298E-06 -2.61400444E-04  1.89475848E-04  1.89476010E-04  6.13445730E-09
 -1.93483708E-07  1.85504770E-13 -8.29502865E-05  1.34061085E-04  2.77284807E-04
  5.55244672E-10 -1.04188979E-08  2.62021848E-03 -1.58053209E-03 -1.47007745E-08
  5.48530759E-08 -2.75094079E-02  3.75643517E-02  1.13381960E-07 -3.18033667E-06
 -6.40673467E-04 -9.41260872E-05 -9.41729342E-05 -2.71406468E-09  6.70019746E-08
 -2.16758099E-09 -2.84609518E-01  1.02275342E+00  4.13271509E-03  7.19986606E-09
 -4.61244523E-07  7.59768705E-02  5.22574934E-04  1.49212551E-09 -5.56941176E-08
 -2.60568692E-02 -1.62701299E-03 -3.17113635E-09  1.66207037E-07  5.90480840E-02
  1.67543802E-02  8.85160785E-08 -2.63787720E-06 -1.52892275E-02 -1.55634671E-02
 -1.55634684E-02  1.97853734E-09 -4.81988692E-08  9.76214458E-11 -4.97272209E-05
 -7.56797185E-04  8.04750946E-04 -5.95719691E-05 -2.29695033E-09  8.56301427E-07
 -4.97555862E-05 -7.56623208E-04  8.05499536E-04 -5.94330326E-05 -7.48426477E-07
 -4.10085551E-07 -4.97598132E-05 -7.56635003E-04  8.05553685E-04 -5.94206312E-05
  7.48952382E-07 -4.06239517E-07  1.86785063E-05  8.31755691E-05  4.24886741E-05
 -1.46664499E-09  6.80905757E-08 -1.39423246E-04  3.10195129E-04  7.35456518E-10
 -1.17660932E-07 -2.46372095E-02  1.20606844E-02 -2.69861470E-08  7.72183589E-07
  9.00925199E-05  1.66417973E-05  1.66381319E-05 -1.07452505E-10  5.22747650E-09
 -1.25875593E-10  1.82334457E-07  1.86592871E-05 -1.74972110E-05 -8.91669241E-10
  2.30893047E-08 -3.35129673E-04  4.19501883E-04 -1.13896603E-09  6.76512455E-08
  9.75265636E-04 -2.98630937E-03  7.93242464E-09 -1.81498768E-07 -6.08750543E-05
  3.97373799E-06  3.97492384E-06  8.32053916E-10 -3.38465284E-08  3.13381255E-11
  7.93942682E-05  1.37450955E-03  2.13590361E-05 -1.02773173E-10 -4.55363544E-08
 -3.38442537E-04  1.54655900E-03 -3.25550283E-08  6.73080535E-07  3.50221566E-02
 -6.09526592E-02 -1.22468050E-07  3.43094198E-06 -1.55788204E-03  2.49208235E-04
  2.49039248E-04 -7.18486665E-09  2.28842355E-07 -6.71273359E-09  1.21789494E-03
 -4.64354957E-03  9.90393647E-01  1.80328166E-06 -9.77099563E-05 -2.55573847E-04
  3.12917991E-02  6.24233271E-08 -3.17523807E-06  4.52286604E-03 -1.31998917E-02
 -2.98498463E-08  1.38950066E-06 -7.09298472E-02 -1.42553372E-02 -1.12289202E-07
  3.21678178E-06  4.77353235E-04 -3.95247735E-04 -3.95259744E-04  3.81986458E-09
 -1.20283816E-07 -3.06645730E-10 -2.32162434E-04  1.41224812E-03 -5.82890563E-03
 -3.08680698E-04  1.07026250E-07 -4.60636773E-05 -2.32471192E-04  1.41160655E-03
 -5.82969155E-03 -3.08484284E-04  3.99474090E-05  2.31757475E-05 -2.32496436E-04
  1.41156940E-03 -5.82973450E-03 -3.08466321E-04 -4.00592504E-05  2.29961858E-05
 -3.10015032E-05 -1.73577385E-04 -1.02073388E-04  1.43036254E-09 -7.38223588E-08
  3.35375668E-03  2.09665576E-03 -2.62889943E-08  9.62047437E-07  5.37256766E-02
 -2.09373135E-02  1.39171118E-08 -5.55344679E-07  9.46076969E-05 -5.63583942E-05
 -5.63572735E-05 -4.54105936E-09  1.36155300E-07  5.68095283E-11 -2.82959849E-06
  1.71504511E-05  3.57347683E-05  1.28125367E-09 -3.12162528E-08 -1.36806684E-03
  1.03715265E-03 -1.59723430E-08  4.44131047E-07 -9.73566423E-03  6.62342753E-03
 -3.36833954E-08  1.04825332E-06 -1.19731700E-04  1.45273085E-05  1.45235626E-05
  1.90809705E-09 -5.03163478E-08 -4.64630843E-11  2.78438243E-09  1.73087609E-08
  1.79842856E-09 -6.96367727E-05  1.22122543E-06 -8.87830010E-08 -7.50149895E-09
  3.16365361E-04 -5.55639570E-06  7.81320231E-08 -6.66239866E-07  3.47124767E-04
 -6.06386540E-06  7.41099216E-10  1.99274250E-06 -1.99190450E-06  4.10864404E-05
 -7.20061530E-07 -9.41956785E-05  3.69990078E-10 -3.12988380E-09 -3.52080837E-06
  9.90693923E-01 -1.73705147E-02 -2.84844495E-09 -9.71133914E-08  2.95866633E-02
 -5.18762219E-04  4.92563681E-08  3.45913849E-08 -1.16185059E-02  2.03713385E-04
 -6.64657286E-07 -1.89331055E-07  5.18104344E-03 -9.08400702E-05 -1.33419920E-09
 -1.18001474E-07  1.14991320E-07  2.66691305E-04 -4.67564692E-06  5.47989634E-06
 -1.33980524E-06  1.12719507E-05 -9.02678526E-05 -4.76021422E-06 -2.69800255E-05
  1.45421838E-06 -5.78422460E-05  4.84249861E-04 -3.89699726E-03 -2.05392594E-04
 -6.34936737E-05 -2.06622241E-05  5.91911217E-05 -4.95347974E-04  3.98722215E-03
  2.10141919E-04 -6.44298030E-05  2.19221657E-05 -1.22371848E-09 -5.06284048E-09
  6.55690645E-10  5.43483579E-05 -9.52608607E-07  2.35071449E-08 -1.56995243E-08
 -2.18659892E-04  3.83248417E-06  5.38124767E-07 -2.98769213E-07  1.03230686E-03
 -1.80959639E-05 -1.64000317E-09 -7.69227188E-08  7.27059492E-08 -2.15943050E-06
  3.77611611E-08  3.53346626E-06 -1.23604791E-10 -9.88317474E-10  5.97344607E-13
 -2.21229830E-05  3.87859921E-07  1.02369216E-08 -4.21755584E-09  1.34180761E-04
 -2.35216473E-06 -2.36869080E-08  8.43716048E-08 -3.83294052E-04  6.71927926E-06
 -1.34894967E-10 -5.12433704E-08  5.17757053E-08 -1.57438685E-05  2.75933315E-07
  2.43313269E-06 -2.50487238E-08 -1.55312868E-07 -2.46951258E-08 -1.22134363E-06
 -6.96705177E-05  7.55702897E-07  9.15211898E-08  5.53371031E-06  3.16138222E-04
 -3.07277597E-06  1.04929351E-05  6.09155799E-06  3.46137501E-04 -9.22387955E-09
 -8.16647798E-05  8.16604258E-05  7.21207067E-07  4.11135835E-05 -2.30575614E-06
 -1.69040867E-08  8.61455583E-08  9.77488168E-05  1.73705146E-02  9.90693925E-01
  4.08490161E-08  2.81282572E-06  5.18763713E-04  2.95866345E-02 -6.62979341E-07
 -9.51257972E-07 -2.03715315E-04 -1.16184072E-02  1.09883270E-05  3.34461677E-06
  9.08459082E-05  5.18106750E-03  5.97412440E-08  4.81012478E-06 -4.80119131E-06
  4.67668974E-06  2.66701210E-04  1.34979984E-07  6.74428099E-05 -5.66493652E-04
  4.55096155E-03  2.39995576E-04 -3.57902689E-07 -7.64016963E-05 -3.49321016E-05
  2.92206092E-04 -2.35278190E-03 -1.24055286E-04 -2.25184823E-05 -3.97774287E-05
 -3.26183931E-05  2.72754912E-04 -2.19639642E-03 -1.15808383E-04  2.01565485E-05
 -3.88349423E-05  1.69382326E-08  7.02455800E-08 -9.91067676E-09  9.52905077E-07