 Entering Gaussian System, Link 0=g16
 Initial command:
 /usr/local/g16_AVX//g16/l1.exe "/scratch/alanqf/0120-54562.ixchel.mda.cinvestav.mx/Gau-47224.inp" -scrdir="/scratch/alanqf/0120-54562.ixchel.mda.cinvestav.mx/"
 Entering Link 1 = /usr/local/g16_AVX//g16/l1.exe PID=     47225.
  
 Copyright (c) 1988-2017, Gaussian, Inc.  All Rights Reserved.
  
 This is part of the Gaussian(R) 16 program.  It is based on
 the Gaussian(R) 09 system (copyright 2009, Gaussian, Inc.),
 the Gaussian(R) 03 system (copyright 2003, Gaussian, Inc.),
 the Gaussian(R) 98 system (copyright 1998, Gaussian, Inc.),
 the Gaussian(R) 94 system (copyright 1995, Gaussian, Inc.),
 the Gaussian 92(TM) system (copyright 1992, Gaussian, Inc.),
 the Gaussian 90(TM) system (copyright 1990, Gaussian, Inc.),
 the Gaussian 88(TM) system (copyright 1988, Gaussian, Inc.),
 the Gaussian 86(TM) system (copyright 1986, Carnegie Mellon
 University), and the Gaussian 82(TM) system (copyright 1983,
 Carnegie Mellon University). Gaussian is a federally registered
 trademark of Gaussian, Inc.
  
 This software contains proprietary and confidential information,
 including trade secrets, belonging to Gaussian, Inc.
  
 This software is provided under written license and may be
 used, copied, transmitted, or stored only in accord with that
 written license.
  
 The following legend is applicable only to US Government
 contracts under FAR:
  
                    RESTRICTED RIGHTS LEGEND
  
 Use, reproduction and disclosure by the US Government is
 subject to restrictions as set forth in subparagraphs (a)
 and (c) of the Commercial Computer Software - Restricted
 Rights clause in FAR 52.227-19.
  
 Gaussian, Inc.
 340 Quinnipiac St., Bldg. 40, Wallingford CT 06492
  
  
 ---------------------------------------------------------------
 Warning -- This program may not be used in any manner that
 competes with the business of Gaussian, Inc. or will provide
 assistance to any competitor of Gaussian, Inc.  The licensee
 of this program is prohibited from giving any competitor of
 Gaussian, Inc. access to this program.  By using this program,
 the user acknowledges that Gaussian, Inc. is engaged in the
 business of creating and licensing software in the field of
 computational chemistry and represents and warrants to the
 licensee that it is not a competitor of Gaussian, Inc. and that
 it will not use this program in any manner prohibited above.
 ---------------------------------------------------------------
  

 Cite this work as:
 Gaussian 16, Revision B.01,
 M. J. Frisch, G. W. Trucks, H. B. Schlegel, G. E. Scuseria, 
 M. A. Robb, J. R. Cheeseman, G. Scalmani, V. Barone, 
 G. A. Petersson, H. Nakatsuji, X. Li, M. Caricato, A. V. Marenich, 
 J. Bloino, B. G. Janesko, R. Gomperts, B. Mennucci, H. P. Hratchian, 
 J. V. Ortiz, A. F. Izmaylov, J. L. Sonnenberg, D. Williams-Young, 
 F. Ding, F. Lipparini, F. Egidi, J. Goings, B. Peng, A. Petrone, 
 T. Henderson, D. Ranasinghe, V. G. Zakrzewski, J. Gao, N. Rega, 
 G. Zheng, W. Liang, M. Hada, M. Ehara, K. Toyota, R. Fukuda, 
 J. Hasegawa, M. Ishida, T. Nakajima, Y. Honda, O. Kitao, H. Nakai, 
 T. Vreven, K. Throssell, J. A. Montgomery, Jr., J. E. Peralta, 
 F. Ogliaro, M. J. Bearpark, J. J. Heyd, E. N. Brothers, K. N. Kudin, 
 V. N. Staroverov, T. A. Keith, R. Kobayashi, J. Normand, 
 K. Raghavachari, A. P. Rendell, J. C. Burant, S. S. Iyengar, 
 J. Tomasi, M. Cossi, J. M. Millam, M. Klene, C. Adamo, R. Cammi, 
 J. W. Ochterski, R. L. Martin, K. Morokuma, O. Farkas, 
 J. B. Foresman, and D. J. Fox, Gaussian, Inc., Wallingford CT, 2016.
 
 ******************************************
 Gaussian 16:  ES64L-G16RevB.01 20-Dec-2017
                13-Oct-2024 
 ******************************************
 %NProcShared=26
 Will use up to   26 processors via shared memory.
 %MEM=20GB
 %chk=CHKfiles/0120.chk
 ---------------------------------------------------------------------
 #p b3lyp 6-31++g(d,p) scf=verytight NoSymm freq=noraman int=ultrafine
 ---------------------------------------------------------------------
 1/10=4,30=1,38=1/1,3;
 2/12=2,15=1,17=6,18=5,40=1/2;
 3/5=1,6=6,7=1111,11=2,25=1,30=1,71=2,74=-5,75=-5,140=1/1,2,3;
 4//1;
 5/5=2,17=3,38=5,98=1/2;
 8/6=4,10=90,11=11/1;
 11/6=1,8=1,9=11,15=111,16=1,31=1/1,2,10;
 10/6=1,31=1/2;
 6/7=2,8=2,9=2,10=2,28=1/1;
 7/8=1,10=1,25=1,30=1/1,2,3,16;
 1/10=4,30=1/3;
 99//99;
 Leave Link    1 at Sun Oct 13 09:51:22 2024, MaxMem=  2684354560 cpu:               2.5 elap:               0.1
 (Enter /usr/local/g16_AVX//g16/l101.exe)
 ------------------------
 RxCoord=1.89956 DE=49.14
 ------------------------
 Symbolic Z-matrix:
 Charge = -1 Multiplicity = 1
 C                    -0.24709   0.00001  -0.00019 
 Cl                   -2.16021  0.         0.00005 
 H                     0.04217   0.00241  -1.04275 
 H                     0.04256   0.90168   0.523 
 H                     0.04258  -0.90406   0.51885 
 C                     2.37957   0.00001  -0.00016 
 N                     3.55793  -0.00001   0.00024 
 
 ITRead=  0  0  0  0  0  0  0
 MicOpt= -1 -1 -1 -1 -1 -1 -1
 NAtoms=      7 NQM=        7 NQMF=       0 NMMI=      0 NMMIF=      0
                NMic=       0 NMicF=      0.
                    Isotopes and Nuclear Properties:
 (Nuclear quadrupole moments (NQMom) in fm**2, nuclear magnetic moments (NMagM)
  in nuclear magnetons)

  Atom         1           2           3           4           5           6           7
 IAtWgt=          12          35           1           1           1          12          14
 AtmWgt=  12.0000000  34.9688527   1.0078250   1.0078250   1.0078250  12.0000000  14.0030740
 NucSpn=           0           3           1           1           1           0           2
 AtZEff=  -0.0000000  -0.0000000  -0.0000000  -0.0000000  -0.0000000  -0.0000000  -0.0000000
 NQMom=    0.0000000  -8.1650000   0.0000000   0.0000000   0.0000000   0.0000000   2.0440000
 NMagM=    0.0000000   0.8218740   2.7928460   2.7928460   2.7928460   0.0000000   0.4037610
 AtZNuc=   6.0000000  17.0000000   1.0000000   1.0000000   1.0000000   6.0000000   7.0000000
 Leave Link  101 at Sun Oct 13 09:51:22 2024, MaxMem=  2684354560 cpu:               2.9 elap:               0.2
 (Enter /usr/local/g16_AVX//g16/l103.exe)

 GradGradGradGradGradGradGradGradGradGradGradGradGradGradGradGradGradGrad
 Berny optimization.
 Initialization pass.
 Trust Radius=3.00D-01 FncErr=1.00D-07 GrdErr=1.00D-07 EigMax=2.50D+02 EigMin=1.00D-04
 Number of steps in this run=      2 maximum allowed number of steps=      2.
 GradGradGradGradGradGradGradGradGradGradGradGradGradGradGradGradGradGrad

 Leave Link  103 at Sun Oct 13 09:51:23 2024, MaxMem=  2684354560 cpu:               1.3 elap:               0.1
 (Enter /usr/local/g16_AVX//g16/l202.exe)
                          Input orientation:                          
 ---------------------------------------------------------------------
 Center     Atomic      Atomic             Coordinates (Angstroms)
 Number     Number       Type             X           Y           Z
 ---------------------------------------------------------------------
      1          6           0       -0.247089    0.000006   -0.000189
      2         17           0       -2.160207   -0.000002    0.000049
      3          1           0        0.042170    0.002405   -1.042747
      4          1           0        0.042556    0.901681    0.523001
      5          1           0        0.042581   -0.904061    0.518845
      6          6           0        2.379569    0.000005   -0.000163
      7          7           0        3.557927   -0.000008    0.000244
 ---------------------------------------------------------------------
                    Distance matrix (angstroms):
                    1          2          3          4          5
     1  C    0.000000
     2  Cl   1.913118   0.000000
     3  H    1.081944   2.436779   0.000000
     4  H    1.081961   2.436940   1.805620   0.000000
     5  H    1.081962   2.436954   1.805616   1.805747   0.000000
     6  C    2.626658   4.539776   2.559379   2.558974   2.558949
     7  N    3.805016   5.718134   3.667204   3.666627   3.666595
                    6          7
     6  C    0.000000
     7  N    1.178358   0.000000
 Symmetry turned off by external request.
 This structure is nearly, but not quite of a higher symmetry.
 Consider Symm=Loose if the higher symmetry is desired.
 Stoichiometry    C2H3ClN(1-)
 Framework group  C1[X(C2H3ClN)]
 Deg. of freedom    15
 Full point group                 C1      NOp   1
 Rotational constants (GHZ):         153.8010625           1.2303099           1.2303089
 Leave Link  202 at Sun Oct 13 09:51:23 2024, MaxMem=  2684354560 cpu:               1.8 elap:               0.1
 (Enter /usr/local/g16_AVX//g16/l301.exe)
 Standard basis: 6-31++G(d,p) (6D, 7F)
 Ernie: Thresh=  0.10000D-02 Tol=  0.10000D-05 Strict=F.
    98 basis functions,   176 primitive gaussians,    98 cartesian basis functions
    20 alpha electrons       20 beta electrons
       nuclear repulsion energy       110.5814843881 Hartrees.
 IExCor=  402 DFT=T Ex+Corr=B3LYP ExCW=0 ScaHFX=  0.200000
 ScaDFX=  0.800000  0.720000  1.000000  0.810000 ScalE2=  1.000000  1.000000
 IRadAn=      5 IRanWt=     -1 IRanGd=            0 ICorTp=0 IEmpDi=  4
 NAtoms=    7 NActive=    7 NUniq=    7 SFac= 1.00D+00 NAtFMM=   60 NAOKFM=F Big=F
 Integral buffers will be    131072 words long.
 Raffenetti 2 integral format.
 Two-electron integral symmetry is turned off.
 Leave Link  301 at Sun Oct 13 09:51:23 2024, MaxMem=  2684354560 cpu:               1.7 elap:               0.1
 (Enter /usr/local/g16_AVX//g16/l302.exe)
 NPDir=0 NMtPBC=     1 NCelOv=     1 NCel=       1 NClECP=     1 NCelD=      1
         NCelK=      1 NCelE2=     1 NClLst=     1 CellRange=     0.0.
 One-electron integrals computed using PRISM.
 NBasis=    98 RedAO= T EigKep=  1.25D-04  NBF=    98
 NBsUse=    98 1.00D-06 EigRej= -1.00D+00 NBFU=    98
 Precomputing XC quadrature grid using
 IXCGrd= 4 IRadAn=           5 IRanWt=          -1 IRanGd=           0 AccXCQ= 0.00D+00.
 Generated NRdTot=       0 NPtTot=           0 NUsed=           0 NTot=          32
 NSgBfM=    98    98    98    98    98 MxSgAt=     7 MxSgA2=     7.
 Leave Link  302 at Sun Oct 13 09:51:23 2024, MaxMem=  2684354560 cpu:               5.8 elap:               0.3
 (Enter /usr/local/g16_AVX//g16/l303.exe)
 DipDrv:  MaxL=1.
 Leave Link  303 at Sun Oct 13 09:51:23 2024, MaxMem=  2684354560 cpu:               2.7 elap:               0.2
 (Enter /usr/local/g16_AVX//g16/l401.exe)
 ExpMin= 3.60D-02 ExpMax= 2.52D+04 ExpMxC= 3.78D+03 IAcc=3 IRadAn=         5 AccDes= 0.00D+00
 Harris functional with IExCor=  402 and IRadAn=       5 diagonalized for initial guess.
 HarFok:  IExCor=  402 AccDes= 0.00D+00 IRadAn=         5 IDoV= 1 UseB2=F ITyADJ=14
 ICtDFT=  3500011 ScaDFX=  1.000000  1.000000  1.000000  1.000000
 FoFCou: FMM=F IPFlag=           0 FMFlag=      100000 FMFlg1=           0
         NFxFlg=           0 DoJE=T BraDBF=F KetDBF=T FulRan=T
         wScrn=  0.000000 ICntrl=       500 IOpCl=  0 I1Cent=   200000004 NGrid=           0
         NMat0=    1 NMatS0=      1 NMatT0=    0 NMatD0=    1 NMtDS0=    0 NMtDT0=    0
 Symmetry not used in FoFCou.
 Harris En= -593.071011967771    
 JPrj=0 DoOrth=F DoCkMO=F.
 Leave Link  401 at Sun Oct 13 09:51:24 2024, MaxMem=  2684354560 cpu:               6.0 elap:               0.3
 (Enter /usr/local/g16_AVX//g16/l502.exe)
 Keep R1 ints in memory in canonical form, NReq=35752935.
 FoFCou: FMM=F IPFlag=           0 FMFlag=           0 FMFlg1=           0
         NFxFlg=           0 DoJE=F BraDBF=F KetDBF=F FulRan=T
         wScrn=  0.000000 ICntrl=       600 IOpCl=  0 I1Cent=           0 NGrid=           0
         NMat0=    1 NMatS0=   4851 NMatT0=    0 NMatD0=    1 NMtDS0=    0 NMtDT0=    0
 Symmetry not used in FoFCou.
 Two-electron integral symmetry not used.
 Closed shell SCF:
 Using DIIS extrapolation, IDIIS=  1040.
 NGot=  2684354560 LenX=  2672563405 LenY=  2672553360
 Requested convergence on RMS density matrix=1.00D-08 within 128 cycles.
 Requested convergence on MAX density matrix=1.00D-06.
 Requested convergence on             energy=1.00D-06.
 No special actions if energy rises.

 Cycle   1  Pass 1  IDiag  1:
 E= -592.837258517173    
 DIIS: error= 3.46D-02 at cycle   1 NSaved=   1.
 NSaved= 1 IEnMin= 1 EnMin= -592.837258517173     IErMin= 1 ErrMin= 3.46D-02
 ErrMax= 3.46D-02  0.00D+00 EMaxC= 1.00D-01 BMatC= 1.32D-01 BMatP= 1.32D-01
 IDIUse=3 WtCom= 6.54D-01 WtEn= 3.46D-01
 Coeff-Com:  0.100D+01
 Coeff-En:   0.100D+01
 Coeff:      0.100D+01
 Gap=     0.395 Goal=   None    Shift=    0.000
 GapD=    0.395 DampG=1.000 DampE=0.500 DampFc=0.5000 IDamp=-1.
 Damping current iteration by 5.00D-01
 RMSDP=8.84D-02 MaxDP=3.11D+00              OVMax= 3.91D-01

 Cycle   2  Pass 1  IDiag  1:
 E= -592.871908716631     Delta-E=       -0.034650199459 Rises=F Damp=T
 DIIS: error= 1.12D-02 at cycle   2 NSaved=   2.
 NSaved= 2 IEnMin= 2 EnMin= -592.871908716631     IErMin= 2 ErrMin= 1.12D-02
 ErrMax= 1.12D-02  0.00D+00 EMaxC= 1.00D-01 BMatC= 1.70D-02 BMatP= 1.32D-01
 IDIUse=3 WtCom= 8.88D-01 WtEn= 1.12D-01
 Coeff-Com:  0.198D+00 0.802D+00
 Coeff-En:   0.378D+00 0.622D+00
 Coeff:      0.218D+00 0.782D+00
 Gap=     0.195 Goal=   None    Shift=    0.000
 RMSDP=4.34D-02 MaxDP=1.57D+00 DE=-3.47D-02 OVMax= 2.87D-01

 Cycle   3  Pass 1  IDiag  1:
 E= -592.979433292154     Delta-E=       -0.107524575522 Rises=F Damp=F
 DIIS: error= 1.66D-02 at cycle   3 NSaved=   3.
 NSaved= 3 IEnMin= 3 EnMin= -592.979433292154     IErMin= 2 ErrMin= 1.12D-02
 ErrMax= 1.66D-02  0.00D+00 EMaxC= 1.00D-01 BMatC= 1.34D-02 BMatP= 1.70D-02
 IDIUse=3 WtCom= 8.34D-01 WtEn= 1.66D-01
 Coeff-Com:  0.605D-01 0.472D+00 0.467D+00
 Coeff-En:   0.000D+00 0.000D+00 0.100D+01
 Coeff:      0.504D-01 0.394D+00 0.556D+00
 Gap=     0.199 Goal=   None    Shift=    0.000
 RMSDP=1.91D-03 MaxDP=3.81D-02 DE=-1.08D-01 OVMax= 6.69D-02

 Cycle   4  Pass 1  IDiag  1:
 E= -592.983967356307     Delta-E=       -0.004534064153 Rises=F Damp=F
 DIIS: error= 1.42D-02 at cycle   4 NSaved=   4.
 NSaved= 4 IEnMin= 4 EnMin= -592.983967356307     IErMin= 2 ErrMin= 1.12D-02
 ErrMax= 1.42D-02  0.00D+00 EMaxC= 1.00D-01 BMatC= 8.78D-03 BMatP= 1.34D-02
 IDIUse=3 WtCom= 8.58D-01 WtEn= 1.42D-01
 Coeff-Com: -0.138D-01 0.990D-01 0.442D+00 0.473D+00
 Coeff-En:   0.000D+00 0.000D+00 0.416D+00 0.584D+00
 Coeff:     -0.118D-01 0.849D-01 0.438D+00 0.489D+00
 Gap=     0.184 Goal=   None    Shift=    0.000
 RMSDP=1.17D-03 MaxDP=1.73D-02 DE=-4.53D-03 OVMax= 3.39D-02

 Cycle   5  Pass 1  IDiag  1:
 E= -592.991709333560     Delta-E=       -0.007741977253 Rises=F Damp=F
 DIIS: error= 2.30D-03 at cycle   5 NSaved=   5.
 NSaved= 5 IEnMin= 5 EnMin= -592.991709333560     IErMin= 5 ErrMin= 2.30D-03
 ErrMax= 2.30D-03  0.00D+00 EMaxC= 1.00D-01 BMatC= 3.45D-04 BMatP= 8.78D-03
 IDIUse=3 WtCom= 9.77D-01 WtEn= 2.30D-02
 Coeff-Com: -0.105D-01 0.273D-01 0.201D+00 0.271D+00 0.512D+00
 Coeff-En:   0.000D+00 0.000D+00 0.000D+00 0.000D+00 0.100D+01
 Coeff:     -0.102D-01 0.267D-01 0.196D+00 0.264D+00 0.523D+00
 Gap=     0.188 Goal=   None    Shift=    0.000
 RMSDP=4.57D-04 MaxDP=7.27D-03 DE=-7.74D-03 OVMax= 9.22D-03

 Cycle   6  Pass 1  IDiag  1:
 E= -592.992080520094     Delta-E=       -0.000371186534 Rises=F Damp=F
 DIIS: error= 3.79D-04 at cycle   6 NSaved=   6.
 NSaved= 6 IEnMin= 6 EnMin= -592.992080520094     IErMin= 6 ErrMin= 3.79D-04
 ErrMax= 3.79D-04  0.00D+00 EMaxC= 1.00D-01 BMatC= 1.42D-05 BMatP= 3.45D-04
 IDIUse=3 WtCom= 9.96D-01 WtEn= 3.79D-03
 Coeff-Com: -0.340D-02 0.131D-02 0.548D-01 0.803D-01 0.240D+00 0.627D+00
 Coeff-En:   0.000D+00 0.000D+00 0.000D+00 0.000D+00 0.000D+00 0.100D+01
 Coeff:     -0.338D-02 0.130D-02 0.546D-01 0.800D-01 0.239D+00 0.628D+00
 Gap=     0.187 Goal=   None    Shift=    0.000
 RMSDP=7.86D-05 MaxDP=1.69D-03 DE=-3.71D-04 OVMax= 1.33D-03

 Cycle   7  Pass 1  IDiag  1:
 E= -592.992095029854     Delta-E=       -0.000014509760 Rises=F Damp=F
 DIIS: error= 6.18D-05 at cycle   7 NSaved=   7.
 NSaved= 7 IEnMin= 7 EnMin= -592.992095029854     IErMin= 7 ErrMin= 6.18D-05
 ErrMax= 6.18D-05  0.00D+00 EMaxC= 1.00D-01 BMatC= 3.96D-07 BMatP= 1.42D-05
 IDIUse=1 WtCom= 1.00D+00 WtEn= 0.00D+00
 Coeff-Com: -0.778D-04-0.106D-02 0.330D-02 0.455D-02 0.346D-01 0.197D+00
 Coeff-Com:  0.762D+00
 Coeff:     -0.778D-04-0.106D-02 0.330D-02 0.455D-02 0.346D-01 0.197D+00
 Coeff:      0.762D+00
 Gap=     0.187 Goal=   None    Shift=    0.000
 RMSDP=2.47D-05 MaxDP=4.39D-04 DE=-1.45D-05 OVMax= 3.82D-04

 Cycle   8  Pass 1  IDiag  1:
 E= -592.992095480654     Delta-E=       -0.000000450800 Rises=F Damp=F
 DIIS: error= 1.72D-05 at cycle   8 NSaved=   8.
 NSaved= 8 IEnMin= 8 EnMin= -592.992095480654     IErMin= 8 ErrMin= 1.72D-05
 ErrMax= 1.72D-05  0.00D+00 EMaxC= 1.00D-01 BMatC= 3.94D-08 BMatP= 3.96D-07
 IDIUse=1 WtCom= 1.00D+00 WtEn= 0.00D+00
 Coeff-Com:  0.221D-03-0.683D-03-0.148D-02-0.213D-02 0.273D-02 0.501D-01
 Coeff-Com:  0.317D+00 0.635D+00
 Coeff:      0.221D-03-0.683D-03-0.148D-02-0.213D-02 0.273D-02 0.501D-01
 Coeff:      0.317D+00 0.635D+00
 Gap=     0.187 Goal=   None    Shift=    0.000
 RMSDP=4.12D-06 MaxDP=1.03D-04 DE=-4.51D-07 OVMax= 7.52D-05

 Cycle   9  Pass 1  IDiag  1:
 E= -592.992095525487     Delta-E=       -0.000000044834 Rises=F Damp=F
 DIIS: error= 3.20D-06 at cycle   9 NSaved=   9.
 NSaved= 9 IEnMin= 9 EnMin= -592.992095525487     IErMin= 9 ErrMin= 3.20D-06
 ErrMax= 3.20D-06  0.00D+00 EMaxC= 1.00D-01 BMatC= 1.38D-09 BMatP= 3.94D-08
 IDIUse=1 WtCom= 1.00D+00 WtEn= 0.00D+00
 Coeff-Com:  0.724D-04-0.131D-03-0.474D-03-0.617D-03-0.870D-03 0.240D-02
 Coeff-Com:  0.413D-01 0.203D+00 0.756D+00
 Coeff:      0.724D-04-0.131D-03-0.474D-03-0.617D-03-0.870D-03 0.240D-02
 Coeff:      0.413D-01 0.203D+00 0.756D+00
 Gap=     0.187 Goal=   None    Shift=    0.000
 RMSDP=1.34D-06 MaxDP=2.97D-05 DE=-4.48D-08 OVMax= 9.93D-06

 Cycle  10  Pass 1  IDiag  1:
 E= -592.992095527052     Delta-E=       -0.000000001565 Rises=F Damp=F
 DIIS: error= 4.30D-07 at cycle  10 NSaved=  10.
 NSaved=10 IEnMin=10 EnMin= -592.992095527052     IErMin=10 ErrMin= 4.30D-07
 ErrMax= 4.30D-07  0.00D+00 EMaxC= 1.00D-01 BMatC= 1.34D-11 BMatP= 1.38D-09
 IDIUse=1 WtCom= 1.00D+00 WtEn= 0.00D+00
 Coeff-Com:  0.374D-05 0.127D-05-0.273D-04-0.243D-04-0.177D-03-0.933D-03
 Coeff-Com: -0.517D-02 0.137D-01 0.957D-01 0.897D+00
 Coeff:      0.374D-05 0.127D-05-0.273D-04-0.243D-04-0.177D-03-0.933D-03
 Coeff:     -0.517D-02 0.137D-01 0.957D-01 0.897D+00
 Gap=     0.187 Goal=   None    Shift=    0.000
 RMSDP=1.13D-07 MaxDP=2.82D-06 DE=-1.56D-09 OVMax= 2.14D-06

 Cycle  11  Pass 1  IDiag  1:
 E= -592.992095527067     Delta-E=       -0.000000000015 Rises=F Damp=F
 DIIS: error= 8.08D-08 at cycle  11 NSaved=  11.
 NSaved=11 IEnMin=11 EnMin= -592.992095527067     IErMin=11 ErrMin= 8.08D-08
 ErrMax= 8.08D-08  0.00D+00 EMaxC= 1.00D-01 BMatC= 3.90D-13 BMatP= 1.34D-11
 IDIUse=1 WtCom= 1.00D+00 WtEn= 0.00D+00
 Coeff-Com: -0.776D-06 0.176D-05-0.222D-05 0.269D-06-0.204D-04-0.901D-04
 Coeff-Com: -0.751D-03-0.528D-03 0.407D-02 0.103D+00 0.895D+00
 Coeff:     -0.776D-06 0.176D-05-0.222D-05 0.269D-06-0.204D-04-0.901D-04
 Coeff:     -0.751D-03-0.528D-03 0.407D-02 0.103D+00 0.895D+00
 Gap=     0.187 Goal=   None    Shift=    0.000
 RMSDP=1.37D-08 MaxDP=2.14D-07 DE=-1.55D-11 OVMax= 2.13D-07

 Cycle  12  Pass 1  IDiag  1:
 E= -592.992095527068     Delta-E=       -0.000000000001 Rises=F Damp=F
 DIIS: error= 8.60D-09 at cycle  12 NSaved=  12.
 NSaved=12 IEnMin=12 EnMin= -592.992095527068     IErMin=12 ErrMin= 8.60D-09
 ErrMax= 8.60D-09  0.00D+00 EMaxC= 1.00D-01 BMatC= 7.84D-15 BMatP= 3.90D-13
 IDIUse=1 WtCom= 1.00D+00 WtEn= 0.00D+00
 Coeff-Com: -0.248D-06 0.304D-06-0.636D-06-0.548D-06-0.131D-05-0.759D-06
 Coeff-Com:  0.484D-05-0.403D-03-0.974D-03 0.908D-03 0.160D+00 0.841D+00
 Coeff:     -0.248D-06 0.304D-06-0.636D-06-0.548D-06-0.131D-05-0.759D-06
 Coeff:      0.484D-05-0.403D-03-0.974D-03 0.908D-03 0.160D+00 0.841D+00
 Gap=     0.187 Goal=   None    Shift=    0.000
 RMSDP=4.52D-09 MaxDP=7.97D-08 DE=-7.96D-13 OVMax= 5.73D-08

 SCF Done:  E(RB3LYP) =  -592.992095527     A.U. after   12 cycles
            NFock= 12  Conv=0.45D-08     -V/T= 2.0045
 KE= 5.903073250032D+02 PE=-1.631044707563D+03 EE= 3.371638026452D+02
 Leave Link  502 at Sun Oct 13 09:51:25 2024, MaxMem=  2684354560 cpu:              33.7 elap:               1.6
 (Enter /usr/local/g16_AVX//g16/l801.exe)
 DoSCS=F DFT=T ScalE2(SS,OS)=  1.000000  1.000000
 Range of M.O.s used for correlation:     1    98
 NBasis=    98 NAE=    20 NBE=    20 NFC=     0 NFV=     0
 NROrb=     98 NOA=    20 NOB=    20 NVA=    78 NVB=    78

 **** Warning!!: The largest alpha MO coefficient is  0.33475003D+02

 Leave Link  801 at Sun Oct 13 09:51:25 2024, MaxMem=  2684354560 cpu:               1.7 elap:               0.1
 (Enter /usr/local/g16_AVX//g16/l1101.exe)
 Using compressed storage, NAtomX=     7.
 Will process      8 centers per pass.
 Leave Link 1101 at Sun Oct 13 09:51:26 2024, MaxMem=  2684354560 cpu:               3.4 elap:               0.2
 (Enter /usr/local/g16_AVX//g16/l1102.exe)
 Symmetrizing basis deriv contribution to polar:
 IMax=3 JMax=2 DiffMx= 0.00D+00
 Leave Link 1102 at Sun Oct 13 09:51:26 2024, MaxMem=  2684354560 cpu:               0.9 elap:               0.1
 (Enter /usr/local/g16_AVX//g16/l1110.exe)
 Forming Gx(P) for the SCF density, NAtomX=     7.
 Integral derivatives from FoFJK, PRISM(SPDF).
 Do as many integral derivatives as possible in FoFJK.
 G2DrvN: MDV=    2684353864.
 G2DrvN: will do     8 centers at a time, making    1 passes.
 Calling FoFCou, ICntrl=  3107 FMM=F I1Cent=   0 AccDes= 0.00D+00.
 FoFJK:  IHMeth= 1 ICntrl=    3107 DoSepK=F KAlg= 0 I1Cent=           0 FoldK=F
 IRaf=         0 NMat=       1 IRICut=       1 DoRegI=T DoRafI=F ISym2E= 0 IDoP0=0 IntGTp=1.
 FoFCou: FMM=F IPFlag=           0 FMFlag=      100000 FMFlg1=           0
         NFxFlg=           0 DoJE=F BraDBF=F KetDBF=F FulRan=T
         wScrn=  0.000000 ICntrl=      3107 IOpCl=  0 I1Cent=           0 NGrid=           0
         NMat0=    1 NMatS0=      1 NMatT0=    0 NMatD0=    1 NMtDS0=    0 NMtDT0=    0
 Symmetry not used in FoFCou.
 End of G2Drv F.D. properties file   721 does not exist.
 End of G2Drv F.D. properties file   722 does not exist.
 End of G2Drv F.D. properties file   788 does not exist.
 Leave Link 1110 at Sun Oct 13 09:51:27 2024, MaxMem=  2684354560 cpu:              37.1 elap:               1.5
 (Enter /usr/local/g16_AVX//g16/l1002.exe)
 Minotr:  Closed shell wavefunction.
          IDoAtm=1111111
          Direct CPHF calculation.
          Differentiating once with respect to electric field.
                with respect to dipole field.
          Differentiating once with respect to nuclear coordinates.
          Requested convergence is 1.0D-08 RMS, and 1.0D-07 maximum.
          Secondary convergence is 1.0D-12 RMS, and 1.0D-12 maximum.
          NewPWx=T KeepS1=F KeepF1=F KeepIn=T MapXYZ=F SortEE=F KeepMc=T.
         2136 words used for storage of precomputed grid.
 Keep R1 ints in memory in canonical form, NReq=35668397.
 FoFCou: FMM=F IPFlag=           0 FMFlag=           0 FMFlg1=           0
         NFxFlg=           0 DoJE=F BraDBF=F KetDBF=F FulRan=T
         wScrn=  0.000000 ICntrl=       600 IOpCl=  0 I1Cent=           0 NGrid=           0
         NMat0=    1 NMatS0=   4851 NMatT0=    0 NMatD0=    1 NMtDS0=    0 NMtDT0=    0
 Symmetry not used in FoFCou.
 Two-electron integral symmetry not used.
          MDV=    2684354560 using IRadAn=       1.
          Solving linear equations simultaneously, MaxMat=       0.
          There are    24 degrees of freedom in the 1st order CPHF.  IDoFFX=6 NUNeed=     3.
     21 vectors produced by pass  0 Test12= 6.50D-15 4.17D-09 XBig12= 1.00D+02 5.54D+00.
 AX will form    21 AO Fock derivatives at one time.
     21 vectors produced by pass  1 Test12= 6.50D-15 4.17D-09 XBig12= 4.31D+01 1.85D+00.
     21 vectors produced by pass  2 Test12= 6.50D-15 4.17D-09 XBig12= 9.03D-01 2.45D-01.
     21 vectors produced by pass  3 Test12= 6.50D-15 4.17D-09 XBig12= 1.48D-02 2.78D-02.
     21 vectors produced by pass  4 Test12= 6.50D-15 4.17D-09 XBig12= 5.45D-05 1.68D-03.
     16 vectors produced by pass  5 Test12= 6.50D-15 4.17D-09 XBig12= 1.42D-07 7.62D-05.
      6 vectors produced by pass  6 Test12= 6.50D-15 4.17D-09 XBig12= 1.43D-10 2.70D-06.
      1 vectors produced by pass  7 Test12= 6.50D-15 4.17D-09 XBig12= 1.02D-13 5.92D-08.
 InvSVY:  IOpt=1 It=  1 EMax= 7.11D-15
 Solved reduced A of dimension   128 with    24 vectors.
 FullF1:  Do perturbations      1 to       3.
 Isotropic polarizability for W=    0.000000       59.55 Bohr**3.
 End of Minotr F.D. properties file   721 does not exist.
 End of Minotr F.D. properties file   722 does not exist.
 End of Minotr F.D. properties file   788 does not exist.
 Leave Link 1002 at Sun Oct 13 09:51:29 2024, MaxMem=  2684354560 cpu:              47.8 elap:               1.9
 (Enter /usr/local/g16_AVX//g16/l601.exe)
 Copying SCF densities to generalized density rwf, IOpCl= 0 IROHF=0.

 **********************************************************************

            Population analysis using the SCF Density.

 **********************************************************************

 Alpha  occ. eigenvalues -- -101.39326 -14.10191 -10.09931  -9.96667  -9.30903
 Alpha  occ. eigenvalues --   -7.07161  -7.06397  -7.06397  -0.68914  -0.65600
 Alpha  occ. eigenvalues --   -0.53682  -0.30102  -0.30100  -0.25682  -0.18740
 Alpha  occ. eigenvalues --   -0.16491  -0.16491  -0.10461  -0.10461  -0.07534
 Alpha virt. eigenvalues --    0.11210   0.12988   0.14764   0.14764   0.16846
 Alpha virt. eigenvalues --    0.19909   0.20605   0.20606   0.22177   0.22179
 Alpha virt. eigenvalues --    0.24604   0.25078   0.25078   0.26955   0.27068
 Alpha virt. eigenvalues --    0.27069   0.31432   0.34142   0.34144   0.36781
 Alpha virt. eigenvalues --    0.38376   0.38447   0.38448   0.46672   0.47989
 Alpha virt. eigenvalues --    0.68719   0.74742   0.75295   0.75296   0.78323
 Alpha virt. eigenvalues --    0.78324   0.88552   0.89222   0.89224   0.98903
 Alpha virt. eigenvalues --    1.01121   1.01122   1.06051   1.06052   1.06433
 Alpha virt. eigenvalues --    1.09743   1.09746   1.12183   1.18750   1.18750
 Alpha virt. eigenvalues --    1.26091   1.30584   1.35930   1.49358   1.60248
 Alpha virt. eigenvalues --    1.60252   1.77397   1.77398   1.79750   1.79751
 Alpha virt. eigenvalues --    1.81023   2.15292   2.19514   2.19515   2.20746
 Alpha virt. eigenvalues --    2.20753   2.24235   2.52269   2.52277   2.64365
 Alpha virt. eigenvalues --    2.82844   2.82844   2.84505   2.96270   2.96281
 Alpha virt. eigenvalues --    3.26354   3.40679   3.56302   3.56309   4.21416
 Alpha virt. eigenvalues --    4.44411   4.46515   4.56248
          Condensed to atoms (all electrons):
               1          2          3          4          5          6
     1  C    5.495107  -0.152679   0.425608   0.425612   0.425613  -0.220848
     2  Cl  -0.152679  17.477478  -0.051160  -0.051102  -0.051099   0.100781
     3  H    0.425608  -0.051160   0.504561  -0.022809  -0.022809  -0.044026
     4  H    0.425612  -0.051102  -0.022809   0.504509  -0.022781  -0.044092
     5  H    0.425613  -0.051099  -0.022809  -0.022781   0.504505  -0.044096
     6  C   -0.220848   0.100781  -0.044026  -0.044092  -0.044096   6.014813
     7  N   -0.006824  -0.003780  -0.000540  -0.000538  -0.000538   0.681895
               7
     1  C   -0.006824
     2  Cl  -0.003780
     3  H   -0.000540
     4  H   -0.000538
     5  H   -0.000538
     6  C    0.681895
     7  N    6.859451
 Mulliken charges:
               1
     1  C   -0.391588
     2  Cl  -0.268439
     3  H    0.211174
     4  H    0.211201
     5  H    0.211204
     6  C   -0.444427
     7  N   -0.529127
 Sum of Mulliken charges =  -1.00000
 Mulliken charges with hydrogens summed into heavy atoms:
               1
     1  C    0.241992
     2  Cl  -0.268439
     6  C   -0.444427
     7  N   -0.529127
 APT charges:
               1
     1  C    0.816392
     2  Cl  -0.794550
     3  H    0.007646
     4  H    0.007700
     5  H    0.007703
     6  C   -0.408950
     7  N   -0.635940
 Sum of APT charges =  -1.00000
 APT charges with hydrogens summed into heavy atoms:
               1
     1  C    0.839441
     2  Cl  -0.794550
     6  C   -0.408950
     7  N   -0.635940
 Electronic spatial extent (au):  <R**2>=            852.2506
 Charge=             -1.0000 electrons
 Dipole moment (field-independent basis, Debye):
    X=             -8.6082    Y=              0.0000    Z=             -0.0005  Tot=              8.6082
 Quadrupole moment (field-independent basis, Debye-Ang):
   XX=            -88.2286   YY=            -35.3927   ZZ=            -35.3933
   XY=              0.0000   XZ=             -0.0012   YZ=              0.0000
 Traceless Quadrupole moment (field-independent basis, Debye-Ang):
   XX=            -35.2238   YY=             17.6122   ZZ=             17.6116
   XY=              0.0000   XZ=             -0.0012   YZ=              0.0000
 Octapole moment (field-independent basis, Debye-Ang**2):
  XXX=           -166.7862  YYY=             -0.0064  ZZZ=             -0.9196  XYY=            -10.5303
  XXY=              0.0003  XXZ=             -0.0087  XZZ=            -10.5309  YZZ=              0.0064
  YYZ=              0.9213  XYZ=             -0.0000
 Hexadecapole moment (field-independent basis, Debye-Ang**3):
 XXXX=          -1811.3186 YYYY=            -55.8521 ZZZZ=            -55.8513 XXXY=              0.0016
 XXXZ=             -0.0489 YYYX=             -0.0007 YYYZ=              0.0000 ZZZX=             -0.1256
 ZZZY=             -0.0000 XXYY=           -219.3607 XXZZ=           -219.3608 YYZZ=            -18.6180
 XXYZ=             -0.0000 YYXZ=              0.1180 ZZXY=              0.0009
 N-N= 1.105814843881D+02 E-N=-1.631044706558D+03  KE= 5.903073250032D+02
  Exact polarizability:  99.950  -0.000  39.349   0.004   0.000  39.349
 Approx polarizability: 123.923  -0.000  49.353   0.007   0.000  49.352
 No NMR shielding tensors so no spin-rotation constants.
 Leave Link  601 at Sun Oct 13 09:51:29 2024, MaxMem=  2684354560 cpu:               2.7 elap:               0.1
 (Enter /usr/local/g16_AVX//g16/l701.exe)
 ... and contract with generalized density number  0.
 Compute integral second derivatives.
 Leave Link  701 at Sun Oct 13 09:51:29 2024, MaxMem=  2684354560 cpu:               3.7 elap:               0.2
 (Enter /usr/local/g16_AVX//g16/l702.exe)
 L702 exits ... SP integral derivatives will be done elsewhere.
 Leave Link  702 at Sun Oct 13 09:51:30 2024, MaxMem=  2684354560 cpu:               0.7 elap:               0.1
 (Enter /usr/local/g16_AVX//g16/l703.exe)
 Integral derivatives from FoFJK, PRISM(SPDF).
 Compute integral second derivatives, UseDBF=F ICtDFT=           0.
 Calling FoFJK, ICntrl=    100127 FMM=F ISym2X=0 I1Cent= 0 IOpClX= 0 NMat=1 NMatS=1 NMatT=0.
 FoFJK:  IHMeth= 1 ICntrl=  100127 DoSepK=F KAlg= 0 I1Cent=           0 FoldK=F
 IRaf=         0 NMat=       1 IRICut=       1 DoRegI=T DoRafI=F ISym2E= 0 IDoP0=0 IntGTp=1.
 FoFCou: FMM=F IPFlag=           0 FMFlag=      100000 FMFlg1=         800
         NFxFlg=           0 DoJE=F BraDBF=F KetDBF=F FulRan=T
         wScrn=  0.000000 ICntrl=    100127 IOpCl=  0 I1Cent=           0 NGrid=           0
         NMat0=    1 NMatS0=      1 NMatT0=    0 NMatD0=    1 NMtDS0=    0 NMtDT0=    0
 Symmetry not used in FoFCou.
 Leave Link  703 at Sun Oct 13 09:51:32 2024, MaxMem=  2684354560 cpu:              60.7 elap:               2.4
 (Enter /usr/local/g16_AVX//g16/l716.exe)
 Dipole        =-3.38673456D+00 5.94055795D-06-1.95413471D-04
 Polarizability= 9.99497896D+01-1.23533549D-04 3.93490498D+01
                 3.54093647D-03 7.47562910D-06 3.93493519D+01
 Full mass-weighted force constant matrix:
 Low frequencies ---  -93.9444  -93.9421  -35.8529  -35.8487   -0.0043   -0.0039
 Low frequencies ---   -0.0021  111.4555  176.4539
 ******    2 imaginary frequencies (negative Signs) ****** 
 Diagonal vibrational polarizability:
      176.8814181      11.0293980      11.0333460
 Harmonic frequencies (cm**-1), IR intensities (KM/Mole), Raman scattering
 activities (A**4/AMU), depolarization ratios for plane and unpolarized
 incident light, reduced masses (AMU), force constants (mDyne/A),
 and normal coordinates:
                      1                      2                      3
                      A                      A                      A
 Frequencies --    -93.8081               -93.8063               176.3186
 Red. masses --     10.1135                10.1117                 3.8969
 Frc consts  --      0.0524                 0.0524                 0.0714
 IR Inten    --      0.0649                 0.0651                13.8952
  Atom  AN      X      Y      Z        X      Y      Z        X      Y      Z
     1   6     0.00   0.21  -0.03    -0.00   0.03   0.21     0.03  -0.01   0.41
     2  17     0.00  -0.11   0.01    -0.00  -0.01  -0.11     0.02   0.00  -0.10
     3   1    -0.02   0.26  -0.03     0.17   0.04   0.25     0.24  -0.02   0.49
     4   1    -0.14   0.26  -0.04    -0.11   0.03   0.26    -0.09  -0.01   0.47
     5   1     0.16   0.25  -0.03    -0.06   0.04   0.26    -0.10  -0.03   0.47
     6   6     0.00   0.64  -0.09    -0.00   0.09   0.64    -0.03   0.01  -0.24
     7   7    -0.00  -0.52   0.07     0.00  -0.07  -0.52    -0.03   0.00  -0.00
                      4                      5                      6
                      A                      A                      A
 Frequencies --    176.3547               176.9221               425.4919
 Red. masses --      3.8654                11.4783                12.0619
 Frc consts  --      0.0708                 0.2117                 1.2866
 IR Inten    --     12.4194               132.4860               409.6009
  Atom  AN      X      Y      Z        X      Y      Z        X      Y      Z
     1   6    -0.00   0.41   0.01    -0.40  -0.00   0.08     0.78   0.00  -0.00
     2  17    -0.00  -0.10  -0.00    -0.23   0.00  -0.02    -0.35  -0.00   0.00
     3   1     0.01   0.47   0.02    -0.21  -0.00   0.12     0.26   0.00  -0.12
     4   1    -0.20   0.48   0.03    -0.27  -0.03   0.07     0.26   0.11   0.06
     5   1     0.19   0.48   0.01    -0.27   0.02   0.07     0.26  -0.11   0.06
     6   6     0.00  -0.24  -0.01     0.52   0.00  -0.05     0.08  -0.00   0.00
     7   7     0.00  -0.00  -0.00     0.53   0.00  -0.00     0.08  -0.00   0.00
                      7                      8                      9
                      A                      A                      A
 Frequencies --   1002.3042              1002.3288              1245.9330
 Red. masses --      1.1072                 1.1071                 1.0720
 Frc consts  --      0.6553                 0.6554                 0.9805
 IR Inten    --      0.0676                 0.0674                41.5686
  Atom  AN      X      Y      Z        X      Y      Z        X      Y      Z
     1   6    -0.00   0.02  -0.09     0.00   0.09   0.02    -0.07  -0.00   0.00
     2  17     0.00  -0.00   0.02    -0.00  -0.02  -0.00    -0.02  -0.00   0.00
     3   1     0.76  -0.04   0.12    -0.16  -0.19  -0.03     0.56  -0.00   0.15
     4   1    -0.24  -0.06   0.18     0.74  -0.13  -0.01     0.56  -0.13  -0.08
     5   1    -0.52   0.00   0.17    -0.58  -0.14  -0.07     0.56   0.13  -0.07
     6   6     0.00   0.00  -0.00    -0.00   0.00   0.00    -0.00  -0.00   0.00
     7   7     0.00  -0.00   0.00    -0.00  -0.00  -0.00    -0.01   0.00  -0.00
                     10                     11                     12
                      A                      A                      A
 Frequencies --   1444.0561              1444.1327              2167.1653
 Red. masses --      1.0712                 1.0712                12.8038
 Frc consts  --      1.3161                 1.3163                35.4301
 IR Inten    --      6.4412                 6.4383                12.5233
  Atom  AN      X      Y      Z        X      Y      Z        X      Y      Z
     1   6    -0.00   0.00  -0.08     0.00  -0.08  -0.00    -0.00   0.00  -0.00
     2  17    -0.00   0.00  -0.00    -0.00  -0.00  -0.00    -0.00   0.00   0.00
     3   1    -0.24  -0.00  -0.12    -0.00   0.77   0.00    -0.03   0.00  -0.01
     4   1     0.12  -0.39   0.55     0.21   0.10  -0.38    -0.03   0.01   0.00
     5   1     0.12   0.38   0.54    -0.21   0.10   0.39    -0.03  -0.01   0.00
     6   6     0.00   0.00  -0.00    -0.00  -0.00  -0.00     0.76  -0.00   0.00
     7   7    -0.00  -0.00   0.00     0.00   0.00   0.00    -0.65   0.00  -0.00
                     13                     14                     15
                      A                      A                      A
 Frequencies --   3149.5819              3296.7444              3296.8519
 Red. masses --      1.0202                 1.1150                 1.1150
 Frc consts  --      5.9628                 7.1399                 7.1403
 IR Inten    --      7.5788                 0.0011                 0.0010
  Atom  AN      X      Y      Z        X      Y      Z        X      Y      Z
     1   6     0.03  -0.00   0.00    -0.00  -0.10   0.00     0.00  -0.00  -0.10
     2  17    -0.00   0.00  -0.00    -0.00   0.00  -0.00     0.00   0.00   0.00
     3   1    -0.13  -0.00   0.56     0.01  -0.02  -0.03    -0.21  -0.00   0.79
     4   1    -0.14  -0.49  -0.28     0.18   0.57   0.34     0.11   0.37   0.20
     5   1    -0.14   0.49  -0.28    -0.18   0.60  -0.35     0.10  -0.33   0.17
     6   6     0.00   0.00  -0.00    -0.00   0.00  -0.00    -0.00   0.00   0.00
     7   7     0.00  -0.00   0.00    -0.00  -0.00   0.00     0.00  -0.00  -0.00

 -------------------
 - Thermochemistry -
 -------------------
 Temperature   298.150 Kelvin.  Pressure   1.00000 Atm.
 Atom     1 has atomic number  6 and mass  12.00000
 Atom     2 has atomic number 17 and mass  34.96885
 Atom     3 has atomic number  1 and mass   1.00783
 Atom     4 has atomic number  1 and mass   1.00783
 Atom     5 has atomic number  1 and mass   1.00783
 Atom     6 has atomic number  6 and mass  12.00000
 Atom     7 has atomic number  7 and mass  14.00307
 Molecular mass:    75.99540 amu.
 Principal axes and moments of inertia in atomic units:
                           1         2         3
     Eigenvalues --    11.734261466.899731466.90084
           X            1.00000   0.00000  -0.00001
           Y           -0.00000   0.99988  -0.01520
           Z            0.00001   0.01520   0.99988
 This molecule is an asymmetric top.
 Rotational symmetry number  1.
 Rotational temperatures (Kelvin)      7.38129     0.05905     0.05905
 Rotational constants (GHZ):         153.80106     1.23031     1.23031
    2 imaginary frequencies ignored.
 Zero-point vibrational energy     113670.3 (Joules/Mol)
                                   27.16785 (Kcal/Mol)
 Warning -- explicit consideration of   4 degrees of freedom as
           vibrations may cause significant error
 Vibrational temperatures:    253.68   253.74   254.55   612.19  1442.09
          (Kelvin)           1442.13  1792.62  2077.67  2077.78  3118.07
                             4531.55  4743.28  4743.43
 
 Zero-point correction=                           0.043295 (Hartree/Particle)
 Thermal correction to Energy=                    0.048308
 Thermal correction to Enthalpy=                  0.049252
 Thermal correction to Gibbs Free Energy=         0.015111
 Sum of electronic and zero-point Energies=           -592.948801
 Sum of electronic and thermal Energies=              -592.943788
 Sum of electronic and thermal Enthalpies=            -592.942844
 Sum of electronic and thermal Free Energies=         -592.976985
 
                     E (Thermal)             CV                S
                      KCal/Mol        Cal/Mol-Kelvin    Cal/Mol-Kelvin
 Total                   30.313             14.105             71.856
 Electronic               0.000              0.000              0.000
 Translational            0.889              2.981             38.900
 Rotational               0.889              2.981             24.738
 Vibrational             28.536              8.143              8.218
 Vibration     1          0.628              1.872              2.367
 Vibration     2          0.628              1.871              2.367
 Vibration     3          0.628              1.871              2.361
 Vibration     4          0.787              1.415              0.874
                       Q            Log10(Q)             Ln(Q)
 Total Bot       0.112083D-06         -6.950462        -16.004029
 Total V=0       0.919835D+13         12.963710         29.850045
 Vib (Bot)       0.756710D-19        -19.121070        -44.027892
 Vib (Bot)    1  0.114057D+01          0.057121          0.131526
 Vib (Bot)    2  0.114032D+01          0.057027          0.131309
 Vib (Bot)    3  0.113644D+01          0.055548          0.127905
 Vib (Bot)    4  0.410935D+00         -0.386227         -0.889320
 Vib (V=0)       0.621013D+01          0.793101          1.826182
 Vib (V=0)    1  0.174535D+01          0.241882          0.556954
 Vib (V=0)    2  0.174512D+01          0.241826          0.556825
 Vib (V=0)    3  0.174157D+01          0.240942          0.554789
 Vib (V=0)    4  0.114720D+01          0.059639          0.137324
 Electronic      0.100000D+01          0.000000          0.000000
 Translational   0.260396D+08          7.415635         17.075130
 Rotational      0.568819D+05          4.754974         10.948732
 
                                                       RxCoord=1.89956 DE=49.14
                                                             IR Spectrum
 
      3    3                                     2                           1       1        1                                      
      2    1                                     1                           4       2        0                     4       111      
      9    5                                     6                           4       4        0                     2       777      
      7    0                                     7                           4       6        2                     5       766      
 
           X                                     X                           X       X        X                     X       XXX      
                                                                                     X                              X       X        
                                                                                                                    X       X        
                                                                                                                    X       X        
                                                                                                                    X       X        
                                                                                                                    X       X        
                                                                                                                    X                
                                                                                                                    X                
                                                                                                                    X                
                                                                                                                    X                
                                                                                                                    X                
                                                                                                                    X                
                                                                                                                    X                
                                                                                                                    X                
                                                                                                                    X                
                                                                                                                    X                
                                                                                                                    X                
                                                                                                                    X                
                                                                                                                    X                
                                                                                                                    X                
 
 -------------------------------------------------------------------
 Center     Atomic                   Forces (Hartrees/Bohr)
 Number     Number              X              Y              Z
 -------------------------------------------------------------------
      1        6          -0.007624738   -0.000000269   -0.000009258
      2       17          -0.003044224   -0.000000524    0.000006568
      3        1           0.000345593   -0.000001840    0.000925994
      4        1           0.000330244   -0.000819420   -0.000462116
      5        1           0.000328656    0.000821951   -0.000458263
      6        6           0.003682337    0.000000171   -0.000005185
      7        7           0.005982133   -0.000000069    0.000002260
 -------------------------------------------------------------------
 Cartesian Forces:  Max     0.007624738 RMS     0.002387609
 Z-matrix is all fixed cartesians, so copy forces.
 Force constants in Cartesian coordinates: 
                1             2             3             4             5 
      1  0.147123D+00
      2 -0.484957D-05  0.625552D+00
      3  0.853836D-04  0.175079D-05  0.625514D+00
      4 -0.303799D-01  0.000000D+00  0.329020D-05  0.120965D+00
      5  0.000000D+00 -0.326193D-01  0.000000D+00  0.103514D-05  0.180006D-01
      6  0.334991D-05  0.000000D+00 -0.326153D-01 -0.202802D-04  0.000000D+00
      7 -0.431015D-01 -0.182668D-03  0.793137D-01 -0.235907D-01 -0.388441D-04
      8 -0.175869D-03 -0.501788D-01  0.670796D-03  0.140975D-04  0.473524D-03
      9  0.764743D-01  0.670720D-03 -0.341515D+00 -0.621544D-02 -0.161947D-04
     10 -0.431485D-01 -0.686790D-01 -0.398578D-01 -0.235839D-01 -0.145545D-01
     11 -0.662208D-01 -0.268060D+00 -0.126429D+00  0.538266D-02  0.574610D-02
     12 -0.384341D-01 -0.126425D+00 -0.123534D+00  0.312854D-02  0.306267D-02
     13 -0.431518D-01  0.688668D-01 -0.395448D-01 -0.235830D-01  0.145925D-01
     14  0.664020D-01 -0.269215D+00  0.125756D+00 -0.539758D-02  0.577447D-02
     15 -0.381321D-01  0.125752D+00 -0.122373D+00  0.310389D-02 -0.304651D-02
     16  0.167940D-02  0.000000D+00  0.164839D-05 -0.108171D-01  0.000000D+00
     17  0.000000D+00 -0.716056D-02  0.000000D+00  0.000000D+00  0.317225D-02
     18 -0.138571D-05  0.000000D+00 -0.715805D-02  0.465048D-05  0.000000D+00
     19  0.109793D-01  0.000000D+00 -0.145036D-05 -0.901007D-02  0.000000D+00
     20  0.000000D+00  0.168247D-02  0.000000D+00  0.000000D+00 -0.547619D-03
     21  0.461326D-05  0.000000D+00  0.168205D-02 -0.464908D-05  0.000000D+00
                6             7             8             9            10 
      6  0.180004D-01
      7  0.168384D-01  0.658615D-01
      8 -0.159738D-04  0.182407D-03  0.457932D-01
      9  0.751923D-02 -0.792373D-01 -0.704458D-03  0.351688D+00
     10 -0.844480D-02  0.319317D-02  0.613236D-02  0.409827D-02  0.659108D-01
     11  0.305937D-02 -0.448746D-03  0.265332D-02  0.289480D-02  0.686096D-01
     12  0.224991D-02 -0.737060D-02 -0.246323D-01 -0.100267D-01  0.398156D-01
     13 -0.837755D-02  0.319346D-02 -0.615106D-02  0.407027D-02  0.319395D-02
     14 -0.304345D-02  0.482839D-03  0.255275D-02 -0.283666D-02  0.660837D-02
     15  0.222178D-02 -0.736888D-02  0.246902D-01 -0.992667D-02  0.329613D-02
     16  0.000000D+00 -0.524187D-02  0.000000D+00  0.143323D-03 -0.525083D-02
     17  0.000000D+00  0.553519D-05 -0.168536D-02 -0.107102D-04  0.207905D-02
     18  0.317151D-02 -0.240166D-02 -0.107439D-04  0.296144D-02  0.120669D-02
     19  0.000000D+00 -0.313967D-03 -0.154485D-05  0.666505D-03 -0.314708D-03
     20  0.000000D+00  0.000000D+00  0.391401D-03  0.249746D-05 -0.195917D-03
     21 -0.547509D-03  0.226297D-03  0.251612D-05 -0.699785D-03 -0.114083D-03
               11            12            13            14            15 
     11  0.274556D+00
     12  0.132749D+00  0.122816D+00
     13 -0.662311D-02  0.326546D-02  0.659133D-01
     14 -0.162611D-01  0.137024D-01 -0.687971D-01  0.275769D+00
     15 -0.138180D-01  0.889383D-02  0.395026D-01 -0.132043D+00  0.121597D+00
     16 -0.123426D-03 -0.705384D-04 -0.525121D-02  0.123620D-03 -0.699366D-04
     17  0.179127D-02  0.201685D-02 -0.208457D-02  0.180977D-02 -0.200622D-02
     18  0.201760D-02 -0.514898D-03  0.119714D-02 -0.200692D-02 -0.533322D-03
     19 -0.576250D-03 -0.334322D-03 -0.314700D-03  0.577779D-03 -0.331675D-03
     20 -0.425233D-03 -0.473850D-03  0.196454D-03 -0.429604D-03  0.471360D-03
     21 -0.474216D-03  0.116251D-03 -0.113186D-03  0.471704D-03  0.120607D-03
               16            17            18            19            20 
     16  0.116623D+01
     17 -0.123166D-04  0.477185D-03
     18  0.388917D-03  0.000000D+00  0.478439D-03
     19 -0.114135D+01  0.125845D-04 -0.394353D-03  0.114032D+01
     20  0.125494D-04  0.159544D-02  0.000000D+00 -0.125887D-04 -0.226686D-02
     21 -0.393323D-03  0.000000D+00  0.159487D-02  0.394331D-03  0.000000D+00
               21 
     21 -0.226648D-02
 Leave Link  716 at Sun Oct 13 09:51:32 2024, MaxMem=  2684354560 cpu:               1.2 elap:               0.1
 (Enter /usr/local/g16_AVX//g16/l103.exe)

 GradGradGradGradGradGradGradGradGradGradGradGradGradGradGradGradGradGrad
 Berny optimization.
 Search for a local minimum.
 Step number   1 out of a maximum of    2
 All quantities printed in internal units (Hartrees-Bohrs-Radians)
 Second derivative matrix not updated -- analytic derivatives used.
 ITU=  0
     Eigenvalues ---   -0.00390  -0.00390   0.00609   0.00610   0.01324
     Eigenvalues ---    0.05592   0.05593   0.09887   0.10847   0.10847
     Eigenvalues ---    0.12423   0.44333   0.92190   0.92191   2.29372
 Eigenvalue     1 is  -3.90D-03 should be greater than     0.000000 Eigenvector:
                          Y6        Y7        Y2        Y3        Y4
   1                    0.68099  -0.61793  -0.18599   0.15755   0.15162
                          Y5        X5        X4        Y1        Z6
   1                    0.15128   0.13557  -0.12899   0.11153  -0.02772
 Eigenvalue     2 is  -3.90D-03 should be greater than     0.000000 Eigenvector:
                          Z6        Z7        Z2        Z5        Z4
   1                    0.68092  -0.61792  -0.18602   0.15594   0.15556
                          X3        Z3        Z1        X4        X5
   1                    0.15274   0.14915   0.11157  -0.08216  -0.07078
 Quadratic step=6.488D-01 exceeds max=3.000D-01 adjusted using Lamda=-1.574D-02.
 Angle between NR and scaled steps=   4.96 degrees.
 Angle between quadratic step and forces=  28.73 degrees.
 Linear search not attempted -- first point.
 B after Tr=     0.011173   -0.000001    0.000005
         Rot=    1.000000   -0.000000   -0.000002   -0.000000 Ang=  -0.00 deg.
 Variable       Old X    -DE/DX   Delta X   Delta X   Delta X     New X
                                 (Linear)    (Quad)   (Total)
    X1       -0.46693  -0.00762   0.00000  -0.14968  -0.13850  -0.60544
    Y1        0.00001  -0.00000   0.00000   0.00000   0.00000   0.00001
    Z1       -0.00036  -0.00001   0.00000  -0.00007  -0.00007  -0.00042
    X2       -4.08220  -0.00304   0.00000  -0.06393  -0.05276  -4.13496
    Y2       -0.00000  -0.00000   0.00000  -0.00000  -0.00001  -0.00001
    Z2        0.00009   0.00001   0.00000   0.00004   0.00006   0.00015
    X3        0.07969   0.00035   0.00000  -0.06123  -0.05007   0.02962
    Y3        0.00454  -0.00000   0.00000  -0.00004  -0.00004   0.00450
    Z3       -1.97051   0.00093   0.00000   0.02006   0.02006  -1.95044
    X4        0.08042   0.00033   0.00000  -0.06142  -0.05024   0.03018
    Y4        1.70393  -0.00082   0.00000  -0.01750  -0.01750   1.68643
    Z4        0.98833  -0.00046   0.00000  -0.01005  -0.01005   0.97828
    X5        0.08047   0.00033   0.00000  -0.06144  -0.05026   0.03020
    Y5       -1.70843   0.00082   0.00000   0.01755   0.01755  -1.69088
    Z5        0.98047  -0.00046   0.00000  -0.00997  -0.00997   0.97051
    X6        4.49673   0.00368   0.00000   0.15784   0.16901   4.66575
    Y6        0.00001   0.00000   0.00000   0.00000   0.00000   0.00001
    Z6       -0.00031  -0.00001   0.00000  -0.00012  -0.00013  -0.00043
    X7        6.72351   0.00598   0.00000   0.16165   0.17282   6.89633
    Y7       -0.00002  -0.00000   0.00000  -0.00000  -0.00000  -0.00002
    Z7        0.00046   0.00000   0.00000   0.00010   0.00009   0.00055
         Item               Value     Threshold  Converged?
 Maximum Force            0.007625     0.000450     NO 
 RMS     Force            0.002388     0.000300     NO 
 Maximum Displacement     0.172824     0.001800     NO 
 RMS     Displacement     0.065164     0.001200     NO 
 Predicted change in Energy=-2.148302D-03
 GradGradGradGradGradGradGradGradGradGradGradGradGradGradGradGradGradGrad

 Leave Link  103 at Sun Oct 13 09:51:32 2024, MaxMem=  2684354560 cpu:               0.6 elap:               0.1
 (Enter /usr/local/g16_AVX//g16/l9999.exe)

 ----------------------------------------------------------------------

 Electric dipole moment (input orientation):
 (Debye = 10**-18 statcoulomb cm , SI units = C m)
                  (au)            (Debye)         (10**-30 SI)
   Tot        0.338673D+01      0.860822D+01      0.287139D+02
   x         -0.338673D+01     -0.860822D+01     -0.287139D+02
   y          0.000000D+00      0.000000D+00      0.000000D+00
   z         -0.195413D-03     -0.496691D-03     -0.165678D-02

 Dipole polarizability, Alpha (input orientation).
 (esu units = cm**3 , SI units = C**2 m**2 J**-1)
 Alpha(0;0):
               (au)            (10**-24 esu)      (10**-40 SI)
   iso        0.595494D+02      0.882431D+01      0.981837D+01
   aniso      0.606006D+02      0.898008D+01      0.999169D+01
   xx         0.999498D+02      0.148110D+02      0.164795D+02
   yx        -0.123534D-03     -0.183058D-04     -0.203679D-04
   yy         0.393490D+02      0.583093D+01      0.648778D+01
   zx         0.354094D-02      0.524713D-03      0.583822D-03
   zy         0.000000D+00      0.000000D+00      0.000000D+00
   zz         0.393494D+02      0.583097D+01      0.648783D+01

 ----------------------------------------------------------------------

 Dipole orientation:
     6         -0.00033022          0.00001052          0.46693056
    17          0.00032814         -0.00001094          4.08219959
     1         -1.97051083          0.00454839         -0.07957605
     1          0.98832700          1.70392855         -0.08047322
     1          0.98046731         -1.70842927         -0.08052600
     6         -0.00056749          0.00001734         -4.49673368
     7          0.00007315         -0.00000332         -6.72350762

 Electric dipole moment (dipole orientation):
 (Debye = 10**-18 statcoulomb cm , SI units = C m)
                  (au)            (Debye)         (10**-30 SI)
   Tot        0.338673D+01      0.860822D+01      0.287139D+02
   x          0.000000D+00      0.000000D+00      0.000000D+00
   y          0.000000D+00      0.000000D+00      0.000000D+00
   z          0.338673D+01      0.860822D+01      0.287139D+02

 Dipole polarizability, Alpha (dipole orientation).
 (esu units = cm**3 , SI units = C**2 m**2 J**-1)
 Alpha(0;0):
               (au)            (10**-24 esu)      (10**-40 SI)
   iso        0.595494D+02      0.882431D+01      0.981837D+01
   aniso      0.606006D+02      0.898008D+01      0.999169D+01
   xx         0.393494D+02      0.583097D+01      0.648783D+01
   yx         0.000000D+00      0.000000D+00      0.000000D+00
   yy         0.393490D+02      0.583093D+01      0.648778D+01
   zx        -0.443111D-04     -0.656622D-05     -0.730591D-05
   zy         0.172355D-04      0.255403D-05      0.284174D-05
   zz         0.999498D+02      0.148110D+02      0.164795D+02

 ----------------------------------------------------------------------
 1\1\GINC-NODO8\Freq\RB3LYP\6-31++G(d,p)\C2H3Cl1N1(1-)\ALANQF\13-Oct-20
 24\0\\#p b3lyp 6-31++g(d,p) scf=verytight NoSymm freq=noraman int=ultr
 afine\\RxCoord=1.89956 DE=49.14\\-1,1\C,-0.247089,0.000006,-0.000189\C
 l,-2.160207,-0.000002,0.000049\H,0.04217,0.002405,-1.042747\H,0.042556
 ,0.901681,0.523001\H,0.042581,-0.904061,0.518845\C,2.379569,0.000005,-
 0.000163\N,3.557927,-0.000008,0.000244\\Version=ES64L-G16RevB.01\HF=-5
 92.9920955\RMSD=4.517e-09\RMSF=2.388e-03\ZeroPoint=0.0432947\Thermal=0
 .0483076\Dipole=-3.3332332,0.000006,-0.0002183\DipoleDeriv=2.317788,0.
 0000045,-0.0001341,0.0000129,0.0656663,0.0000002,-0.0002941,0.0000002,
 0.0657217,-1.6975287,-0.0000029,0.0000818,-0.0000026,-0.3430629,0.,0.0
 001085,0.,-0.3430596,-0.0611183,0.000009,-0.0042062,0.0000158,0.076506
 9,0.0001586,-0.0078196,0.0001589,0.0075489,-0.061039,0.0036481,0.00212
 94,0.0068407,0.0249811,-0.0299121,0.0040144,-0.0299007,0.0591565,-0.06
 10295,-0.0036578,0.0021117,-0.006866,0.0247078,0.0297535,0.0039845,0.0
 297418,0.0594316,-0.3711238,-0.0000046,0.0001222,-0.0000099,-0.4278604
 ,-0.0000002,0.0002825,-0.0000002,-0.4278658,-1.0659487,0.0000038,-0.00
 01048,0.000009,-0.4209388,0.,-0.0002763,0.,-0.4209333\Polar=99.9497896
 ,-0.0001235,39.3490498,0.0035409,0.0000075,39.3493519\Quadrupole=-26.1
 879971,13.0942244,13.0937726,0.000018,-0.0008982,0.0000052\PG=C01 [X(C
 2H3Cl1N1)]\NImag=2\\0.14712311,-0.00000485,0.62555187,0.00008538,0.000
 00175,0.62551353,-0.03037990,-0.00000023,0.00000329,0.12096471,-0.0000
 0025,-0.03261933,0.00000002,0.00000104,0.01800060,0.00000335,0.0000000
 3,-0.03261529,-0.00002028,0.00000003,0.01800038,-0.04310154,-0.0001826
 7,0.07931369,-0.02359071,-0.00003884,0.01683840,0.06586147,-0.00017587
 ,-0.05017884,0.00067080,0.00001410,0.00047352,-0.00001597,0.00018241,0
 .04579320,0.07647432,0.00067072,-0.34151508,-0.00621544,-0.00001619,0.
 00751923,-0.07923725,-0.00070446,0.35168757,-0.04314846,-0.06867904,-0
 .03985781,-0.02358392,-0.01455448,-0.00844480,0.00319317,0.00613236,0.
 00409827,0.06591080,-0.06622078,-0.26806039,-0.12642869,0.00538266,0.0
 0574610,0.00305937,-0.00044875,0.00265332,0.00289480,0.06860965,0.2745
 5607,-0.03843414,-0.12642488,-0.12353416,0.00312854,0.00306267,0.00224
 991,-0.00737060,-0.02463235,-0.01002671,0.03981560,0.13274912,0.122815
 77,-0.04315185,0.06886682,-0.03954475,-0.02358299,0.01459253,-0.008377
 55,0.00319346,-0.00615106,0.00407027,0.00319395,-0.00662311,0.00326546
 ,0.06591335,0.06640204,-0.26921523,0.12575609,-0.00539758,0.00577447,-
 0.00304345,0.00048284,0.00255275,-0.00283666,0.00660837,-0.01626114,0.
 01370244,-0.06879707,0.27576897,-0.03813214,0.12575235,-0.12237300,0.0
 0310389,-0.00304651,0.00222178,-0.00736888,0.02469021,-0.00992667,0.00
 329613,-0.01381798,0.00889383,0.03950261,-0.13204322,0.12159677,0.0016
 7940,-0.00000007,0.00000165,-0.01081712,0.00000003,-0.00000009,-0.0052
 4187,-0.00000039,0.00014332,-0.00525083,-0.00012343,-0.00007054,-0.005
 25121,0.00012362,-0.00006994,1.16623103,-0.00000017,-0.00716056,0.0000
 0004,-0.00000012,0.00317225,-0.00000002,0.00000554,-0.00168536,-0.0000
 1071,0.00207905,0.00179127,0.00201685,-0.00208457,0.00180977,-0.002006
 22,-0.00001232,0.00047719,-0.00000139,0.00000003,-0.00715805,0.0000046
 5,-0.00000002,0.00317151,-0.00240166,-0.00001074,0.00296144,0.00120669
 ,0.00201760,-0.00051490,0.00119714,-0.00200692,-0.00053332,0.00038892,
 0.00000005,0.00047844,0.01097925,0.00000004,-0.00000145,-0.00901007,-0
 .00000002,0.00000096,-0.00031397,-0.00000154,0.00066651,-0.00031471,-0
 .00057625,-0.00033432,-0.00031470,0.00057778,-0.00033167,-1.14134941,0
 .00001258,-0.00039435,1.14032360,-0.00000012,0.00168247,0.,0.00000014,
 -0.00054762,0.,-0.00000052,0.00039140,0.00000250,-0.00019592,-0.000425
 23,-0.00047385,0.00019645,-0.00042960,0.00047136,0.00001255,0.00159544
 ,0.,-0.00001259,-0.00226686,0.00000461,0.,0.00168205,-0.00000465,0.,-0
 .00054751,0.00022630,0.00000252,-0.00069978,-0.00011408,-0.00047422,0.
 00011625,-0.00011319,0.00047170,0.00012061,-0.00039332,0.,0.00159487,0
 .00039433,0.,-0.00226648\\0.00762474,0.00000027,0.00000926,0.00304422,
 0.00000052,-0.00000657,-0.00034559,0.00000184,-0.00092599,-0.00033024,
 0.00081942,0.00046212,-0.00032866,-0.00082195,0.00045826,-0.00368234,-
 0.00000017,0.00000518,-0.00598213,0.00000007,-0.00000226\\\@


 SATCHEL PAIGE'S GUIDE TO LONGEVITY

    1.  AVOID FRIED MEATS, WHICH ANGRY UP THE BLOOD.

    2.  IF YOUR STOMACH DISPUTES YOU, LIE DOWN AND PACIFY IT WITH COOL
        THOUGHTS.

    3.  KEEP THE JUICES FLOWING BY JANGLING AROUND GENTLY AS YOU MOVE.

    4.  GO VERY LIGHT ON THE VICES, SUCH AS CARRYING ON IN SOCIETY.
        THE SOCIAL RUMBLE AIN'T RESTFUL.

    5.  AVOID RUNNING AT ALL TIMES.

    6.  DON'T LOOK BACK.  SOMETHING MAY BE GAINING ON YOU.
 Job cpu time:       0 days  0 hours  3 minutes 40.0 seconds.
 Elapsed time:       0 days  0 hours  0 minutes  9.7 seconds.
 File lengths (MBytes):  RWF=     88 Int=      0 D2E=      0 Chk=      2 Scr=      2
 Normal termination of Gaussian 16 at Sun Oct 13 09:51:32 2024.
