RxCoord=1.99953 DE=48.80                                                
Freq      RB3LYP                                                      6-31++G(d,p)        
Number of atoms                            I                7
Info1-9                                    I   N=           9
          16          16           0           0           0         100
           6          18        -502
Full Title                                 C   N=           2
RxCoord=1.99953 DE=48.80
Route                                      C   N=           6
#p b3lyp 6-31++g(d,p) scf=verytight NoSymm freq=noraman int=
ultrafine   
Charge                                     I               -1
Multiplicity                               I                1
Number of electrons                        I               40
Number of alpha electrons                  I               20
Number of beta electrons                   I               20
Number of basis functions                  I               98
Number of independent functions            I               98
Number of point charges in /Mol/           I                0
Number of translation vectors              I                0
Atomic numbers                             I   N=           7
           6          17           1           1           1           6
           7
Nuclear charges                            R   N=           7
  6.00000000E+00  1.70000000E+01  1.00000000E+00  1.00000000E+00  1.00000000E+00
  6.00000000E+00  7.00000000E+00
Current cartesian coordinates              R   N=          21
 -4.91328792E-01  1.13383567E-05 -3.62827416E-04 -4.07979587E+00 -3.77945225E-06
  9.63760324E-05  6.87331186E-02  4.52589407E-03 -1.96735418E+00  6.93907433E-02
  1.70118248E+00  9.86790416E-01  6.94360967E-02 -1.70566680E+00  9.78963170E-01
  4.50589888E+00  1.13383567E-05 -3.23143167E-04  6.73293544E+00 -1.51178090E-05
  4.64872627E-04
Number of symbols in /Mol/                 I                0
Force Field                                I                0
Atom Types                                 C   N=           7
                                                            
                        
Int Atom Types                             I   N=           7
           0           0           0           0           0           0
           0
MM charges                                 R   N=           7
  0.00000000E+00  0.00000000E+00  0.00000000E+00  0.00000000E+00  0.00000000E+00
  0.00000000E+00  0.00000000E+00
Integer atomic weights                     I   N=           7
          12          35           1           1           1          12
          14
Real atomic weights                        R   N=           7
  1.20000000E+01  3.49688527E+01  1.00782504E+00  1.00782504E+00  1.00782504E+00
  1.20000000E+01  1.40030740E+01
Atom fragment info                         I   N=           7
           0           0           0           0           0           0
           0
Atom residue num                           I   N=           7
           0           0           0           0           0           0
           0
Nuclear spins                              I   N=           7
           0           3           1           1           1           0
           2
Nuclear ZEff                               R   N=           7
 -3.60000000E+00 -1.42400000E+01 -1.00000000E+00 -1.00000000E+00 -1.00000000E+00
 -3.60000000E+00 -4.55000000E+00
Nuclear ZNuc                               R   N=           7
  6.00000000E+00  1.70000000E+01  1.00000000E+00  1.00000000E+00  1.00000000E+00
  6.00000000E+00  7.00000000E+00
Nuclear QMom                               R   N=           7
  0.00000000E+00 -8.16500000E+00  0.00000000E+00  0.00000000E+00  0.00000000E+00
  0.00000000E+00  2.04400000E+00
Nuclear GFac                               R   N=           7
  0.00000000E+00  8.21874000E-01  2.79284600E+00  2.79284600E+00  2.79284600E+00
  0.00000000E+00  4.03761000E-01
MicOpt                                     I   N=           7
          -1          -1          -1          -1          -1          -1
          -1
Number of residues                         I                0
Number of secondary structures             I                0
Number of contracted shells                I               33
Number of primitive shells                 I               72
Pure/Cartesian d shells                    I                1
Pure/Cartesian f shells                    I                0
Highest angular momentum                   I                2
Largest degree of contraction              I                6
Shell types                                I   N=          33
           0          -1          -1          -1           2           0
          -1          -1          -1          -1           2           0
           0           0           1           0           0           0
           1           0           0           0           1           0
          -1          -1          -1           2           0          -1
          -1          -1           2
Number of primitives per shell             I   N=          33
           6           3           1           1           1           6
           6           3           1           1           1           3
           1           1           1           3           1           1
           1           3           1           1           1           6
           3           1           1           1           6           3
           1           1           1
Shell to atom map                          I   N=          33
           1           1           1           1           1           2
           2           2           2           2           2           3
           3           3           3           4           4           4
           4           5           5           5           5           6
           6           6           6           6           7           7
           7           7           7
Primitive exponents                        R   N=          72
  3.04752488E+03  4.57369518E+02  1.03948685E+02  2.92101553E+01  9.28666296E+00
  3.16392696E+00  7.86827235E+00  1.88128854E+00  5.44249258E-01  1.68714478E-01
  4.38000000E-02  8.00000000E-01  2.51801000E+04  3.78035000E+03  8.60474000E+02
  2.42145000E+02  7.73349000E+01  2.62470000E+01  4.91765000E+02  1.16984000E+02
  3.74153000E+01  1.37834000E+01  5.45215000E+00  2.22588000E+00  3.18649000E+00
  1.14427000E+00  4.20377000E-01  1.42657000E-01  4.83000000E-02  7.50000000E-01
  1.87311370E+01  2.82539436E+00  6.40121692E-01  1.61277759E-01  3.60000000E-02
  1.10000000E+00  1.87311370E+01  2.82539436E+00  6.40121692E-01  1.61277759E-01
  3.60000000E-02  1.10000000E+00  1.87311370E+01  2.82539436E+00  6.40121692E-01
  1.61277759E-01  3.60000000E-02  1.10000000E+00  3.04752488E+03  4.57369518E+02
  1.03948685E+02  2.92101553E+01  9.28666296E+00  3.16392696E+00  7.86827235E+00
  1.88128854E+00  5.44249258E-01  1.68714478E-01  4.38000000E-02  8.00000000E-01
  4.17351146E+03  6.27457911E+02  1.42902093E+02  4.02343293E+01  1.28202129E+01
  4.39043701E+00  1.16263619E+01  2.71627981E+00  7.72218397E-01  2.12031498E-01
  6.39000000E-02  8.00000000E-01
Contraction coefficients                   R   N=          72
  1.83473713E-03  1.40373228E-02  6.88426223E-02  2.32184443E-01  4.67941348E-01
  3.62311985E-01 -1.19332420E-01 -1.60854152E-01  1.14345644E+00  1.00000000E+00
  1.00000000E+00  1.00000000E+00  1.83295985E-03  1.40341988E-02  6.90973943E-02
  2.37451980E-01  4.83033960E-01  3.39855972E-01 -2.29739142E-03 -3.07137189E-02
 -1.12528069E-01  4.50163278E-02  5.89353363E-01  4.65206287E-01 -2.51828028E-01
  6.15892514E-02  1.06018433E+00  1.00000000E+00  1.00000000E+00  1.00000000E+00
  3.34946043E-02  2.34726953E-01  8.13757326E-01  1.00000000E+00  1.00000000E+00
  1.00000000E+00  3.34946043E-02  2.34726953E-01  8.13757326E-01  1.00000000E+00
  1.00000000E+00  1.00000000E+00  3.34946043E-02  2.34726953E-01  8.13757326E-01
  1.00000000E+00  1.00000000E+00  1.00000000E+00  1.83473713E-03  1.40373228E-02
  6.88426223E-02  2.32184443E-01  4.67941348E-01  3.62311985E-01 -1.19332420E-01
 -1.60854152E-01  1.14345644E+00  1.00000000E+00  1.00000000E+00  1.00000000E+00
  1.83477216E-03  1.39946270E-02  6.85865518E-02  2.32240873E-01  4.69069948E-01
  3.60455199E-01 -1.14961182E-01 -1.69117479E-01  1.14585195E+00  1.00000000E+00
  1.00000000E+00  1.00000000E+00
P(S=P) Contraction coefficients            R   N=          72
  0.00000000E+00  0.00000000E+00  0.00000000E+00  0.00000000E+00  0.00000000E+00
  0.00000000E+00  6.89990666E-02  3.16423961E-01  7.44308291E-01  1.00000000E+00
  1.00000000E+00  0.00000000E+00  0.00000000E+00  0.00000000E+00  0.00000000E+00
  0.00000000E+00  0.00000000E+00  0.00000000E+00  3.98940088E-03  3.03177067E-02
  1.29880029E-01  3.27951072E-01  4.53527100E-01  2.52154056E-01 -1.42993147E-02
  3.23572333E-01  7.43507765E-01  1.00000000E+00  1.00000000E+00  0.00000000E+00
  0.00000000E+00  0.00000000E+00  0.00000000E+00  0.00000000E+00  0.00000000E+00
  0.00000000E+00  0.00000000E+00  0.00000000E+00  0.00000000E+00  0.00000000E+00
  0.00000000E+00  0.00000000E+00  0.00000000E+00  0.00000000E+00  0.00000000E+00
  0.00000000E+00  0.00000000E+00  0.00000000E+00  0.00000000E+00  0.00000000E+00
  0.00000000E+00  0.00000000E+00  0.00000000E+00  0.00000000E+00  6.89990666E-02
  3.16423961E-01  7.44308291E-01  1.00000000E+00  1.00000000E+00  0.00000000E+00
  0.00000000E+00  0.00000000E+00  0.00000000E+00  0.00000000E+00  0.00000000E+00
  0.00000000E+00  6.75797439E-02  3.23907296E-01  7.40895140E-01  1.00000000E+00
  1.00000000E+00  0.00000000E+00
Coordinates of each shell                  R   N=          99
 -4.91328792E-01  1.13383567E-05 -3.62827416E-04 -4.91328792E-01  1.13383567E-05
 -3.62827416E-04 -4.91328792E-01  1.13383567E-05 -3.62827416E-04 -4.91328792E-01
  1.13383567E-05 -3.62827416E-04 -4.91328792E-01  1.13383567E-05 -3.62827416E-04
 -4.07979587E+00 -3.77945225E-06  9.63760324E-05 -4.07979587E+00 -3.77945225E-06
  9.63760324E-05 -4.07979587E+00 -3.77945225E-06  9.63760324E-05 -4.07979587E+00
 -3.77945225E-06  9.63760324E-05 -4.07979587E+00 -3.77945225E-06  9.63760324E-05
 -4.07979587E+00 -3.77945225E-06  9.63760324E-05  6.87331186E-02  4.52589407E-03
 -1.96735418E+00  6.87331186E-02  4.52589407E-03 -1.96735418E+00  6.87331186E-02
  4.52589407E-03 -1.96735418E+00  6.87331186E-02  4.52589407E-03 -1.96735418E+00
  6.93907433E-02  1.70118248E+00  9.86790416E-01  6.93907433E-02  1.70118248E+00
  9.86790416E-01  6.93907433E-02  1.70118248E+00  9.86790416E-01  6.93907433E-02
  1.70118248E+00  9.86790416E-01  6.94360967E-02 -1.70566680E+00  9.78963170E-01
  6.94360967E-02 -1.70566680E+00  9.78963170E-01  6.94360967E-02 -1.70566680E+00
  9.78963170E-01  6.94360967E-02 -1.70566680E+00  9.78963170E-01  4.50589888E+00
  1.13383567E-05 -3.23143167E-04  4.50589888E+00  1.13383567E-05 -3.23143167E-04
  4.50589888E+00  1.13383567E-05 -3.23143167E-04  4.50589888E+00  1.13383567E-05
 -3.23143167E-04  4.50589888E+00  1.13383567E-05 -3.23143167E-04  6.73293544E+00
 -1.51178090E-05  4.64872627E-04  6.73293544E+00 -1.51178090E-05  4.64872627E-04
  6.73293544E+00 -1.51178090E-05  4.64872627E-04  6.73293544E+00 -1.51178090E-05
  4.64872627E-04  6.73293544E+00 -1.51178090E-05  4.64872627E-04
Num ILSW                                   I              100
ILSW                                       I   N=         100
           0           1           0           0           2           0
           0           0           0           0         402          -1
           5           0           0           0           2           0
           0           0           0           0           1           0
           1           1           0           0           0           0
           0           0      100000           0          -1           0
           0           0           0           0           0           0
           0           0           0           1           0           0
           0 -2000000000           1           0           0           0
           0           0           4          52           0           0
           0           0           5           0           0           0
           0           0           0           7           0           1
           0           0           0           0           0           0
           0           0           0           0           0           0
           0           0           0           0           0           0
           0           0           0           0           0           0
           0           0           0           0
Num RLSW                                   I               52
RLSW                                       R   N=          52
  8.00000000E-01  7.20000000E-01  1.00000000E+00  8.10000000E-01  2.00000000E-01
  0.00000000E+00  0.00000000E+00  1.00000000E+00  0.00000000E+00  0.00000000E+00
  0.00000000E+00  0.00000000E+00  1.00000000E+00  0.00000000E+00  0.00000000E+00
  0.00000000E+00  0.00000000E+00  1.00000000E+00  0.00000000E+00  0.00000000E+00
  0.00000000E+00  0.00000000E+00  1.00000000E+00  0.00000000E+00  0.00000000E+00
  0.00000000E+00  0.00000000E+00  1.00000000E+00  0.00000000E+00  0.00000000E+00
  0.00000000E+00  0.00000000E+00  1.00000000E+00  0.00000000E+00  0.00000000E+00
  0.00000000E+00  0.00000000E+00  0.00000000E+00  1.00000000E+00  1.00000000E+00
  0.00000000E+00  1.00000000E+00  0.00000000E+00  0.00000000E+00  0.00000000E+00
  0.00000000E+00  0.00000000E+00  0.00000000E+00  0.00000000E+00  0.00000000E+00
  0.00000000E+00  0.00000000E+00
MxBond                                     I                4
NBond                                      I   N=           7
           4           1           1           1           1           1
           1
IBond                                      I   N=          28
           2           3           4           5           1           0
           0           0           1           0           0           0
           1           0           0           0           1           0
           0           0           7           0           0           0
           6           0           0           0
RBond                                      R   N=          28
  1.00000000E+00  1.00000000E+00  1.00000000E+00  1.00000000E+00  1.00000000E+00
  0.00000000E+00  0.00000000E+00  0.00000000E+00  1.00000000E+00  0.00000000E+00
  0.00000000E+00  0.00000000E+00  1.00000000E+00  0.00000000E+00  0.00000000E+00
  0.00000000E+00  1.00000000E+00  0.00000000E+00  0.00000000E+00  0.00000000E+00
  2.00000000E+00  0.00000000E+00  0.00000000E+00  0.00000000E+00  2.00000000E+00
  0.00000000E+00  0.00000000E+00  0.00000000E+00
Virial Ratio                               R      2.004536928880785E+00
SCF Energy                                 R     -5.929923403653553E+02
Total Energy                               R     -5.929923403653553E+02
RMS Force                                  R      2.298597592622170E-03
RMS Density                                R      4.533432019121042E-09
NImag                                      I                2
Job Status                                 I                1
Nuclear derivative order                   I                2
External E-field                           R   N=          35
  0.00000000E+00  0.00000000E+00  0.00000000E+00  0.00000000E+00  0.00000000E+00
  0.00000000E+00  0.00000000E+00  0.00000000E+00  0.00000000E+00  0.00000000E+00
  0.00000000E+00  0.00000000E+00  0.00000000E+00  0.00000000E+00  0.00000000E+00
  0.00000000E+00  0.00000000E+00  0.00000000E+00  0.00000000E+00  0.00000000E+00
  0.00000000E+00  0.00000000E+00  0.00000000E+00  0.00000000E+00  0.00000000E+00
  0.00000000E+00  0.00000000E+00  0.00000000E+00  0.00000000E+00  0.00000000E+00
  0.00000000E+00  0.00000000E+00  0.00000000E+00  0.00000000E+00  0.00000000E+00
IOpCl                                      I                0
IROHF                                      I                0
Alpha Orbital Energies                     R   N=          98
 -1.01395299E+02 -1.41007415E+01 -1.00985579E+01 -9.96536171E+00 -9.31116525E+00
 -7.07380059E+00 -7.06605991E+00 -7.06605982E+00 -6.92772831E-01 -6.54771987E-01
 -5.36447987E-01 -3.01149764E-01 -3.01142012E-01 -2.59569147E-01 -1.86644064E-01
 -1.66066668E-01 -1.66063677E-01 -1.03448366E-01 -1.03448258E-01 -7.42459293E-02
  1.11946139E-01  1.30207410E-01  1.47473705E-01  1.47476438E-01  1.69308829E-01
  2.00317946E-01  2.05952680E-01  2.05953624E-01  2.21801425E-01  2.21811453E-01
  2.45717150E-01  2.50858957E-01  2.50862870E-01  2.70099472E-01  2.71415328E-01
  2.71418537E-01  3.14558301E-01  3.41128833E-01  3.41143479E-01  3.67022142E-01
  3.84144504E-01  3.84957877E-01  3.84960739E-01  4.66974362E-01  4.80582860E-01
  6.83256261E-01  7.46146760E-01  7.52162026E-01  7.52164122E-01  7.82154668E-01
  7.82160516E-01  8.85826738E-01  8.93219028E-01  8.93229100E-01  9.88630091E-01
  1.00905739E+00  1.00906601E+00  1.05865946E+00  1.05867407E+00  1.06935243E+00
  1.09786578E+00  1.09788587E+00  1.12184835E+00  1.18828334E+00  1.18828456E+00
  1.26225650E+00  1.30026842E+00  1.36047579E+00  1.49206333E+00  1.60344009E+00
  1.60346521E+00  1.77519673E+00  1.77519870E+00  1.79872350E+00  1.79872576E+00
  1.80710259E+00  2.15444416E+00  2.19629681E+00  2.19630255E+00  2.21078636E+00
  2.21083687E+00  2.25054203E+00  2.51782303E+00  2.51787153E+00  2.64783232E+00
  2.82955293E+00  2.82955526E+00  2.84630393E+00  2.96322085E+00  2.96328832E+00
  3.26388907E+00  3.40433428E+00  3.56291703E+00  3.56296727E+00  4.21485565E+00
  4.44041754E+00  4.46465661E+00  4.56428999E+00
Alpha MO coefficients                      R   N=        9604
 -5.40081920E-06 -5.69114861E-06 -4.67316204E-05 -2.88757313E-10  6.85473624E-09
  6.96604279E-05 -7.43729962E-05 -2.03885134E-11 -1.95649114E-09 -8.27538550E-05
 -1.22129727E-04 -9.00711311E-10  1.75204482E-08  2.40640638E-05  1.62502957E-05
  1.62454530E-05 -2.20152134E-10  9.40955548E-10  1.58112294E-10  9.95997147E-01
  1.51506615E-02  3.57441781E-05  6.61197011E-11 -4.21663738E-09 -2.10581138E-02
 -1.77698657E-05 -6.63974385E-11  2.21214532E-09  1.86882940E-03 -6.08180454E-05
 -2.76969527E-10  9.67799351E-09 -4.22858541E-04 -2.13761397E-05 -4.42087237E-11
  2.39741687E-09  7.49711852E-03  7.52542932E-03  7.52542940E-03 -1.69938016E-10
  5.04645523E-09  3.30678481E-13 -2.02151572E-05 -1.95008486E-05  4.14425466E-05
  2.29146741E-05  2.28684715E-08 -9.92045446E-06 -2.02073772E-05 -1.95025259E-05
  4.14342810E-05  2.29212301E-05  8.57842870E-06  4.97663126E-06 -2.02064486E-05
 -1.95032094E-05  4.14333055E-05  2.29218675E-05 -8.60104980E-06  4.93721809E-06
 -1.29711483E-06 -7.60583051E-07  1.73130419E-06  1.37070368E-10 -3.84060158E-09
 -1.37338373E-04 -1.35581122E-04  8.64925615E-10 -2.73343357E-08  3.87611064E-05
 -1.09960299E-04  9.64096360E-11 -2.96029112E-09 -1.30873239E-05 -1.02411865E-06
 -1.02429585E-06  2.32843444E-10 -6.57799390E-09 -6.83629214E-12 -2.87052931E-06
 -1.16047653E-05 -1.31600998E-06 -2.95437807E-11  7.25184718E-10  1.65703322E-04
 -8.33584332E-05  1.22476360E-09 -3.58569353E-08  1.04958274E-04  1.63304714E-05
  5.61637477E-10 -1.60018791E-08  3.86475978E-06 -8.00326943E-06 -8.00323682E-06
 -2.19212847E-10  6.45817656E-09  3.00109443E-13  1.69107515E-06  1.64922927E-05
 -1.00444621E-05  2.15271364E-11 -1.27876745E-09 -8.83118448E-06  4.63301325E-07
  3.31685782E-10 -1.54379331E-08  1.18149808E-03  1.79972186E-04  1.45348877E-09
 -8.70928814E-08 -1.15148035E-05  5.51027378E-06  5.51132274E-06 -1.73991445E-10
  2.04408912E-09  3.32660429E-11  1.08612887E-07  1.96413910E-06 -3.30095137E-07
  2.32336178E-11 -3.26119768E-10  3.93712958E-06  1.68651224E-06 -1.33894304E-10
  1.87088927E-09 -4.78820488E-05 -1.40011421E-05  4.21706757E-10 -4.39403741E-09
 -9.62965153E-05 -6.02299325E-05 -2.03513776E-09  6.14244958E-08  5.56752089E-06
  3.27796202E-06  3.27814502E-06  1.28048203E-11  6.53711356E-10  1.51776741E-11
  5.67816305E-06 -6.61392875E-05 -1.82093699E-04 -2.93707295E-06  1.10396154E-08
 -4.81284991E-06  5.66461488E-06 -6.60786225E-05 -1.82306744E-04 -2.93866926E-06
  4.15990576E-06  2.41431719E-06  5.66391555E-06 -6.60767036E-05 -1.82319763E-04
 -2.93881835E-06 -4.17088855E-06  2.39514637E-06  8.42524920E-05  2.05464136E-04
 -2.93733531E-04  3.42387283E-09 -1.01577643E-07 -2.44416856E-04 -4.13293410E-04
  5.35046127E-09 -1.59619473E-07  1.33372190E-03  1.11142218E-03 -1.36863034E-08
  3.77360107E-07 -7.68877493E-04 -1.18806885E-05 -1.18814305E-05  1.04328739E-08
 -3.10260581E-07 -1.18478821E-11  9.92697368E-01  3.44539292E-02 -1.41882736E-03
  1.66819969E-08 -4.96799903E-07  5.21282838E-03  1.17381632E-04 -1.40682426E-09
  4.03156554E-08 -3.03585915E-03  3.59323832E-05 -2.91734744E-10  2.42434425E-08
 -7.70080898E-03 -8.42634083E-03 -8.42634097E-03 -9.91429885E-09  2.95312769E-07
 -1.03879383E-11  9.93020046E-01  4.95138445E-02 -5.68009577E-04  1.48405381E-09
 -9.81821841E-08 -1.63600794E-02  4.96280516E-04 -3.31002643E-09  4.88656684E-07
  6.27107517E-03 -2.86363745E-03 -8.41240348E-09  7.05233055E-07 -9.28568606E-03
 -8.77202191E-03 -8.77204646E-03 -4.85111815E-09  9.97485117E-08  4.42676468E-09
 -7.73079427E-06 -5.56093156E-05 -1.45390305E-05 -4.46087558E-10  4.95059671E-09
 -1.09265761E-04  2.11460115E-04  3.37897466E-09 -4.54257260E-08  2.77157212E-03
  1.62255083E-03 -2.54891586E-09 -1.93638117E-07 -4.95884483E-03 -1.73750599E-03
 -2.38960021E-09  1.36566335E-07 -2.06977483E-05 -1.55546102E-04 -1.55557306E-04
 -1.11416734E-09 -2.25574180E-08 -7.05901800E-10 -1.56679082E-04  3.03643656E-03
 -9.07222656E-04  4.41021697E-05  2.68125304E-07 -1.15797006E-04 -1.56695387E-04
  3.03586288E-03 -9.07553749E-04  4.41118956E-05  1.00139508E-04  5.80870809E-05
 -1.56691744E-04  3.03585406E-03 -9.07504295E-04  4.41088295E-05 -1.00401388E-04
  5.76271317E-05 -1.41196028E-05 -1.06015515E-04  4.45039148E-05 -2.51437694E-09
  3.29314363E-08 -7.60142052E-04 -1.35258386E-03  2.14556712E-08 -4.72003294E-07
  1.39812830E-03  7.65949702E-04  2.45242390E-08 -3.72060731E-07  1.47031264E-05
 -3.81771432E-05 -3.81589487E-05  4.03755848E-10 -2.26170121E-08  4.61919003E-10
 -4.27574931E-05 -1.70437942E-04  1.12315723E-05 -6.12851372E-10  2.75152406E-08
  1.76589866E-03 -5.85053294E-04  7.99279092E-09 -2.85830515E-07 -8.32665619E-04
 -2.69981056E-04 -2.26452481E-08  4.24957690E-07 -4.91689274E-05 -9.76025034E-05
 -9.76040771E-05  4.62157963E-10  1.06159387E-09 -9.47987604E-12 -2.77683056E-05
 -1.33015284E-04 -9.68499293E-05 -3.93720855E-10  1.18144721E-08  4.54702081E-04
  7.07278370E-04  6.43866642E-09 -2.37442750E-07 -2.31312338E-03  6.79747111E-03
  1.14097199E-08 -4.59375913E-07  2.77386915E-05 -3.31484170E-05 -3.31465107E-05
  1.64429815E-10 -8.49036035E-09  1.80439188E-10  2.26366625E-07  7.93393307E-06
  6.31886500E-06  1.80765471E-10 -3.76057989E-09  1.90066678E-05 -4.13728057E-05
 -1.08657206E-09  2.19949236E-08 -2.07285373E-04  4.32560903E-04  4.50318317E-09
 -8.91448667E-08  7.82152666E-03  1.90088643E-03  1.10615083E-08 -3.61751157E-07
  5.60311318E-05 -1.37830548E-06 -1.37397057E-06  6.72767456E-10 -1.25417279E-08
  1.42419832E-10 -3.93371815E-05 -4.62359322E-04  9.13080993E-05 -2.72893200E-05
  1.26942020E-08 -5.76303051E-06 -3.93682911E-05 -4.62002243E-04  9.12200335E-05
 -2.72067954E-05  4.94583716E-06  2.88834620E-06 -3.93708491E-05 -4.61989346E-04
  9.11984215E-05 -2.72012100E-05 -4.95780366E-06  2.86427415E-06  9.92836080E-01
  4.93931989E-02  1.85691543E-03 -2.41038390E-08  7.17824034E-07 -1.07704203E-02
 -5.09084153E-04  1.34096058E-08 -4.09261506E-07 -9.56955383E-03  7.27291897E-04
  1.19895878E-08 -3.95056607E-07 -8.45475286E-03 -9.72306326E-03 -9.72306602E-03
 -1.70559910E-08  5.12114109E-07 -7.13984092E-11 -4.88443129E-04  7.58812964E-05
  4.30930130E-04 -4.76904837E-09  1.40755469E-07 -1.44445179E-03  6.90517236E-04
 -1.11096615E-08  3.33112099E-07  9.08085723E-03 -3.60829004E-03  4.03039978E-08
 -1.17111923E-06 -2.64820749E-04  1.87272745E-04  1.87272824E-04  6.64076466E-09
 -1.98429663E-07 -8.85850669E-13 -8.65577525E-05  1.36315029E-04  2.90389954E-04
  8.28855844E-10 -1.74121315E-08  2.68286319E-03 -1.56592024E-03 -1.59890947E-08
  7.13821583E-08 -2.92515023E-02  3.79227276E-02  1.18390376E-07 -3.27717757E-06
 -6.64503574E-04 -9.90477653E-05 -9.90800092E-05 -2.96763079E-09  7.60228932E-08
 -2.05355438E-09 -2.84608541E-01  1.02275244E+00  4.24058726E-03  7.89865304E-09
 -5.11323971E-07  7.59934228E-02  5.31059107E-04  1.53473830E-09 -5.72716042E-08
 -2.61637796E-02 -1.62650430E-03 -3.10421781E-09  1.70314021E-07  6.03943966E-02
  1.70372167E-02  8.96367947E-08 -2.75708784E-06 -1.52734376E-02 -1.55651606E-02
 -1.55651606E-02  2.14041457E-09 -5.36575115E-08  1.23938933E-10 -4.83303469E-05
 -7.64759016E-04  8.95690619E-04 -6.14089274E-05 -4.89176211E-09  2.01993135E-06
 -4.83573498E-05 -7.64570569E-04  8.96289216E-04 -6.12965188E-05 -1.75675363E-06
 -9.96114539E-07 -4.83617723E-05 -7.64582854E-04  8.96341899E-04 -6.12848215E-05
  1.76000335E-06 -9.87582532E-07  1.86372418E-05  8.30493536E-05  4.31799978E-05
 -1.93722613E-09  7.38441531E-08 -8.78974755E-05  3.49896378E-04  1.84591462E-09
 -1.27952713E-07 -2.44741132E-02  1.20217164E-02 -1.42561982E-08  7.39312731E-07
  9.03148583E-05  1.61036606E-05  1.61007802E-05 -2.09654591E-10  6.62365383E-09
 -1.10486040E-10  2.21811107E-06  2.61714324E-05 -1.77537255E-05 -1.07143804E-09
  2.23806592E-08 -4.11219339E-04  4.44454777E-04 -1.09387100E-09  8.58680270E-08
  1.02598978E-03 -3.01279350E-03  1.73294086E-09 -1.71177507E-07 -5.83664493E-05
  8.71614291E-06  8.71711936E-06  1.04557689E-09 -3.72084959E-08  2.91417218E-11
  7.64459026E-05  1.40928541E-03  7.09506649E-05 -7.97832186E-12 -4.73873287E-08
 -3.51348810E-04  1.60689646E-03 -2.79480327E-08  5.28183690E-07  3.73367712E-02
 -6.06657992E-02 -1.36506184E-07  3.77270419E-06 -1.63474293E-03  2.39174641E-04
  2.39036736E-04 -7.59734153E-09  2.53804956E-07 -6.30174339E-09  1.24944458E-03
 -4.76758602E-03  9.90382430E-01  1.98544262E-06 -1.07681642E-04 -2.86553133E-04
  3.13267762E-02  6.77979702E-08 -3.47700274E-06  4.69489106E-03 -1.31498759E-02
 -3.12107419E-08  1.48790875E-06 -7.20676764E-02 -1.44624766E-02 -1.11746035E-07
  3.31797678E-06  5.15391466E-04 -4.11678212E-04 -4.11689512E-04  4.04764586E-09
 -1.29044141E-07 -3.02846121E-10 -2.28197131E-04  1.40421775E-03 -5.86801590E-03
 -3.11554242E-04  1.04100276E-07 -4.49690275E-05 -2.28429739E-04  1.40361994E-03
 -5.86897195E-03 -3.11406168E-04  3.89921275E-05  2.26279911E-05 -2.28452444E-04
  1.40358314E-03 -5.86901745E-03 -3.11389632E-04 -3.91008045E-05  2.24526889E-05
 -2.94623579E-05 -1.70283608E-04 -1.03043711E-04  1.85098190E-09 -7.41844203E-08
  3.38313600E-03  2.14971760E-03 -3.00650417E-08  1.00018976E-06  5.25542024E-02
 -2.04890769E-02 -1.14509664E-08 -4.47428970E-07  1.04367881E-04 -5.42874971E-05
 -5.42871362E-05 -4.81170151E-09  1.40274211E-07  4.09259412E-11 -1.75603811E-06
  2.17833205E-05  3.63138326E-05  1.63035587E-09 -3.16879395E-08 -1.43289683E-03
  1.07521619E-03 -1.89615430E-08  4.70808494E-07 -9.70102303E-03  6.54466743E-03
 -2.34941399E-08  1.02240043E-06 -1.23100002E-04  1.77368392E-05  1.77335538E-05
  2.04512223E-09 -5.42518826E-08 -3.83596431E-11  2.57785988E-09  1.62059175E-08
  1.84900804E-09 -7.17004640E-05  1.38846869E-06 -8.53548265E-08 -7.73849654E-09
  3.16622293E-04 -6.14034666E-06  5.78160240E-08 -5.91785672E-07  3.57290011E-04
 -6.89289419E-06  3.18251877E-10  2.16351345E-06 -2.16297826E-06  5.72790376E-05
 -1.10877060E-06 -9.52045908E-05  2.79112925E-10 -2.70809821E-09 -4.07452245E-06
  9.90659624E-01 -1.91814646E-02 -2.80733354E-09 -1.14362621E-07  2.95886477E-02
 -5.72903629E-04  4.65137287E-08  4.29426371E-08 -1.16224657E-02  2.25035733E-04
 -5.93594169E-07 -1.72244148E-07  5.18494931E-03 -1.00389401E-04 -1.59796032E-09
 -1.27277131E-07  1.24810182E-07  2.74674386E-04 -5.31785440E-06  5.51332906E-06
 -1.42995887E-06  1.23496760E-05 -9.92002676E-05 -5.30242761E-06 -2.67114317E-05
  1.52196629E-06 -5.64566320E-05  4.85595381E-04 -3.91822670E-03 -2.09324698E-04
 -6.09165429E-05 -1.92848146E-05  5.78951294E-05 -4.97774849E-04  4.01740736E-03
  2.14617548E-04 -6.18667656E-05  2.06554272E-05 -1.17794829E-09 -4.80429460E-09
  9.37433032E-10  5.39589193E-05 -1.04440123E-06  2.81755735E-08 -1.14643673E-08
 -2.16381055E-04  4.18791712E-06  4.60061086E-07 -2.66589111E-07  1.03227579E-03
 -1.99812367E-05 -1.42051385E-09 -8.37527386E-08  7.94494566E-08 -2.42570648E-06
  4.68556466E-08  3.58727444E-06  1.15104028E-10 -8.47513806E-11 -1.28686215E-10
 -2.19887454E-05  4.25684098E-07  1.22487734E-09 -3.37097937E-10  1.33441626E-04
 -2.58300559E-06 -1.20214867E-08  7.42588177E-08 -3.85100516E-04  7.45435768E-06
 -4.31130299E-11 -5.40336753E-08  5.57802414E-08 -1.56008170E-05  3.01933665E-07
  2.41407387E-06 -1.98554549E-08 -1.23821224E-07 -2.79160260E-08 -1.38863718E-06
 -7.17279677E-05  6.24900047E-07  1.20727250E-07  6.11708652E-06  3.16434340E-04
 -2.56091218E-06  8.94487926E-06  6.92818397E-06  3.56524047E-04 -2.60089128E-09
 -8.25140743E-05  8.25098747E-05  1.10987870E-06  5.73069459E-05 -2.50285419E-06
 -1.52769148E-08  7.73737459E-08  1.07706472E-04  1.91814646E-02  9.90659623E-01
  3.77575440E-08  3.12980875E-06  5.72905425E-04  2.95886251E-02 -5.74447386E-07
 -1.08809546E-06 -2.25038412E-04 -1.16223852E-02  9.47344460E-06  2.96844573E-06
  1.00396160E-04  5.18496545E-03  6.86009719E-08  4.83626698E-06 -4.84154209E-06
  5.31896698E-06  2.74682458E-04  1.45868047E-07  6.59179006E-05 -5.68526025E-04
  4.58079116E-03  2.44830677E-04 -4.09479681E-07 -7.30520395E-05 -3.42359573E-05
  2.94237714E-04 -2.37569039E-03 -1.26962261E-04 -2.12528149E-05 -3.87446080E-05
 -3.17669485E-05  2.72919900E-04 -2.20379036E-03 -1.17775054E-04  1.87640042E-05
 -3.77879870E-05  1.56737639E-08  6.35275802E-08 -1.33997552E-08  1.04481391E-06