 Entering Gaussian System, Link 0=g16
 Initial command:
 /usr/local/g16_AVX//g16/l1.exe "/scratch/alanqf/0121-54563.ixchel.mda.cinvestav.mx/Gau-44560.inp" -scrdir="/scratch/alanqf/0121-54563.ixchel.mda.cinvestav.mx/"
 Entering Link 1 = /usr/local/g16_AVX//g16/l1.exe PID=     44561.
  
 Copyright (c) 1988-2017, Gaussian, Inc.  All Rights Reserved.
  
 This is part of the Gaussian(R) 16 program.  It is based on
 the Gaussian(R) 09 system (copyright 2009, Gaussian, Inc.),
 the Gaussian(R) 03 system (copyright 2003, Gaussian, Inc.),
 the Gaussian(R) 98 system (copyright 1998, Gaussian, Inc.),
 the Gaussian(R) 94 system (copyright 1995, Gaussian, Inc.),
 the Gaussian 92(TM) system (copyright 1992, Gaussian, Inc.),
 the Gaussian 90(TM) system (copyright 1990, Gaussian, Inc.),
 the Gaussian 88(TM) system (copyright 1988, Gaussian, Inc.),
 the Gaussian 86(TM) system (copyright 1986, Carnegie Mellon
 University), and the Gaussian 82(TM) system (copyright 1983,
 Carnegie Mellon University). Gaussian is a federally registered
 trademark of Gaussian, Inc.
  
 This software contains proprietary and confidential information,
 including trade secrets, belonging to Gaussian, Inc.
  
 This software is provided under written license and may be
 used, copied, transmitted, or stored only in accord with that
 written license.
  
 The following legend is applicable only to US Government
 contracts under FAR:
  
                    RESTRICTED RIGHTS LEGEND
  
 Use, reproduction and disclosure by the US Government is
 subject to restrictions as set forth in subparagraphs (a)
 and (c) of the Commercial Computer Software - Restricted
 Rights clause in FAR 52.227-19.
  
 Gaussian, Inc.
 340 Quinnipiac St., Bldg. 40, Wallingford CT 06492
  
  
 ---------------------------------------------------------------
 Warning -- This program may not be used in any manner that
 competes with the business of Gaussian, Inc. or will provide
 assistance to any competitor of Gaussian, Inc.  The licensee
 of this program is prohibited from giving any competitor of
 Gaussian, Inc. access to this program.  By using this program,
 the user acknowledges that Gaussian, Inc. is engaged in the
 business of creating and licensing software in the field of
 computational chemistry and represents and warrants to the
 licensee that it is not a competitor of Gaussian, Inc. and that
 it will not use this program in any manner prohibited above.
 ---------------------------------------------------------------
  

 Cite this work as:
 Gaussian 16, Revision B.01,
 M. J. Frisch, G. W. Trucks, H. B. Schlegel, G. E. Scuseria, 
 M. A. Robb, J. R. Cheeseman, G. Scalmani, V. Barone, 
 G. A. Petersson, H. Nakatsuji, X. Li, M. Caricato, A. V. Marenich, 
 J. Bloino, B. G. Janesko, R. Gomperts, B. Mennucci, H. P. Hratchian, 
 J. V. Ortiz, A. F. Izmaylov, J. L. Sonnenberg, D. Williams-Young, 
 F. Ding, F. Lipparini, F. Egidi, J. Goings, B. Peng, A. Petrone, 
 T. Henderson, D. Ranasinghe, V. G. Zakrzewski, J. Gao, N. Rega, 
 G. Zheng, W. Liang, M. Hada, M. Ehara, K. Toyota, R. Fukuda, 
 J. Hasegawa, M. Ishida, T. Nakajima, Y. Honda, O. Kitao, H. Nakai, 
 T. Vreven, K. Throssell, J. A. Montgomery, Jr., J. E. Peralta, 
 F. Ogliaro, M. J. Bearpark, J. J. Heyd, E. N. Brothers, K. N. Kudin, 
 V. N. Staroverov, T. A. Keith, R. Kobayashi, J. Normand, 
 K. Raghavachari, A. P. Rendell, J. C. Burant, S. S. Iyengar, 
 J. Tomasi, M. Cossi, J. M. Millam, M. Klene, C. Adamo, R. Cammi, 
 J. W. Ochterski, R. L. Martin, K. Morokuma, O. Farkas, 
 J. B. Foresman, and D. J. Fox, Gaussian, Inc., Wallingford CT, 2016.
 
 ******************************************
 Gaussian 16:  ES64L-G16RevB.01 20-Dec-2017
                13-Oct-2024 
 ******************************************
 %NProcShared=26
 Will use up to   26 processors via shared memory.
 %MEM=20GB
 %chk=CHKfiles/0121.chk
 ---------------------------------------------------------------------
 #p b3lyp 6-31++g(d,p) scf=verytight NoSymm freq=noraman int=ultrafine
 ---------------------------------------------------------------------
 1/10=4,30=1,38=1/1,3;
 2/12=2,15=1,17=6,18=5,40=1/2;
 3/5=1,6=6,7=1111,11=2,25=1,30=1,71=2,74=-5,75=-5,140=1/1,2,3;
 4//1;
 5/5=2,17=3,38=5,98=1/2;
 8/6=4,10=90,11=11/1;
 11/6=1,8=1,9=11,15=111,16=1,31=1/1,2,10;
 10/6=1,31=1/2;
 6/7=2,8=2,9=2,10=2,28=1/1;
 7/8=1,10=1,25=1,30=1/1,2,3,16;
 1/10=4,30=1/3;
 99//99;
 Leave Link    1 at Sun Oct 13 09:51:27 2024, MaxMem=  2684354560 cpu:               1.4 elap:               0.1
 (Enter /usr/local/g16_AVX//g16/l101.exe)
 ------------------------
 RxCoord=1.99953 DE=48.80
 ------------------------
 Symbolic Z-matrix:
 Charge = -1 Multiplicity = 1
 C                    -0.26      0.00001  -0.00019 
 Cl                   -2.15894  0.         0.00005 
 H                     0.03637   0.0024   -1.04108 
 H                     0.03672   0.90023   0.52219 
 H                     0.03674  -0.9026    0.51805 
 C                     2.38442   0.00001  -0.00017 
 N                     3.56292  -0.00001   0.00025 
 
 ITRead=  0  0  0  0  0  0  0
 MicOpt= -1 -1 -1 -1 -1 -1 -1
 NAtoms=      7 NQM=        7 NQMF=       0 NMMI=      0 NMMIF=      0
                NMic=       0 NMicF=      0.
                    Isotopes and Nuclear Properties:
 (Nuclear quadrupole moments (NQMom) in fm**2, nuclear magnetic moments (NMagM)
  in nuclear magnetons)

  Atom         1           2           3           4           5           6           7
 IAtWgt=          12          35           1           1           1          12          14
 AtmWgt=  12.0000000  34.9688527   1.0078250   1.0078250   1.0078250  12.0000000  14.0030740
 NucSpn=           0           3           1           1           1           0           2
 AtZEff=  -0.0000000  -0.0000000  -0.0000000  -0.0000000  -0.0000000  -0.0000000  -0.0000000
 NQMom=    0.0000000  -8.1650000   0.0000000   0.0000000   0.0000000   0.0000000   2.0440000
 NMagM=    0.0000000   0.8218740   2.7928460   2.7928460   2.7928460   0.0000000   0.4037610
 AtZNuc=   6.0000000  17.0000000   1.0000000   1.0000000   1.0000000   6.0000000   7.0000000
 Leave Link  101 at Sun Oct 13 09:51:27 2024, MaxMem=  2684354560 cpu:               1.8 elap:               0.1
 (Enter /usr/local/g16_AVX//g16/l103.exe)

 GradGradGradGradGradGradGradGradGradGradGradGradGradGradGradGradGradGrad
 Berny optimization.
 Initialization pass.
 Trust Radius=3.00D-01 FncErr=1.00D-07 GrdErr=1.00D-07 EigMax=2.50D+02 EigMin=1.00D-04
 Number of steps in this run=      2 maximum allowed number of steps=      2.
 GradGradGradGradGradGradGradGradGradGradGradGradGradGradGradGradGradGrad

 Leave Link  103 at Sun Oct 13 09:51:27 2024, MaxMem=  2684354560 cpu:               0.3 elap:               0.0
 (Enter /usr/local/g16_AVX//g16/l202.exe)
                          Input orientation:                          
 ---------------------------------------------------------------------
 Center     Atomic      Atomic             Coordinates (Angstroms)
 Number     Number       Type             X           Y           Z
 ---------------------------------------------------------------------
      1          6           0       -0.260000    0.000006   -0.000192
      2         17           0       -2.158935   -0.000002    0.000051
      3          1           0        0.036372    0.002395   -1.041079
      4          1           0        0.036720    0.900227    0.522187
      5          1           0        0.036744   -0.902600    0.518045
      6          6           0        2.384419    0.000006   -0.000171
      7          7           0        3.562916   -0.000008    0.000246
 ---------------------------------------------------------------------
                    Distance matrix (angstroms):
                    1          2          3          4          5
     1  C    0.000000
     2  Cl   1.898935   0.000000
     3  H    1.082261   2.429677   0.000000
     4  H    1.082276   2.429802   1.802749   0.000000
     5  H    1.082277   2.429816   1.802743   1.802832   0.000000
     6  C    2.644419   4.543354   2.568428   2.568063   2.568039
     7  N    3.822916   5.721851   3.677074   3.676534   3.676503
                    6          7
     6  C    0.000000
     7  N    1.178497   0.000000
 Symmetry turned off by external request.
 This structure is nearly, but not quite of a higher symmetry.
 Consider Symm=Loose if the higher symmetry is desired.
 Stoichiometry    C2H3ClN(1-)
 Framework group  C1[X(C2H3ClN)]
 Deg. of freedom    15
 Full point group                 C1      NOp   1
 Rotational constants (GHZ):         154.2939643           1.2283524           1.2283518
 Leave Link  202 at Sun Oct 13 09:51:27 2024, MaxMem=  2684354560 cpu:               0.2 elap:               0.0
 (Enter /usr/local/g16_AVX//g16/l301.exe)
 Standard basis: 6-31++G(d,p) (6D, 7F)
 Ernie: Thresh=  0.10000D-02 Tol=  0.10000D-05 Strict=F.
    98 basis functions,   176 primitive gaussians,    98 cartesian basis functions
    20 alpha electrons       20 beta electrons
       nuclear repulsion energy       110.7074195802 Hartrees.
 IExCor=  402 DFT=T Ex+Corr=B3LYP ExCW=0 ScaHFX=  0.200000
 ScaDFX=  0.800000  0.720000  1.000000  0.810000 ScalE2=  1.000000  1.000000
 IRadAn=      5 IRanWt=     -1 IRanGd=            0 ICorTp=0 IEmpDi=  4
 NAtoms=    7 NActive=    7 NUniq=    7 SFac= 1.00D+00 NAtFMM=   60 NAOKFM=F Big=F
 Integral buffers will be    131072 words long.
 Raffenetti 2 integral format.
 Two-electron integral symmetry is turned off.
 Leave Link  301 at Sun Oct 13 09:51:27 2024, MaxMem=  2684354560 cpu:               0.9 elap:               0.1
 (Enter /usr/local/g16_AVX//g16/l302.exe)
 NPDir=0 NMtPBC=     1 NCelOv=     1 NCel=       1 NClECP=     1 NCelD=      1
         NCelK=      1 NCelE2=     1 NClLst=     1 CellRange=     0.0.
 One-electron integrals computed using PRISM.
 NBasis=    98 RedAO= T EigKep=  1.24D-04  NBF=    98
 NBsUse=    98 1.00D-06 EigRej= -1.00D+00 NBFU=    98
 Precomputing XC quadrature grid using
 IXCGrd= 4 IRadAn=           5 IRanWt=          -1 IRanGd=           0 AccXCQ= 0.00D+00.
 Generated NRdTot=       0 NPtTot=           0 NUsed=           0 NTot=          32
 NSgBfM=    98    98    98    98    98 MxSgAt=     7 MxSgA2=     7.
 Leave Link  302 at Sun Oct 13 09:51:27 2024, MaxMem=  2684354560 cpu:               4.7 elap:               0.2
 (Enter /usr/local/g16_AVX//g16/l303.exe)
 DipDrv:  MaxL=1.
 Leave Link  303 at Sun Oct 13 09:51:27 2024, MaxMem=  2684354560 cpu:               0.5 elap:               0.0
 (Enter /usr/local/g16_AVX//g16/l401.exe)
 ExpMin= 3.60D-02 ExpMax= 2.52D+04 ExpMxC= 3.78D+03 IAcc=3 IRadAn=         5 AccDes= 0.00D+00
 Harris functional with IExCor=  402 and IRadAn=       5 diagonalized for initial guess.
 HarFok:  IExCor=  402 AccDes= 0.00D+00 IRadAn=         5 IDoV= 1 UseB2=F ITyADJ=14
 ICtDFT=  3500011 ScaDFX=  1.000000  1.000000  1.000000  1.000000
 FoFCou: FMM=F IPFlag=           0 FMFlag=      100000 FMFlg1=           0
         NFxFlg=           0 DoJE=T BraDBF=F KetDBF=T FulRan=T
         wScrn=  0.000000 ICntrl=       500 IOpCl=  0 I1Cent=   200000004 NGrid=           0
         NMat0=    1 NMatS0=      1 NMatT0=    0 NMatD0=    1 NMtDS0=    0 NMtDT0=    0
 Symmetry not used in FoFCou.
 Harris En= -593.072101965570    
 JPrj=0 DoOrth=F DoCkMO=F.
 Leave Link  401 at Sun Oct 13 09:51:28 2024, MaxMem=  2684354560 cpu:               6.0 elap:               0.3
 (Enter /usr/local/g16_AVX//g16/l502.exe)
 Keep R1 ints in memory in canonical form, NReq=35752935.
 FoFCou: FMM=F IPFlag=           0 FMFlag=           0 FMFlg1=           0
         NFxFlg=           0 DoJE=F BraDBF=F KetDBF=F FulRan=T
         wScrn=  0.000000 ICntrl=       600 IOpCl=  0 I1Cent=           0 NGrid=           0
         NMat0=    1 NMatS0=   4851 NMatT0=    0 NMatD0=    1 NMtDS0=    0 NMtDT0=    0
 Symmetry not used in FoFCou.
 Two-electron integral symmetry not used.
 Closed shell SCF:
 Using DIIS extrapolation, IDIIS=  1040.
 NGot=  2684354560 LenX=  2672563405 LenY=  2672553360
 Requested convergence on RMS density matrix=1.00D-08 within 128 cycles.
 Requested convergence on MAX density matrix=1.00D-06.
 Requested convergence on             energy=1.00D-06.
 No special actions if energy rises.

 Cycle   1  Pass 1  IDiag  1:
 E= -592.837494501371    
 DIIS: error= 3.46D-02 at cycle   1 NSaved=   1.
 NSaved= 1 IEnMin= 1 EnMin= -592.837494501371     IErMin= 1 ErrMin= 3.46D-02
 ErrMax= 3.46D-02  0.00D+00 EMaxC= 1.00D-01 BMatC= 1.32D-01 BMatP= 1.32D-01
 IDIUse=3 WtCom= 6.54D-01 WtEn= 3.46D-01
 Coeff-Com:  0.100D+01
 Coeff-En:   0.100D+01
 Coeff:      0.100D+01
 Gap=     0.397 Goal=   None    Shift=    0.000
 GapD=    0.397 DampG=1.000 DampE=0.500 DampFc=0.5000 IDamp=-1.
 Damping current iteration by 5.00D-01
 RMSDP=9.11D-02 MaxDP=3.22D+00              OVMax= 3.91D-01

 Cycle   2  Pass 1  IDiag  1:
 E= -592.872125163064     Delta-E=       -0.034630661693 Rises=F Damp=T
 DIIS: error= 1.12D-02 at cycle   2 NSaved=   2.
 NSaved= 2 IEnMin= 2 EnMin= -592.872125163064     IErMin= 2 ErrMin= 1.12D-02
 ErrMax= 1.12D-02  0.00D+00 EMaxC= 1.00D-01 BMatC= 1.70D-02 BMatP= 1.32D-01
 IDIUse=3 WtCom= 8.88D-01 WtEn= 1.12D-01
 Coeff-Com:  0.198D+00 0.802D+00
 Coeff-En:   0.378D+00 0.622D+00
 Coeff:      0.218D+00 0.782D+00
 Gap=     0.193 Goal=   None    Shift=    0.000
 RMSDP=4.48D-02 MaxDP=1.63D+00 DE=-3.46D-02 OVMax= 2.86D-01

 Cycle   3  Pass 1  IDiag  1:
 E= -592.979521431055     Delta-E=       -0.107396267991 Rises=F Damp=F
 DIIS: error= 1.69D-02 at cycle   3 NSaved=   3.
 NSaved= 3 IEnMin= 3 EnMin= -592.979521431055     IErMin= 2 ErrMin= 1.12D-02
 ErrMax= 1.69D-02  0.00D+00 EMaxC= 1.00D-01 BMatC= 1.36D-02 BMatP= 1.70D-02
 IDIUse=3 WtCom= 8.31D-01 WtEn= 1.69D-01
 Coeff-Com:  0.598D-01 0.474D+00 0.466D+00
 Coeff-En:   0.000D+00 0.000D+00 0.100D+01
 Coeff:      0.497D-01 0.394D+00 0.556D+00
 Gap=     0.198 Goal=   None    Shift=    0.000
 RMSDP=1.92D-03 MaxDP=3.86D-02 DE=-1.07D-01 OVMax= 6.77D-02

 Cycle   4  Pass 1  IDiag  1:
 E= -592.984061477152     Delta-E=       -0.004540046097 Rises=F Damp=F
 DIIS: error= 1.44D-02 at cycle   4 NSaved=   4.
 NSaved= 4 IEnMin= 4 EnMin= -592.984061477152     IErMin= 2 ErrMin= 1.12D-02
 ErrMax= 1.44D-02  0.00D+00 EMaxC= 1.00D-01 BMatC= 8.96D-03 BMatP= 1.36D-02
 IDIUse=3 WtCom= 8.56D-01 WtEn= 1.44D-01
 Coeff-Com: -0.142D-01 0.989D-01 0.443D+00 0.472D+00
 Coeff-En:   0.000D+00 0.000D+00 0.417D+00 0.583D+00
 Coeff:     -0.121D-01 0.847D-01 0.439D+00 0.488D+00
 Gap=     0.183 Goal=   None    Shift=    0.000
 RMSDP=1.17D-03 MaxDP=1.74D-02 DE=-4.54D-03 OVMax= 3.41D-02

 Cycle   5  Pass 1  IDiag  1:
 E= -592.991976938425     Delta-E=       -0.007915461273 Rises=F Damp=F
 DIIS: error= 2.23D-03 at cycle   5 NSaved=   5.
 NSaved= 5 IEnMin= 5 EnMin= -592.991976938425     IErMin= 5 ErrMin= 2.23D-03
 ErrMax= 2.23D-03  0.00D+00 EMaxC= 1.00D-01 BMatC= 3.25D-04 BMatP= 8.96D-03
 IDIUse=3 WtCom= 9.78D-01 WtEn= 2.23D-02
 Coeff-Com: -0.105D-01 0.274D-01 0.200D+00 0.267D+00 0.517D+00
 Coeff-En:   0.000D+00 0.000D+00 0.000D+00 0.000D+00 0.100D+01
 Coeff:     -0.102D-01 0.268D-01 0.195D+00 0.261D+00 0.527D+00
 Gap=     0.187 Goal=   None    Shift=    0.000
 RMSDP=4.50D-04 MaxDP=7.27D-03 DE=-7.92D-03 OVMax= 8.86D-03

 Cycle   6  Pass 1  IDiag  1:
 E= -592.992325726211     Delta-E=       -0.000348787787 Rises=F Damp=F
 DIIS: error= 3.72D-04 at cycle   6 NSaved=   6.
 NSaved= 6 IEnMin= 6 EnMin= -592.992325726211     IErMin= 6 ErrMin= 3.72D-04
 ErrMax= 3.72D-04  0.00D+00 EMaxC= 1.00D-01 BMatC= 1.38D-05 BMatP= 3.25D-04
 IDIUse=3 WtCom= 9.96D-01 WtEn= 3.72D-03
 Coeff-Com: -0.340D-02 0.136D-02 0.543D-01 0.789D-01 0.242D+00 0.627D+00
 Coeff-En:   0.000D+00 0.000D+00 0.000D+00 0.000D+00 0.000D+00 0.100D+01
 Coeff:     -0.339D-02 0.135D-02 0.541D-01 0.786D-01 0.241D+00 0.628D+00
 Gap=     0.186 Goal=   None    Shift=    0.000
 RMSDP=7.81D-05 MaxDP=1.68D-03 DE=-3.49D-04 OVMax= 1.30D-03

 Cycle   7  Pass 1  IDiag  1:
 E= -592.992339896677     Delta-E=       -0.000014170466 Rises=F Damp=F
 DIIS: error= 6.11D-05 at cycle   7 NSaved=   7.
 NSaved= 7 IEnMin= 7 EnMin= -592.992339896677     IErMin= 7 ErrMin= 6.11D-05
 ErrMax= 6.11D-05  0.00D+00 EMaxC= 1.00D-01 BMatC= 3.75D-07 BMatP= 1.38D-05
 IDIUse=1 WtCom= 1.00D+00 WtEn= 0.00D+00
 Coeff-Com: -0.587D-04-0.106D-02 0.295D-02 0.394D-02 0.333D-01 0.193D+00
 Coeff-Com:  0.768D+00
 Coeff:     -0.587D-04-0.106D-02 0.295D-02 0.394D-02 0.333D-01 0.193D+00
 Coeff:      0.768D+00
 Gap=     0.186 Goal=   None    Shift=    0.000
 RMSDP=2.46D-05 MaxDP=4.44D-04 DE=-1.42D-05 OVMax= 3.66D-04

 Cycle   8  Pass 1  IDiag  1:
 E= -592.992340324522     Delta-E=       -0.000000427845 Rises=F Damp=F
 DIIS: error= 1.63D-05 at cycle   8 NSaved=   8.
 NSaved= 8 IEnMin= 8 EnMin= -592.992340324522     IErMin= 8 ErrMin= 1.63D-05
 ErrMax= 1.63D-05  0.00D+00 EMaxC= 1.00D-01 BMatC= 3.45D-08 BMatP= 3.75D-07
 IDIUse=1 WtCom= 1.00D+00 WtEn= 0.00D+00
 Coeff-Com:  0.214D-03-0.655D-03-0.141D-02-0.204D-02 0.265D-02 0.490D-01
 Coeff-Com:  0.313D+00 0.639D+00
 Coeff:      0.214D-03-0.655D-03-0.141D-02-0.204D-02 0.265D-02 0.490D-01
 Coeff:      0.313D+00 0.639D+00
 Gap=     0.186 Goal=   None    Shift=    0.000
 RMSDP=4.05D-06 MaxDP=9.87D-05 DE=-4.28D-07 OVMax= 7.16D-05

 Cycle   9  Pass 1  IDiag  1:
 E= -592.992340363761     Delta-E=       -0.000000039239 Rises=F Damp=F
 DIIS: error= 3.23D-06 at cycle   9 NSaved=   9.
 NSaved= 9 IEnMin= 9 EnMin= -592.992340363761     IErMin= 9 ErrMin= 3.23D-06
 ErrMax= 3.23D-06  0.00D+00 EMaxC= 1.00D-01 BMatC= 1.39D-09 BMatP= 3.45D-08
 IDIUse=1 WtCom= 1.00D+00 WtEn= 0.00D+00
 Coeff-Com:  0.710D-04-0.129D-03-0.454D-03-0.594D-03-0.851D-03 0.263D-02
 Coeff-Com:  0.425D-01 0.213D+00 0.744D+00
 Coeff:      0.710D-04-0.129D-03-0.454D-03-0.594D-03-0.851D-03 0.263D-02
 Coeff:      0.425D-01 0.213D+00 0.744D+00
 Gap=     0.186 Goal=   None    Shift=    0.000
 RMSDP=1.32D-06 MaxDP=2.89D-05 DE=-3.92D-08 OVMax= 1.00D-05

 Cycle  10  Pass 1  IDiag  1:
 E= -592.992340365339     Delta-E=       -0.000000001578 Rises=F Damp=F
 DIIS: error= 4.23D-07 at cycle  10 NSaved=  10.
 NSaved=10 IEnMin=10 EnMin= -592.992340365339     IErMin=10 ErrMin= 4.23D-07
 ErrMax= 4.23D-07  0.00D+00 EMaxC= 1.00D-01 BMatC= 1.30D-11 BMatP= 1.39D-09
 IDIUse=1 WtCom= 1.00D+00 WtEn= 0.00D+00
 Coeff-Com:  0.362D-05 0.123D-05-0.261D-04-0.220D-04-0.180D-03-0.944D-03
 Coeff-Com: -0.527D-02 0.145D-01 0.947D-01 0.897D+00
 Coeff:      0.362D-05 0.123D-05-0.261D-04-0.220D-04-0.180D-03-0.944D-03
 Coeff:     -0.527D-02 0.145D-01 0.947D-01 0.897D+00
 Gap=     0.186 Goal=   None    Shift=    0.000
 RMSDP=1.10D-07 MaxDP=2.73D-06 DE=-1.58D-09 OVMax= 2.07D-06

 Cycle  11  Pass 1  IDiag  1:
 E= -592.992340365354     Delta-E=       -0.000000000015 Rises=F Damp=F
 DIIS: error= 8.16D-08 at cycle  11 NSaved=  11.
 NSaved=11 IEnMin=11 EnMin= -592.992340365354     IErMin=11 ErrMin= 8.16D-08
 ErrMax= 8.16D-08  0.00D+00 EMaxC= 1.00D-01 BMatC= 3.90D-13 BMatP= 1.30D-11
 IDIUse=1 WtCom= 1.00D+00 WtEn= 0.00D+00
 Coeff-Com: -0.762D-06 0.172D-05-0.239D-05 0.289D-06-0.205D-04-0.923D-04
 Coeff-Com: -0.755D-03-0.544D-03 0.421D-02 0.101D+00 0.896D+00
 Coeff:     -0.762D-06 0.172D-05-0.239D-05 0.289D-06-0.205D-04-0.923D-04
 Coeff:     -0.755D-03-0.544D-03 0.421D-02 0.101D+00 0.896D+00
 Gap=     0.186 Goal=   None    Shift=    0.000
 RMSDP=1.40D-08 MaxDP=2.24D-07 DE=-1.49D-11 OVMax= 2.15D-07

 Cycle  12  Pass 1  IDiag  1:
 E= -592.992340365355     Delta-E=       -0.000000000001 Rises=F Damp=F
 DIIS: error= 8.51D-09 at cycle  12 NSaved=  12.
 NSaved=12 IEnMin=12 EnMin= -592.992340365355     IErMin=12 ErrMin= 8.51D-09
 ErrMax= 8.51D-09  0.00D+00 EMaxC= 1.00D-01 BMatC= 7.70D-15 BMatP= 3.90D-13
 IDIUse=1 WtCom= 1.00D+00 WtEn= 0.00D+00
 Coeff-Com: -0.243D-06 0.295D-06-0.687D-06-0.588D-06-0.123D-05-0.912D-06
 Coeff-Com:  0.547D-05-0.422D-03-0.916D-03 0.616D-03 0.160D+00 0.841D+00
 Coeff:     -0.243D-06 0.295D-06-0.687D-06-0.588D-06-0.123D-05-0.912D-06
 Coeff:      0.547D-05-0.422D-03-0.916D-03 0.616D-03 0.160D+00 0.841D+00
 Gap=     0.186 Goal=   None    Shift=    0.000
 RMSDP=4.53D-09 MaxDP=8.02D-08 DE=-9.09D-13 OVMax= 5.71D-08

 SCF Done:  E(RB3LYP) =  -592.992340365     A.U. after   12 cycles
            NFock= 12  Conv=0.45D-08     -V/T= 2.0045
 KE= 5.903141271531D+02 PE=-1.631281588649D+03 EE= 3.372677015502D+02
 Leave Link  502 at Sun Oct 13 09:51:30 2024, MaxMem=  2684354560 cpu:              47.4 elap:               2.1
 (Enter /usr/local/g16_AVX//g16/l801.exe)
 DoSCS=F DFT=T ScalE2(SS,OS)=  1.000000  1.000000
 Range of M.O.s used for correlation:     1    98
 NBasis=    98 NAE=    20 NBE=    20 NFC=     0 NFV=     0
 NROrb=     98 NOA=    20 NOB=    20 NVA=    78 NVB=    78

 **** Warning!!: The largest alpha MO coefficient is  0.34102246D+02

 Leave Link  801 at Sun Oct 13 09:51:30 2024, MaxMem=  2684354560 cpu:               0.5 elap:               0.0
 (Enter /usr/local/g16_AVX//g16/l1101.exe)
 Using compressed storage, NAtomX=     7.
 Will process      8 centers per pass.
 Leave Link 1101 at Sun Oct 13 09:51:30 2024, MaxMem=  2684354560 cpu:               3.6 elap:               0.2
 (Enter /usr/local/g16_AVX//g16/l1102.exe)
 Symmetrizing basis deriv contribution to polar:
 IMax=3 JMax=2 DiffMx= 0.00D+00
 Leave Link 1102 at Sun Oct 13 09:51:30 2024, MaxMem=  2684354560 cpu:               0.5 elap:               0.0
 (Enter /usr/local/g16_AVX//g16/l1110.exe)
 Forming Gx(P) for the SCF density, NAtomX=     7.
 Integral derivatives from FoFJK, PRISM(SPDF).
 Do as many integral derivatives as possible in FoFJK.
 G2DrvN: MDV=    2684353864.
 G2DrvN: will do     8 centers at a time, making    1 passes.
 Calling FoFCou, ICntrl=  3107 FMM=F I1Cent=   0 AccDes= 0.00D+00.
 FoFJK:  IHMeth= 1 ICntrl=    3107 DoSepK=F KAlg= 0 I1Cent=           0 FoldK=F
 IRaf=         0 NMat=       1 IRICut=       1 DoRegI=T DoRafI=F ISym2E= 0 IDoP0=0 IntGTp=1.
 FoFCou: FMM=F IPFlag=           0 FMFlag=      100000 FMFlg1=           0
         NFxFlg=           0 DoJE=F BraDBF=F KetDBF=F FulRan=T
         wScrn=  0.000000 ICntrl=      3107 IOpCl=  0 I1Cent=           0 NGrid=           0
         NMat0=    1 NMatS0=      1 NMatT0=    0 NMatD0=    1 NMtDS0=    0 NMtDT0=    0
 Symmetry not used in FoFCou.
 End of G2Drv F.D. properties file   721 does not exist.
 End of G2Drv F.D. properties file   722 does not exist.
 End of G2Drv F.D. properties file   788 does not exist.
 Leave Link 1110 at Sun Oct 13 09:51:33 2024, MaxMem=  2684354560 cpu:              62.3 elap:               2.4
 (Enter /usr/local/g16_AVX//g16/l1002.exe)
 Minotr:  Closed shell wavefunction.
          IDoAtm=1111111
          Direct CPHF calculation.
          Differentiating once with respect to electric field.
                with respect to dipole field.
          Differentiating once with respect to nuclear coordinates.
          Requested convergence is 1.0D-08 RMS, and 1.0D-07 maximum.
          Secondary convergence is 1.0D-12 RMS, and 1.0D-12 maximum.
          NewPWx=T KeepS1=F KeepF1=F KeepIn=T MapXYZ=F SortEE=F KeepMc=T.
         2136 words used for storage of precomputed grid.
 Keep R1 ints in memory in canonical form, NReq=35668397.
 FoFCou: FMM=F IPFlag=           0 FMFlag=           0 FMFlg1=           0
         NFxFlg=           0 DoJE=F BraDBF=F KetDBF=F FulRan=T
         wScrn=  0.000000 ICntrl=       600 IOpCl=  0 I1Cent=           0 NGrid=           0
         NMat0=    1 NMatS0=   4851 NMatT0=    0 NMatD0=    1 NMtDS0=    0 NMtDT0=    0
 Symmetry not used in FoFCou.
 Two-electron integral symmetry not used.
          MDV=    2684354560 using IRadAn=       1.
          Solving linear equations simultaneously, MaxMat=       0.
          There are    24 degrees of freedom in the 1st order CPHF.  IDoFFX=6 NUNeed=     3.
     21 vectors produced by pass  0 Test12= 6.50D-15 4.17D-09 XBig12= 9.71D+01 5.32D+00.
 AX will form    21 AO Fock derivatives at one time.
     21 vectors produced by pass  1 Test12= 6.50D-15 4.17D-09 XBig12= 4.33D+01 1.87D+00.
     21 vectors produced by pass  2 Test12= 6.50D-15 4.17D-09 XBig12= 9.59D-01 2.52D-01.
     21 vectors produced by pass  3 Test12= 6.50D-15 4.17D-09 XBig12= 1.65D-02 3.01D-02.
     21 vectors produced by pass  4 Test12= 6.50D-15 4.17D-09 XBig12= 5.93D-05 1.77D-03.
     16 vectors produced by pass  5 Test12= 6.50D-15 4.17D-09 XBig12= 1.55D-07 8.18D-05.
      7 vectors produced by pass  6 Test12= 6.50D-15 4.17D-09 XBig12= 1.63D-10 2.75D-06.
      1 vectors produced by pass  7 Test12= 6.50D-15 4.17D-09 XBig12= 1.17D-13 6.97D-08.
 InvSVY:  IOpt=1 It=  1 EMax= 5.33D-15
 Solved reduced A of dimension   129 with    24 vectors.
 FullF1:  Do perturbations      1 to       3.
 Isotropic polarizability for W=    0.000000       59.01 Bohr**3.
 End of Minotr F.D. properties file   721 does not exist.
 End of Minotr F.D. properties file   722 does not exist.
 End of Minotr F.D. properties file   788 does not exist.
 Leave Link 1002 at Sun Oct 13 09:51:36 2024, MaxMem=  2684354560 cpu:              77.8 elap:               3.1
 (Enter /usr/local/g16_AVX//g16/l601.exe)
 Copying SCF densities to generalized density rwf, IOpCl= 0 IROHF=0.

 **********************************************************************

            Population analysis using the SCF Density.

 **********************************************************************

 Alpha  occ. eigenvalues -- -101.39530 -14.10074 -10.09856  -9.96536  -9.31117
 Alpha  occ. eigenvalues --   -7.07380  -7.06606  -7.06606  -0.69277  -0.65477
 Alpha  occ. eigenvalues --   -0.53645  -0.30115  -0.30114  -0.25957  -0.18664
 Alpha  occ. eigenvalues --   -0.16607  -0.16606  -0.10345  -0.10345  -0.07425
 Alpha virt. eigenvalues --    0.11195   0.13021   0.14747   0.14748   0.16931
 Alpha virt. eigenvalues --    0.20032   0.20595   0.20595   0.22180   0.22181
 Alpha virt. eigenvalues --    0.24572   0.25086   0.25086   0.27010   0.27142
 Alpha virt. eigenvalues --    0.27142   0.31456   0.34113   0.34114   0.36702
 Alpha virt. eigenvalues --    0.38414   0.38496   0.38496   0.46697   0.48058
 Alpha virt. eigenvalues --    0.68326   0.74615   0.75216   0.75216   0.78215
 Alpha virt. eigenvalues --    0.78216   0.88583   0.89322   0.89323   0.98863
 Alpha virt. eigenvalues --    1.00906   1.00907   1.05866   1.05867   1.06935
 Alpha virt. eigenvalues --    1.09787   1.09789   1.12185   1.18828   1.18828
 Alpha virt. eigenvalues --    1.26226   1.30027   1.36048   1.49206   1.60344
 Alpha virt. eigenvalues --    1.60347   1.77520   1.77520   1.79872   1.79873
 Alpha virt. eigenvalues --    1.80710   2.15444   2.19630   2.19630   2.21079
 Alpha virt. eigenvalues --    2.21084   2.25054   2.51782   2.51787   2.64783
 Alpha virt. eigenvalues --    2.82955   2.82956   2.84630   2.96322   2.96329
 Alpha virt. eigenvalues --    3.26389   3.40433   3.56292   3.56297   4.21486
 Alpha virt. eigenvalues --    4.44042   4.46466   4.56429
          Condensed to atoms (all electrons):
               1          2          3          4          5          6
     1  C    5.495913  -0.147234   0.425066   0.425065   0.425066  -0.221488
     2  Cl  -0.147234  17.461503  -0.051283  -0.051224  -0.051221   0.097931
     3  H    0.425066  -0.051283   0.505276  -0.022958  -0.022958  -0.044063
     4  H    0.425065  -0.051224  -0.022958   0.505232  -0.022936  -0.044127
     5  H    0.425066  -0.051221  -0.022958  -0.022936   0.505230  -0.044131
     6  C   -0.221488   0.097931  -0.044063  -0.044127  -0.044131   6.033327
     7  N   -0.005759  -0.003716  -0.000434  -0.000432  -0.000432   0.678833
               7
     1  C   -0.005759
     2  Cl  -0.003716
     3  H   -0.000434
     4  H   -0.000432
     5  H   -0.000432
     6  C    0.678833
     7  N    6.858386
 Mulliken charges:
               1
     1  C   -0.396629
     2  Cl  -0.254756
     3  H    0.211354
     4  H    0.211379
     5  H    0.211382
     6  C   -0.456283
     7  N   -0.526447
 Sum of Mulliken charges =  -1.00000
 Mulliken charges with hydrogens summed into heavy atoms:
               1
     1  C    0.237486
     2  Cl  -0.254756
     6  C   -0.456283
     7  N   -0.526447
 APT charges:
               1
     1  C    0.789068
     2  Cl  -0.775545
     3  H    0.008911
     4  H    0.008954
     5  H    0.008958
     6  C   -0.406172
     7  N   -0.634174
 Sum of APT charges =  -1.00000
 APT charges with hydrogens summed into heavy atoms:
               1
     1  C    0.815891
     2  Cl  -0.775545
     6  C   -0.406172
     7  N   -0.634174
 Electronic spatial extent (au):  <R**2>=            853.4535
 Charge=             -1.0000 electrons
 Dipole moment (field-independent basis, Debye):
    X=             -8.7889    Y=              0.0000    Z=             -0.0005  Tot=              8.7889
 Quadrupole moment (field-independent basis, Debye-Ang):
   XX=            -88.2914   YY=            -35.3985   ZZ=            -35.3989
   XY=              0.0000   XZ=             -0.0013   YZ=              0.0000
 Traceless Quadrupole moment (field-independent basis, Debye-Ang):
   XX=            -35.2618   YY=             17.6311   ZZ=             17.6307
   XY=              0.0000   XZ=             -0.0013   YZ=              0.0000
 Octapole moment (field-independent basis, Debye-Ang**2):
  XXX=           -168.8892  YYY=             -0.0063  ZZZ=             -0.9114  XYY=            -10.7171
  XXY=              0.0003  XXZ=             -0.0087  XZZ=            -10.7176  YZZ=              0.0063
  YYZ=              0.9131  XYZ=             -0.0000
 Hexadecapole moment (field-independent basis, Debye-Ang**3):
 XXXX=          -1817.0538 YYYY=            -55.8805 ZZZZ=            -55.8797 XXXY=              0.0015
 XXXZ=             -0.0493 YYYX=             -0.0007 YYYZ=              0.0000 ZZZX=             -0.1198
 ZZZY=             -0.0000 XXYY=           -219.7609 XXZZ=           -219.7610 YYZZ=            -18.6274
 XXYZ=             -0.0000 YYXZ=              0.1128 ZZXY=              0.0008
 N-N= 1.107074195802D+02 E-N=-1.631281587655D+03  KE= 5.903141271531D+02
  Exact polarizability:  98.244  -0.000  39.392   0.004   0.000  39.392
 Approx polarizability: 121.628  -0.000  49.396   0.007   0.000  49.396
 No NMR shielding tensors so no spin-rotation constants.
 Leave Link  601 at Sun Oct 13 09:51:36 2024, MaxMem=  2684354560 cpu:               2.9 elap:               0.2
 (Enter /usr/local/g16_AVX//g16/l701.exe)
 ... and contract with generalized density number  0.
 Compute integral second derivatives.
 Leave Link  701 at Sun Oct 13 09:51:36 2024, MaxMem=  2684354560 cpu:               4.8 elap:               0.2
 (Enter /usr/local/g16_AVX//g16/l702.exe)
 L702 exits ... SP integral derivatives will be done elsewhere.
 Leave Link  702 at Sun Oct 13 09:51:36 2024, MaxMem=  2684354560 cpu:               0.4 elap:               0.0
 (Enter /usr/local/g16_AVX//g16/l703.exe)
 Integral derivatives from FoFJK, PRISM(SPDF).
 Compute integral second derivatives, UseDBF=F ICtDFT=           0.
 Calling FoFJK, ICntrl=    100127 FMM=F ISym2X=0 I1Cent= 0 IOpClX= 0 NMat=1 NMatS=1 NMatT=0.
 FoFJK:  IHMeth= 1 ICntrl=  100127 DoSepK=F KAlg= 0 I1Cent=           0 FoldK=F
 IRaf=         0 NMat=       1 IRICut=       1 DoRegI=T DoRafI=F ISym2E= 0 IDoP0=0 IntGTp=1.
 FoFCou: FMM=F IPFlag=           0 FMFlag=      100000 FMFlg1=         800
         NFxFlg=           0 DoJE=F BraDBF=F KetDBF=F FulRan=T
         wScrn=  0.000000 ICntrl=    100127 IOpCl=  0 I1Cent=           0 NGrid=           0
         NMat0=    1 NMatS0=      1 NMatT0=    0 NMatD0=    1 NMtDS0=    0 NMtDT0=    0
 Symmetry not used in FoFCou.
 Leave Link  703 at Sun Oct 13 09:51:40 2024, MaxMem=  2684354560 cpu:             100.8 elap:               3.9
 (Enter /usr/local/g16_AVX//g16/l716.exe)
 Dipole        =-3.45781408D+00 4.67657494D-06-1.81691164D-04
 Polarizability= 9.82439262D+01-1.32933354D-04 3.93917013D+01
                 3.58911168D-03 7.14753911D-06 3.93921290D+01
 Full mass-weighted force constant matrix:
 Low frequencies ---  -95.5467  -95.5456  -37.2145  -37.2103    0.0027    0.0040
 Low frequencies ---    0.0051  110.3591  168.7469
 ******    2 imaginary frequencies (negative Signs) ****** 
 Diagonal vibrational polarizability:
      145.4588883      11.7949132      11.7991019
 Harmonic frequencies (cm**-1), IR intensities (KM/Mole), Raman scattering
 activities (A**4/AMU), depolarization ratios for plane and unpolarized
 incident light, reduced masses (AMU), force constants (mDyne/A),
 and normal coordinates:
                      1                      2                      3
                      A                      A                      A
 Frequencies --    -95.4786               -95.4777               168.6607
 Red. masses --     10.1326                10.1309                 3.8231
 Frc consts  --      0.0544                 0.0544                 0.0641
 IR Inten    --      0.0400                 0.0401                12.2582
  Atom  AN      X      Y      Z        X      Y      Z        X      Y      Z
     1   6     0.00   0.20  -0.05    -0.00   0.05   0.20     0.00  -0.01   0.41
     2  17     0.00  -0.10   0.03    -0.00  -0.03  -0.10     0.00   0.00  -0.10
     3   1    -0.04   0.25  -0.06     0.17   0.06   0.25     0.23  -0.01   0.49
     4   1    -0.12   0.25  -0.07    -0.12   0.06   0.25    -0.11  -0.00   0.47
     5   1     0.16   0.25  -0.06    -0.05   0.06   0.25    -0.12  -0.02   0.47
     6   6     0.00   0.63  -0.15    -0.00   0.15   0.63    -0.00   0.01  -0.24
     7   7    -0.00  -0.51   0.12     0.00  -0.12  -0.51    -0.00   0.00  -0.00
                      4                      5                      6
                      A                      A                      A
 Frequencies --    168.6887               179.3182               455.9256
 Red. masses --      3.8230                11.9388                11.5384
 Frc consts  --      0.0641                 0.2262                 1.4131
 IR Inten    --     12.2553               111.4242               397.4729
  Atom  AN      X      Y      Z        X      Y      Z        X      Y      Z
     1   6    -0.00   0.41   0.01    -0.38  -0.00   0.00     0.78   0.00  -0.00
     2  17    -0.00  -0.10  -0.00    -0.25   0.00  -0.00    -0.33  -0.00   0.00
     3   1     0.01   0.47   0.01    -0.25  -0.00   0.03     0.28   0.00  -0.12
     4   1    -0.21   0.48   0.02    -0.25  -0.02  -0.01     0.28   0.11   0.06
     5   1     0.20   0.48   0.00    -0.25   0.02  -0.01     0.28  -0.11   0.06
     6   6     0.00  -0.24  -0.01     0.54   0.00  -0.00     0.06  -0.00   0.00
     7   7     0.00  -0.00  -0.00     0.55  -0.00   0.00     0.06  -0.00   0.00
                      7                      8                      9
                      A                      A                      A
 Frequencies --   1005.2308              1005.2532              1255.7815
 Red. masses --      1.1127                 1.1127                 1.0741
 Frc consts  --      0.6625                 0.6625                 0.9980
 IR Inten    --      0.0816                 0.0814                37.9238
  Atom  AN      X      Y      Z        X      Y      Z        X      Y      Z
     1   6    -0.00   0.02  -0.09     0.00   0.09   0.02    -0.07  -0.00   0.00
     2  17     0.00  -0.00   0.02    -0.00  -0.02  -0.00    -0.02  -0.00   0.00
     3   1     0.76  -0.04   0.12    -0.15  -0.20  -0.03     0.55  -0.00   0.15
     4   1    -0.25  -0.06   0.19     0.74  -0.13  -0.00     0.55  -0.13  -0.08
     5   1    -0.52   0.00   0.17    -0.58  -0.15  -0.07     0.55   0.13  -0.08
     6   6     0.00   0.00  -0.00    -0.00   0.00   0.00    -0.00  -0.00   0.00
     7   7     0.00  -0.00   0.00    -0.00  -0.00  -0.00    -0.01   0.00  -0.00
                     10                     11                     12
                      A                      A                      A
 Frequencies --   1446.0494              1446.1012              2166.0962
 Red. masses --      1.0696                 1.0696                12.8063
 Frc consts  --      1.3178                 1.3179                35.4021
 IR Inten    --      6.5861                 6.5845                13.1074
  Atom  AN      X      Y      Z        X      Y      Z        X      Y      Z
     1   6    -0.00   0.00  -0.07     0.00  -0.07  -0.00    -0.00  -0.00  -0.00
     2  17    -0.00   0.00  -0.00    -0.00  -0.00  -0.00     0.00  -0.00   0.00
     3   1    -0.25  -0.02  -0.12    -0.01   0.77  -0.00    -0.03   0.00  -0.01
     4   1     0.12  -0.39   0.55     0.22   0.09  -0.37    -0.03   0.01   0.00
     5   1     0.13   0.38   0.53    -0.21   0.11   0.40    -0.03  -0.01   0.00
     6   6     0.00   0.00  -0.00    -0.00  -0.00  -0.00     0.76  -0.00   0.00
     7   7    -0.00  -0.00   0.00     0.00   0.00   0.00    -0.65   0.00  -0.00
                     13                     14                     15
                      A                      A                      A
 Frequencies --   3147.3754              3291.4605              3291.5802
 Red. masses --      1.0209                 1.1145                 1.1145
 Frc consts  --      5.9585                 7.1139                 7.1143
 IR Inten    --      8.2768                 0.0018                 0.0019
  Atom  AN      X      Y      Z        X      Y      Z        X      Y      Z
     1   6     0.03  -0.00   0.00    -0.00  -0.10   0.00     0.00  -0.00  -0.10
     2  17    -0.00   0.00  -0.00    -0.00   0.00  -0.00     0.00   0.00   0.00
     3   1    -0.14  -0.00   0.56     0.01  -0.02  -0.04    -0.21  -0.00   0.78
     4   1    -0.14  -0.48  -0.28     0.18   0.56   0.34     0.12   0.38   0.20
     5   1    -0.14   0.49  -0.28    -0.19   0.60  -0.36     0.10  -0.32   0.16
     6   6     0.00   0.00  -0.00    -0.00   0.00  -0.00    -0.00   0.00   0.00
     7   7     0.00  -0.00   0.00    -0.00  -0.00   0.00     0.00  -0.00  -0.00

 -------------------
 - Thermochemistry -
 -------------------
 Temperature   298.150 Kelvin.  Pressure   1.00000 Atm.
 Atom     1 has atomic number  6 and mass  12.00000
 Atom     2 has atomic number 17 and mass  34.96885
 Atom     3 has atomic number  1 and mass   1.00783
 Atom     4 has atomic number  1 and mass   1.00783
 Atom     5 has atomic number  1 and mass   1.00783
 Atom     6 has atomic number  6 and mass  12.00000
 Atom     7 has atomic number  7 and mass  14.00307
 Molecular mass:    75.99540 amu.
 Principal axes and moments of inertia in atomic units:
                           1         2         3
     Eigenvalues --    11.696771469.237331469.23806
           X            1.00000  -0.00000  -0.00001
           Y           -0.00000   0.99957  -0.02926
           Z            0.00001   0.02926   0.99957
 This molecule is an asymmetric top.
 Rotational symmetry number  1.
 Rotational temperatures (Kelvin)      7.40494     0.05895     0.05895
 Rotational constants (GHZ):         154.29396     1.22835     1.22835
    2 imaginary frequencies ignored.
 Zero-point vibrational energy     113809.9 (Joules/Mol)
                                   27.20121 (Kcal/Mol)
 Warning -- explicit consideration of   4 degrees of freedom as
           vibrations may cause significant error
 Vibrational temperatures:    242.67   242.71   258.00   655.98  1446.30
          (Kelvin)           1446.34  1806.79  2080.54  2080.62  3116.53
                             4528.37  4735.68  4735.85
 
 Zero-point correction=                           0.043348 (Hartree/Particle)
 Thermal correction to Energy=                    0.048354
 Thermal correction to Enthalpy=                  0.049298
 Thermal correction to Gibbs Free Energy=         0.015137
 Sum of electronic and zero-point Energies=           -592.948992
 Sum of electronic and thermal Energies=              -592.943986
 Sum of electronic and thermal Enthalpies=            -592.943042
 Sum of electronic and thermal Free Energies=         -592.977203
 
                     E (Thermal)             CV                S
                      KCal/Mol        Cal/Mol-Kelvin    Cal/Mol-Kelvin
 Total                   30.343             14.041             71.898
 Electronic               0.000              0.000              0.000
 Translational            0.889              2.981             38.900
 Rotational               0.889              2.981             24.738
 Vibrational             28.565              8.079              8.260
 Vibration     1          0.625              1.881              2.450
 Vibration     2          0.625              1.881              2.450
 Vibration     3          0.629              1.868              2.335
 Vibration     4          0.814              1.348              0.778
                       Q            Log10(Q)             Ln(Q)
 Total Bot       0.108975D-06         -6.962675        -16.032152
 Total V=0       0.946128D+13         12.975950         29.878229
 Vib (Bot)       0.735732D-19        -19.133280        -44.056006
 Vib (Bot)    1  0.119538D+01          0.077506          0.178463
 Vib (Bot)    2  0.119517D+01          0.077430          0.178288
 Vib (Bot)    3  0.112034D+01          0.049350          0.113634
 Vib (Bot)    4  0.374315D+00         -0.426763         -0.982658
 Vib (V=0)       0.638770D+01          0.805344          1.854374
 Vib (V=0)    1  0.179574D+01          0.254242          0.585415
 Vib (V=0)    2  0.179554D+01          0.254196          0.585307
 Vib (V=0)    3  0.172685D+01          0.237255          0.546300
 Vib (V=0)    4  0.112459D+01          0.050994          0.117418
 Electronic      0.100000D+01          0.000000          0.000000
 Translational   0.260396D+08          7.415635         17.075130
 Rotational      0.568815D+05          4.754971         10.948725
 
                                                       RxCoord=1.99953 DE=48.80
                                                             IR Spectrum
 
      3    3                                     2                           1      1         1                                      
      2    1                                     1                           4      2         0                    4         11      
      9    4                                     6                           4      5         0                    5         76      
      1    7                                     6                           6      6         5                    6         99      
 
           X                                     X                           X      X         X                    X         XX      
                                                                                    X                              X         X       
                                                                                                                   X         X       
                                                                                                                   X         X       
                                                                                                                   X         X       
                                                                                                                   X         X       
                                                                                                                   X                 
                                                                                                                   X                 
                                                                                                                   X                 
                                                                                                                   X                 
                                                                                                                   X                 
                                                                                                                   X                 
                                                                                                                   X                 
                                                                                                                   X                 
                                                                                                                   X                 
                                                                                                                   X                 
                                                                                                                   X                 
                                                                                                                   X                 
                                                                                                                   X                 
                                                                                                                   X                 
 
 -------------------------------------------------------------------
 Center     Atomic                   Forces (Hartrees/Bohr)
 Number     Number              X              Y              Z
 -------------------------------------------------------------------
      1        6          -0.006068643   -0.000000857   -0.000003665
      2       17          -0.004728996   -0.000000505    0.000005343
      3        1           0.000408061   -0.000001622    0.000907735
      4        1           0.000395177   -0.000799974   -0.000455294
      5        1           0.000393504    0.000802875   -0.000451575
      6        6           0.003643567    0.000000154   -0.000004793
      7        7           0.005957331   -0.000000070    0.000002249
 -------------------------------------------------------------------
 Cartesian Forces:  Max     0.006068643 RMS     0.002298598
 Z-matrix is all fixed cartesians, so copy forces.
 Force constants in Cartesian coordinates: 
                1             2             3             4             5 
      1  0.161802D+00
      2 -0.417467D-05  0.622141D+00
      3  0.752800D-04  0.294274D-05  0.622128D+00
      4 -0.387119D-01  0.000000D+00  0.370825D-05  0.129305D+00
      5  0.000000D+00 -0.329297D-01  0.000000D+00  0.102899D-05  0.180484D-01
      6  0.387069D-05  0.000000D+00 -0.329267D-01 -0.200346D-04  0.000000D+00
      7 -0.447823D-01 -0.184968D-03  0.804970D-01 -0.238169D-01 -0.397140D-04
      8 -0.178713D-03 -0.499976D-01  0.664680D-03  0.141816D-04  0.498049D-03
      9  0.778734D-01  0.664634D-03 -0.339414D+00 -0.626086D-02 -0.165153D-04
     10 -0.448247D-01 -0.696917D-01 -0.404468D-01 -0.238119D-01 -0.149121D-01
     11 -0.674210D-01 -0.266441D+00 -0.125600D+00  0.542166D-02  0.588764D-02
     12 -0.391315D-01 -0.125598D+00 -0.122877D+00  0.315092D-02  0.313051D-02
     13 -0.448281D-01  0.698812D-01 -0.401292D-01 -0.238110D-01  0.149510D-01
     14  0.676044D-01 -0.267585D+00  0.124933D+00 -0.543662D-02  0.591658D-02
     15 -0.388240D-01  0.124930D+00 -0.121725D+00  0.312612D-02 -0.311401D-02
     16  0.981605D-03  0.000000D+00  0.145227D-05 -0.103651D-01  0.000000D+00
     17  0.000000D+00 -0.678745D-02  0.000000D+00  0.000000D+00  0.311811D-02
     18 -0.165776D-05  0.000000D+00 -0.678551D-02  0.480983D-05  0.000000D+00
     19  0.103638D-01  0.000000D+00 -0.147073D-05 -0.878781D-02  0.000000D+00
     20  0.000000D+00  0.159973D-02  0.000000D+00  0.000000D+00 -0.539037D-03
     21  0.451953D-05  0.000000D+00  0.159941D-02 -0.466661D-05  0.000000D+00
                6             7             8             9            10 
      6  0.180480D-01
      7  0.172510D-01  0.672761D-01
      8 -0.162962D-04  0.185433D-03  0.458071D-01
      9  0.770043D-02 -0.807423D-01 -0.698404D-03  0.349797D+00
     10 -0.865235D-02  0.328018D-02  0.627518D-02  0.414896D-02  0.673209D-01
     11  0.312725D-02 -0.420329D-03  0.255059D-02  0.282731D-02  0.699009D-01
     12  0.231421D-02 -0.751848D-02 -0.247047D-01 -0.102112D-01  0.405664D-01
     13 -0.858359D-02  0.328048D-02 -0.629405D-02  0.412035D-02  0.328095D-02
     14 -0.311099D-02  0.455045D-03  0.244955D-02 -0.276886D-02  0.672219D-02
     15  0.228551D-02 -0.751685D-02  0.247629D-01 -0.101109D-01  0.339425D-02
     16  0.000000D+00 -0.499044D-02  0.000000D+00  0.180244D-03 -0.499762D-02
     17  0.000000D+00  0.497176D-05 -0.169929D-02 -0.106292D-04  0.186953D-02
     18  0.311745D-02 -0.215976D-02 -0.106609D-04  0.292518D-02  0.108506D-02
     19  0.102729D-05 -0.247102D-03 -0.157034D-05  0.680200D-03 -0.247799D-03
     20  0.000000D+00  0.000000D+00  0.391555D-03  0.246067D-05 -0.163916D-03
     21 -0.538932D-03  0.189347D-03  0.247980D-05 -0.687118D-03 -0.954609D-04
               11            12            13            14            15 
     11  0.273146D+00
     12  0.131928D+00  0.122357D+00
     13 -0.673735D-02  0.336312D-02  0.673234D-01
     14 -0.164890D-01  0.137053D-01 -0.700907D-01  0.274349D+00
     15 -0.138214D-01  0.883150D-02  0.402475D-01 -0.131227D+00  0.121147D+00
     16 -0.155712D-03 -0.892372D-04 -0.499794D-02  0.155998D-03 -0.884868D-04
     17  0.176072D-02  0.200744D-02 -0.187448D-02  0.177911D-02 -0.199687D-02
     18  0.200816D-02 -0.534159D-03  0.107650D-02 -0.199755D-02 -0.552466D-03
     19 -0.588077D-03 -0.341236D-03 -0.247787D-03  0.589635D-03 -0.338537D-03
     20 -0.415719D-03 -0.468455D-03  0.164364D-03 -0.420037D-03  0.465998D-03
     21 -0.468818D-03  0.119490D-03 -0.947133D-04  0.466339D-03  0.123789D-03
               16            17            18            19            20 
     16  0.116471D+01
     17 -0.132948D-04  0.144564D-03
     18  0.398710D-03  0.000000D+00  0.145768D-03
     19 -0.114034D+01  0.135349D-04 -0.403663D-03  0.113951D+01
     20  0.135072D-04  0.168423D-02  0.000000D+00 -0.135436D-04 -0.230072D-02
     21 -0.402706D-03  0.000000D+00  0.168374D-02  0.403680D-03  0.000000D+00
               21 
     21 -0.230038D-02
 Leave Link  716 at Sun Oct 13 09:51:40 2024, MaxMem=  2684354560 cpu:               0.6 elap:               0.0
 (Enter /usr/local/g16_AVX//g16/l103.exe)

 GradGradGradGradGradGradGradGradGradGradGradGradGradGradGradGradGradGrad
 Berny optimization.
 Search for a local minimum.
 Step number   1 out of a maximum of    2
 All quantities printed in internal units (Hartrees-Bohrs-Radians)
 Second derivative matrix not updated -- analytic derivatives used.
 ITU=  0
     Eigenvalues ---   -0.00405  -0.00405   0.00551   0.00551   0.01375
     Eigenvalues ---    0.05693   0.05693   0.10220   0.10856   0.10856
     Eigenvalues ---    0.13670   0.44894   0.91745   0.91746   2.29153
 Eigenvalue     1 is  -4.05D-03 should be greater than     0.000000 Eigenvector:
                          Y6        Y7        Y2        Y3        Y4
   1                    0.68628  -0.61793  -0.18390   0.15379   0.14762
                          Y5        X5        X4        Y1        Z6
   1                    0.14728   0.13166  -0.12542   0.10753  -0.02720
 Eigenvalue     2 is  -4.05D-03 should be greater than     0.000000 Eigenvector:
                          Z6        Z7        Z2        Z5        Z4
   1                    0.68621  -0.61793  -0.18393   0.15210   0.15172
                          X3        Z3        Z1        X4        X5
   1                    0.14841   0.14506   0.10757  -0.07970  -0.06892
 Quadratic step=5.902D-01 exceeds max=3.000D-01 adjusted using Lamda=-1.352D-02.
 Angle between NR and scaled steps=   4.40 degrees.
 Angle between quadratic step and forces=  30.36 degrees.
 Linear search not attempted -- first point.
 B after Tr=     0.010094   -0.000002    0.000004
         Rot=    1.000000   -0.000000   -0.000001   -0.000000 Ang=  -0.00 deg.
 Variable       Old X    -DE/DX   Delta X   Delta X   Delta X     New X
                                 (Linear)    (Quad)   (Total)
    X1       -0.49133  -0.00607   0.00000  -0.13375  -0.12366  -0.61499
    Y1        0.00001  -0.00000   0.00000   0.00000  -0.00000   0.00001
    Z1       -0.00036  -0.00000   0.00000  -0.00005  -0.00004  -0.00041
    X2       -4.07980  -0.00473   0.00000  -0.07824  -0.06815  -4.14795
    Y2       -0.00000  -0.00000   0.00000  -0.00000  -0.00001  -0.00001
    Z2        0.00010   0.00001   0.00000   0.00003   0.00005   0.00014
    X3        0.06873   0.00041   0.00000  -0.06231  -0.05222   0.01652
    Y3        0.00453  -0.00000   0.00000  -0.00003  -0.00003   0.00449
    Z3       -1.96735   0.00091   0.00000   0.01671   0.01672  -1.95064
    X4        0.06939   0.00040   0.00000  -0.06246  -0.05236   0.01703
    Y4        1.70118  -0.00080   0.00000  -0.01456  -0.01456   1.68662
    Z4        0.98679  -0.00046   0.00000  -0.00838  -0.00837   0.97842
    X5        0.06944   0.00039   0.00000  -0.06248  -0.05238   0.01705
    Y5       -1.70567   0.00080   0.00000   0.01460   0.01460  -1.69107
    Z5        0.97896  -0.00045   0.00000  -0.00831  -0.00830   0.97066
    X6        4.50590   0.00364   0.00000   0.16241   0.17250   4.67840
    Y6        0.00001   0.00000   0.00000   0.00000   0.00000   0.00001
    Z6       -0.00032  -0.00000   0.00000  -0.00012  -0.00013  -0.00045
    X7        6.73294   0.00596   0.00000   0.16618   0.17627   6.90921
    Y7       -0.00002  -0.00000   0.00000  -0.00000  -0.00000  -0.00002
    Z7        0.00046   0.00000   0.00000   0.00010   0.00009   0.00055
         Item               Value     Threshold  Converged?
 Maximum Force            0.006069     0.000450     NO 
 RMS     Force            0.002299     0.000300     NO 
 Maximum Displacement     0.176271     0.001800     NO 
 RMS     Displacement     0.065401     0.001200     NO 
 Predicted change in Energy=-1.979574D-03
 GradGradGradGradGradGradGradGradGradGradGradGradGradGradGradGradGradGrad

 Leave Link  103 at Sun Oct 13 09:51:40 2024, MaxMem=  2684354560 cpu:               0.6 elap:               0.1
 (Enter /usr/local/g16_AVX//g16/l9999.exe)

 ----------------------------------------------------------------------

 Electric dipole moment (input orientation):
 (Debye = 10**-18 statcoulomb cm , SI units = C m)
                  (au)            (Debye)         (10**-30 SI)
   Tot        0.345781D+01      0.878889D+01      0.293166D+02
   x         -0.345781D+01     -0.878889D+01     -0.293166D+02
   y          0.000000D+00      0.000000D+00      0.000000D+00
   z         -0.181691D-03     -0.461813D-03     -0.154044D-02

 Dipole polarizability, Alpha (input orientation).
 (esu units = cm**3 , SI units = C**2 m**2 J**-1)
 Alpha(0;0):
               (au)            (10**-24 esu)      (10**-40 SI)
   iso        0.590093D+02      0.874427D+01      0.972931D+01
   aniso      0.588520D+02      0.872097D+01      0.970339D+01
   xx         0.982439D+02      0.145582D+02      0.161982D+02
   yx        -0.132933D-03     -0.196987D-04     -0.219177D-04
   yy         0.393917D+02      0.583725D+01      0.649481D+01
   zx         0.358911D-02      0.531851D-03      0.591765D-03
   zy         0.000000D+00      0.000000D+00      0.000000D+00
   zz         0.393921D+02      0.583731D+01      0.649488D+01

 ----------------------------------------------------------------------

 Dipole orientation:
     6         -0.00033701          0.00001067          0.49132881
    17          0.00031075         -0.00000930          4.07979586
     1         -1.96735779          0.00452865         -0.06862974
     1          0.98678907          1.70118124         -0.06944029
     1          0.97895721         -1.70566803         -0.06948984
     6         -0.00055991          0.00001743         -4.50589885
     7          0.00011109         -0.00000601         -6.73293546

 Electric dipole moment (dipole orientation):
 (Debye = 10**-18 statcoulomb cm , SI units = C m)
                  (au)            (Debye)         (10**-30 SI)
   Tot        0.345781D+01      0.878889D+01      0.293166D+02
   x          0.000000D+00      0.000000D+00      0.000000D+00
   y          0.000000D+00      0.000000D+00      0.000000D+00
   z          0.345781D+01      0.878889D+01      0.293166D+02

 Dipole polarizability, Alpha (dipole orientation).
 (esu units = cm**3 , SI units = C**2 m**2 J**-1)
 Alpha(0;0):
               (au)            (10**-24 esu)      (10**-40 SI)
   iso        0.590093D+02      0.874427D+01      0.972931D+01
   aniso      0.588520D+02      0.872097D+01      0.970339D+01
   xx         0.393921D+02      0.583731D+01      0.649488D+01
   yx         0.000000D+00      0.000000D+00      0.000000D+00
   yy         0.393917D+02      0.583725D+01      0.649481D+01
   zx        -0.496738D-03     -0.736090D-04     -0.819011D-04
   zy         0.533380D-04      0.790388D-05      0.879425D-05
   zz         0.982439D+02      0.145582D+02      0.161982D+02

 ----------------------------------------------------------------------
 1\1\GINC-NODO11\Freq\RB3LYP\6-31++G(d,p)\C2H3Cl1N1(1-)\ALANQF\13-Oct-2
 024\0\\#p b3lyp 6-31++g(d,p) scf=verytight NoSymm freq=noraman int=ult
 rafine\\RxCoord=1.99953 DE=48.80\\-1,1\C,-0.26,0.000006,-0.000192\Cl,-
 2.158935,-0.000002,0.000051\H,0.036372,0.002395,-1.041079\H,0.03672,0.
 900227,0.522187\H,0.036744,-0.9026,0.518045\C,2.384419,0.000006,-0.000
 171\N,3.562916,-0.000008,0.000246\\Version=ES64L-G16RevB.01\HF=-592.99
 23404\RMSD=4.533e-09\RMSF=2.299e-03\ZeroPoint=0.0433479\Thermal=0.0483
 543\Dipole=-3.4047628,0.0000049,-0.0002028\DipoleDeriv=2.2382249,0.000
 0046,-0.0001392,0.0000123,0.0644648,-0.0000001,-0.0002797,-0.0000001,0
 .0645138,-1.6582266,-0.0000029,0.0000815,-0.0000028,-0.3342052,0.,0.00
 01185,0.,-0.3342047,-0.0558405,0.0000077,-0.0036635,0.0000076,0.077114
 8,0.0001644,-0.00418,0.0001649,0.0054586,-0.0557735,0.0031772,0.001859
 4,0.0036747,0.0235592,-0.0310864,0.0021742,-0.0310802,0.0590777,-0.055
 7641,-0.0031856,0.0018438,-0.0036904,0.0232749,0.0309223,0.0021584,0.0
 309157,0.0593628,-0.3528046,-0.0000049,0.000125,-0.0000109,-0.4328528,
 -0.0000002,0.0002867,-0.0000002,-0.4328572,-1.0598157,0.000004,-0.0001
 07,0.0000096,-0.4213558,0.,-0.0002781,0.,-0.4213508\Polar=98.2439262,-
 0.0001329,39.3917013,0.0035891,0.0000071,39.392129\Quadrupole=-26.2163
 151,13.1083117,13.1080035,0.0000165,-0.0009328,0.0000076\PG=C01 [X(C2H
 3Cl1N1)]\NImag=2\\0.16180168,-0.00000417,0.62214082,0.00007528,0.00000
 294,0.62212793,-0.03871193,-0.00000026,0.00000371,0.12930478,-0.000000
 26,-0.03292971,0.,0.00000103,0.01804837,0.00000387,0.00000002,-0.03292
 671,-0.00002003,0.00000003,0.01804804,-0.04478229,-0.00018497,0.080497
 03,-0.02381695,-0.00003971,0.01725105,0.06727613,-0.00017871,-0.049997
 59,0.00066468,0.00001418,0.00049805,-0.00001630,0.00018543,0.04580713,
 0.07787344,0.00066463,-0.33941376,-0.00626086,-0.00001652,0.00770043,-
 0.08074233,-0.00069840,0.34979737,-0.04482471,-0.06969175,-0.04044684,
 -0.02381192,-0.01491209,-0.00865235,0.00328018,0.00627518,0.00414896,0
 .06732091,-0.06742105,-0.26644068,-0.12560045,0.00542166,0.00588764,0.
 00312725,-0.00042033,0.00255059,0.00282731,0.06990085,0.27314639,-0.03
 913147,-0.12559800,-0.12287659,0.00315092,0.00313051,0.00231421,-0.007
 51848,-0.02470470,-0.01021124,0.04056638,0.13192791,0.12235680,-0.0448
 2814,0.06988117,-0.04012916,-0.02381101,0.01495103,-0.00858359,0.00328
 048,-0.00629405,0.00412035,0.00328095,-0.00673735,0.00336312,0.0673234
 4,0.06760444,-0.26758512,0.12493280,-0.00543662,0.00591658,-0.00311099
 ,0.00045505,0.00244955,-0.00276886,0.00672219,-0.01648895,0.01370529,-
 0.07009069,0.27434887,-0.03882399,0.12493039,-0.12172478,0.00312612,-0
 .00311401,0.00228551,-0.00751685,0.02476290,-0.01011086,0.00339425,-0.
 01382137,0.00883150,0.04024749,-0.13122702,0.12114731,0.00098160,-0.00
 000005,0.00000145,-0.01036515,0.00000002,0.00000002,-0.00499044,-0.000
 00047,0.00018024,-0.00499762,-0.00015571,-0.00008924,-0.00499794,0.000
 15600,-0.00008849,1.16470798,-0.00000012,-0.00678745,0.00000003,-0.000
 00014,0.00311811,-0.00000001,0.00000497,-0.00169929,-0.00001063,0.0018
 6953,0.00176072,0.00200744,-0.00187448,0.00177911,-0.00199687,-0.00001
 329,0.00014456,-0.00000166,0.00000002,-0.00678551,0.00000481,-0.000000
 01,0.00311745,-0.00215976,-0.00001066,0.00292518,0.00108506,0.00200816
 ,-0.00053416,0.00107650,-0.00199755,-0.00055247,0.00039871,0.00000004,
 0.00014577,0.01036379,0.00000004,-0.00000147,-0.00878781,-0.00000002,0
 .00000103,-0.00024710,-0.00000157,0.00068020,-0.00024780,-0.00058808,-
 0.00034124,-0.00024779,0.00058963,-0.00033854,-1.14033844,0.00001353,-
 0.00040366,1.13950516,-0.00000013,0.00159973,0.,0.00000015,-0.00053904
 ,0.,-0.00000044,0.00039155,0.00000246,-0.00016392,-0.00041572,-0.00046
 845,0.00016436,-0.00042004,0.00046600,0.00001351,0.00168423,0.,-0.0000
 1354,-0.00230072,0.00000452,0.,0.00159941,-0.00000467,0.,-0.00053893,0
 .00018935,0.00000248,-0.00068712,-0.00009546,-0.00046882,0.00011949,-0
 .00009471,0.00046634,0.00012379,-0.00040271,0.,0.00168374,0.00040368,0
 .,-0.00230038\\0.00606864,0.00000086,0.00000366,0.00472900,0.00000050,
 -0.00000534,-0.00040806,0.00000162,-0.00090773,-0.00039518,0.00079997,
 0.00045529,-0.00039350,-0.00080287,0.00045158,-0.00364357,-0.00000015,
 0.00000479,-0.00595733,0.00000007,-0.00000225\\\@


 IT IS WELL TO REMEMBER THAT MAN IS A PART OF NATURE AND THAT HIS WORKS,
 WHATEVER THEY MAY BE, ARE NO MORE "UNNATURAL" THAN 
 THE FLIGHT OF AN EAGLE OR THE PASSAGE OF A TORNADO.

                                    -- CHARLES MCCARRY IN "THE GREAT SOUTHWEST"
 Job cpu time:       0 days  0 hours  5 minutes 19.1 seconds.
 Elapsed time:       0 days  0 hours  0 minutes 13.3 seconds.
 File lengths (MBytes):  RWF=     88 Int=      0 D2E=      0 Chk=      2 Scr=      2
 Normal termination of Gaussian 16 at Sun Oct 13 09:51:41 2024.
