RxCoord=2.09950 DE=48.48                                                
Freq      RB3LYP                                                      6-31++G(d,p)        
Number of atoms                            I                7
Info1-9                                    I   N=           9
          16          16           0           0           0         100
           6          18        -502
Full Title                                 C   N=           2
RxCoord=2.09950 DE=48.48
Route                                      C   N=           6
#p b3lyp 6-31++g(d,p) scf=verytight NoSymm freq=noraman int=
ultrafine   
Charge                                     I               -1
Multiplicity                               I                1
Number of electrons                        I               40
Number of alpha electrons                  I               20
Number of beta electrons                   I               20
Number of basis functions                  I               98
Number of independent functions            I               98
Number of point charges in /Mol/           I                0
Number of translation vectors              I                0
Atomic numbers                             I   N=           7
           6          17           1           1           1           6
           7
Nuclear charges                            R   N=           7
  6.00000000E+00  1.70000000E+01  1.00000000E+00  1.00000000E+00  1.00000000E+00
  6.00000000E+00  7.00000000E+00
Current cartesian coordinates              R   N=          21
 -5.15152570E-01  9.44863062E-06 -3.64717142E-04 -4.07815748E+00 -3.77945225E-06
  9.82657585E-05  5.73418495E-02  4.50510708E-03 -1.96435708E+00  5.79030982E-02
  1.69857844E+00  9.85350445E-01  5.79446722E-02 -1.70304953E+00  9.77547765E-01
  4.51587474E+00  1.51178090E-05 -3.45819881E-04  6.74318154E+00 -1.51178090E-05
  4.68652079E-04
Number of symbols in /Mol/                 I                0
Force Field                                I                0
Atom Types                                 C   N=           7
                                                            
                        
Int Atom Types                             I   N=           7
           0           0           0           0           0           0
           0
MM charges                                 R   N=           7
  0.00000000E+00  0.00000000E+00  0.00000000E+00  0.00000000E+00  0.00000000E+00
  0.00000000E+00  0.00000000E+00
Integer atomic weights                     I   N=           7
          12          35           1           1           1          12
          14
Real atomic weights                        R   N=           7
  1.20000000E+01  3.49688527E+01  1.00782504E+00  1.00782504E+00  1.00782504E+00
  1.20000000E+01  1.40030740E+01
Atom fragment info                         I   N=           7
           0           0           0           0           0           0
           0
Atom residue num                           I   N=           7
           0           0           0           0           0           0
           0
Nuclear spins                              I   N=           7
           0           3           1           1           1           0
           2
Nuclear ZEff                               R   N=           7
 -3.60000000E+00 -1.42400000E+01 -1.00000000E+00 -1.00000000E+00 -1.00000000E+00
 -3.60000000E+00 -4.55000000E+00
Nuclear ZNuc                               R   N=           7
  6.00000000E+00  1.70000000E+01  1.00000000E+00  1.00000000E+00  1.00000000E+00
  6.00000000E+00  7.00000000E+00
Nuclear QMom                               R   N=           7
  0.00000000E+00 -8.16500000E+00  0.00000000E+00  0.00000000E+00  0.00000000E+00
  0.00000000E+00  2.04400000E+00
Nuclear GFac                               R   N=           7
  0.00000000E+00  8.21874000E-01  2.79284600E+00  2.79284600E+00  2.79284600E+00
  0.00000000E+00  4.03761000E-01
MicOpt                                     I   N=           7
          -1          -1          -1          -1          -1          -1
          -1
Number of residues                         I                0
Number of secondary structures             I                0
Number of contracted shells                I               33
Number of primitive shells                 I               72
Pure/Cartesian d shells                    I                1
Pure/Cartesian f shells                    I                0
Highest angular momentum                   I                2
Largest degree of contraction              I                6
Shell types                                I   N=          33
           0          -1          -1          -1           2           0
          -1          -1          -1          -1           2           0
           0           0           1           0           0           0
           1           0           0           0           1           0
          -1          -1          -1           2           0          -1
          -1          -1           2
Number of primitives per shell             I   N=          33
           6           3           1           1           1           6
           6           3           1           1           1           3
           1           1           1           3           1           1
           1           3           1           1           1           6
           3           1           1           1           6           3
           1           1           1
Shell to atom map                          I   N=          33
           1           1           1           1           1           2
           2           2           2           2           2           3
           3           3           3           4           4           4
           4           5           5           5           5           6
           6           6           6           6           7           7
           7           7           7
Primitive exponents                        R   N=          72
  3.04752488E+03  4.57369518E+02  1.03948685E+02  2.92101553E+01  9.28666296E+00
  3.16392696E+00  7.86827235E+00  1.88128854E+00  5.44249258E-01  1.68714478E-01
  4.38000000E-02  8.00000000E-01  2.51801000E+04  3.78035000E+03  8.60474000E+02
  2.42145000E+02  7.73349000E+01  2.62470000E+01  4.91765000E+02  1.16984000E+02
  3.74153000E+01  1.37834000E+01  5.45215000E+00  2.22588000E+00  3.18649000E+00
  1.14427000E+00  4.20377000E-01  1.42657000E-01  4.83000000E-02  7.50000000E-01
  1.87311370E+01  2.82539436E+00  6.40121692E-01  1.61277759E-01  3.60000000E-02
  1.10000000E+00  1.87311370E+01  2.82539436E+00  6.40121692E-01  1.61277759E-01
  3.60000000E-02  1.10000000E+00  1.87311370E+01  2.82539436E+00  6.40121692E-01
  1.61277759E-01  3.60000000E-02  1.10000000E+00  3.04752488E+03  4.57369518E+02
  1.03948685E+02  2.92101553E+01  9.28666296E+00  3.16392696E+00  7.86827235E+00
  1.88128854E+00  5.44249258E-01  1.68714478E-01  4.38000000E-02  8.00000000E-01
  4.17351146E+03  6.27457911E+02  1.42902093E+02  4.02343293E+01  1.28202129E+01
  4.39043701E+00  1.16263619E+01  2.71627981E+00  7.72218397E-01  2.12031498E-01
  6.39000000E-02  8.00000000E-01
Contraction coefficients                   R   N=          72
  1.83473713E-03  1.40373228E-02  6.88426223E-02  2.32184443E-01  4.67941348E-01
  3.62311985E-01 -1.19332420E-01 -1.60854152E-01  1.14345644E+00  1.00000000E+00
  1.00000000E+00  1.00000000E+00  1.83295985E-03  1.40341988E-02  6.90973943E-02
  2.37451980E-01  4.83033960E-01  3.39855972E-01 -2.29739142E-03 -3.07137189E-02
 -1.12528069E-01  4.50163278E-02  5.89353363E-01  4.65206287E-01 -2.51828028E-01
  6.15892514E-02  1.06018433E+00  1.00000000E+00  1.00000000E+00  1.00000000E+00
  3.34946043E-02  2.34726953E-01  8.13757326E-01  1.00000000E+00  1.00000000E+00
  1.00000000E+00  3.34946043E-02  2.34726953E-01  8.13757326E-01  1.00000000E+00
  1.00000000E+00  1.00000000E+00  3.34946043E-02  2.34726953E-01  8.13757326E-01
  1.00000000E+00  1.00000000E+00  1.00000000E+00  1.83473713E-03  1.40373228E-02
  6.88426223E-02  2.32184443E-01  4.67941348E-01  3.62311985E-01 -1.19332420E-01
 -1.60854152E-01  1.14345644E+00  1.00000000E+00  1.00000000E+00  1.00000000E+00
  1.83477216E-03  1.39946270E-02  6.85865518E-02  2.32240873E-01  4.69069948E-01
  3.60455199E-01 -1.14961182E-01 -1.69117479E-01  1.14585195E+00  1.00000000E+00
  1.00000000E+00  1.00000000E+00
P(S=P) Contraction coefficients            R   N=          72
  0.00000000E+00  0.00000000E+00  0.00000000E+00  0.00000000E+00  0.00000000E+00
  0.00000000E+00  6.89990666E-02  3.16423961E-01  7.44308291E-01  1.00000000E+00
  1.00000000E+00  0.00000000E+00  0.00000000E+00  0.00000000E+00  0.00000000E+00
  0.00000000E+00  0.00000000E+00  0.00000000E+00  3.98940088E-03  3.03177067E-02
  1.29880029E-01  3.27951072E-01  4.53527100E-01  2.52154056E-01 -1.42993147E-02
  3.23572333E-01  7.43507765E-01  1.00000000E+00  1.00000000E+00  0.00000000E+00
  0.00000000E+00  0.00000000E+00  0.00000000E+00  0.00000000E+00  0.00000000E+00
  0.00000000E+00  0.00000000E+00  0.00000000E+00  0.00000000E+00  0.00000000E+00
  0.00000000E+00  0.00000000E+00  0.00000000E+00  0.00000000E+00  0.00000000E+00
  0.00000000E+00  0.00000000E+00  0.00000000E+00  0.00000000E+00  0.00000000E+00
  0.00000000E+00  0.00000000E+00  0.00000000E+00  0.00000000E+00  6.89990666E-02
  3.16423961E-01  7.44308291E-01  1.00000000E+00  1.00000000E+00  0.00000000E+00
  0.00000000E+00  0.00000000E+00  0.00000000E+00  0.00000000E+00  0.00000000E+00
  0.00000000E+00  6.75797439E-02  3.23907296E-01  7.40895140E-01  1.00000000E+00
  1.00000000E+00  0.00000000E+00
Coordinates of each shell                  R   N=          99
 -5.15152570E-01  9.44863062E-06 -3.64717142E-04 -5.15152570E-01  9.44863062E-06
 -3.64717142E-04 -5.15152570E-01  9.44863062E-06 -3.64717142E-04 -5.15152570E-01
  9.44863062E-06 -3.64717142E-04 -5.15152570E-01  9.44863062E-06 -3.64717142E-04
 -4.07815748E+00 -3.77945225E-06  9.82657585E-05 -4.07815748E+00 -3.77945225E-06
  9.82657585E-05 -4.07815748E+00 -3.77945225E-06  9.82657585E-05 -4.07815748E+00
 -3.77945225E-06  9.82657585E-05 -4.07815748E+00 -3.77945225E-06  9.82657585E-05
 -4.07815748E+00 -3.77945225E-06  9.82657585E-05  5.73418495E-02  4.50510708E-03
 -1.96435708E+00  5.73418495E-02  4.50510708E-03 -1.96435708E+00  5.73418495E-02
  4.50510708E-03 -1.96435708E+00  5.73418495E-02  4.50510708E-03 -1.96435708E+00
  5.79030982E-02  1.69857844E+00  9.85350445E-01  5.79030982E-02  1.69857844E+00
  9.85350445E-01  5.79030982E-02  1.69857844E+00  9.85350445E-01  5.79030982E-02
  1.69857844E+00  9.85350445E-01  5.79446722E-02 -1.70304953E+00  9.77547765E-01
  5.79446722E-02 -1.70304953E+00  9.77547765E-01  5.79446722E-02 -1.70304953E+00
  9.77547765E-01  5.79446722E-02 -1.70304953E+00  9.77547765E-01  4.51587474E+00
  1.51178090E-05 -3.45819881E-04  4.51587474E+00  1.51178090E-05 -3.45819881E-04
  4.51587474E+00  1.51178090E-05 -3.45819881E-04  4.51587474E+00  1.51178090E-05
 -3.45819881E-04  4.51587474E+00  1.51178090E-05 -3.45819881E-04  6.74318154E+00
 -1.51178090E-05  4.68652079E-04  6.74318154E+00 -1.51178090E-05  4.68652079E-04
  6.74318154E+00 -1.51178090E-05  4.68652079E-04  6.74318154E+00 -1.51178090E-05
  4.68652079E-04  6.74318154E+00 -1.51178090E-05  4.68652079E-04
Num ILSW                                   I              100
ILSW                                       I   N=         100
           0           1           0           0           2           0
           0           0           0           0         402          -1
           5           0           0           0           2           0
           0           0           0           0           1           0
           1           1           0           0           0           0
           0           0      100000           0          -1           0
           0           0           0           0           0           0
           0           0           0           1           0           0
           0 -2000000000           1           0           0           0
           0           0           4          52           0           0
           0           0           5           0           0           0
           0           0           0           7           0           1
           0           0           0           0           0           0
           0           0           0           0           0           0
           0           0           0           0           0           0
           0           0           0           0           0           0
           0           0           0           0
Num RLSW                                   I               52
RLSW                                       R   N=          52
  8.00000000E-01  7.20000000E-01  1.00000000E+00  8.10000000E-01  2.00000000E-01
  0.00000000E+00  0.00000000E+00  1.00000000E+00  0.00000000E+00  0.00000000E+00
  0.00000000E+00  0.00000000E+00  1.00000000E+00  0.00000000E+00  0.00000000E+00
  0.00000000E+00  0.00000000E+00  1.00000000E+00  0.00000000E+00  0.00000000E+00
  0.00000000E+00  0.00000000E+00  1.00000000E+00  0.00000000E+00  0.00000000E+00
  0.00000000E+00  0.00000000E+00  1.00000000E+00  0.00000000E+00  0.00000000E+00
  0.00000000E+00  0.00000000E+00  1.00000000E+00  0.00000000E+00  0.00000000E+00
  0.00000000E+00  0.00000000E+00  0.00000000E+00  1.00000000E+00  1.00000000E+00
  0.00000000E+00  1.00000000E+00  0.00000000E+00  0.00000000E+00  0.00000000E+00
  0.00000000E+00  0.00000000E+00  0.00000000E+00  0.00000000E+00  0.00000000E+00
  0.00000000E+00  0.00000000E+00
MxBond                                     I                4
NBond                                      I   N=           7
           4           1           1           1           1           1
           1
IBond                                      I   N=          28
           2           3           4           5           1           0
           0           0           1           0           0           0
           1           0           0           0           1           0
           0           0           7           0           0           0
           6           0           0           0
RBond                                      R   N=          28
  1.00000000E+00  1.00000000E+00  1.00000000E+00  1.00000000E+00  1.00000000E+00
  0.00000000E+00  0.00000000E+00  0.00000000E+00  1.00000000E+00  0.00000000E+00
  0.00000000E+00  0.00000000E+00  1.00000000E+00  0.00000000E+00  0.00000000E+00
  0.00000000E+00  1.00000000E+00  0.00000000E+00  0.00000000E+00  0.00000000E+00
  2.00000000E+00  0.00000000E+00  0.00000000E+00  0.00000000E+00  2.00000000E+00
  0.00000000E+00  0.00000000E+00  0.00000000E+00
Virial Ratio                               R      2.004525962334452E+00
SCF Energy                                 R     -5.929925456535107E+02
Total Energy                               R     -5.929925456535107E+02
RMS Force                                  R      2.313857832747002E-03
RMS Density                                R      2.385797119560900E-09
NImag                                      I                2
Job Status                                 I                1
Nuclear derivative order                   I                2
External E-field                           R   N=          35
  0.00000000E+00  0.00000000E+00  0.00000000E+00  0.00000000E+00  0.00000000E+00
  0.00000000E+00  0.00000000E+00  0.00000000E+00  0.00000000E+00  0.00000000E+00
  0.00000000E+00  0.00000000E+00  0.00000000E+00  0.00000000E+00  0.00000000E+00
  0.00000000E+00  0.00000000E+00  0.00000000E+00  0.00000000E+00  0.00000000E+00
  0.00000000E+00  0.00000000E+00  0.00000000E+00  0.00000000E+00  0.00000000E+00
  0.00000000E+00  0.00000000E+00  0.00000000E+00  0.00000000E+00  0.00000000E+00
  0.00000000E+00  0.00000000E+00  0.00000000E+00  0.00000000E+00  0.00000000E+00
IOpCl                                      I                0
IROHF                                      I                0
Alpha Orbital Energies                     R   N=          98
 -1.01397219E+02 -1.40996694E+01 -1.00978694E+01 -9.96417657E+00 -9.31317881E+00
 -7.07586442E+00 -7.06803492E+00 -7.06803486E+00 -6.96295366E-01 -6.53635610E-01
 -5.36122183E-01 -3.01371900E-01 -3.01370398E-01 -2.62223217E-01 -1.85925104E-01
 -1.67116233E-01 -1.67114846E-01 -1.02377029E-01 -1.02376987E-01 -7.32453146E-02
  1.11771556E-01  1.30479449E-01  1.47296812E-01  1.47300665E-01  1.70117211E-01
  2.01585736E-01  2.05829795E-01  2.05830309E-01  2.21823057E-01  2.21827717E-01
  2.45399645E-01  2.50921231E-01  2.50924316E-01  2.70597104E-01  2.72101204E-01
  2.72103549E-01  3.14766312E-01  3.40792622E-01  3.40801100E-01  3.66263578E-01
  3.84508953E-01  3.85389359E-01  3.85393483E-01  4.67162395E-01  4.81211283E-01
  6.79377439E-01  7.44925631E-01  7.51390977E-01  7.51392661E-01  7.81164213E-01
  7.81168468E-01  8.86108675E-01  8.94115623E-01  8.94123244E-01  9.88139884E-01
  1.00698095E+00  1.00698575E+00  1.05682260E+00  1.05683112E+00  1.07394613E+00
  1.09830208E+00  1.09830868E+00  1.12206022E+00  1.18898933E+00  1.18898953E+00
  1.26354115E+00  1.29469727E+00  1.36165795E+00  1.49053372E+00  1.60442969E+00
  1.60444049E+00  1.77632662E+00  1.77632853E+00  1.79982899E+00  1.79983170E+00
  1.80375180E+00  2.15585203E+00  2.19734188E+00  2.19734646E+00  2.21381259E+00
  2.21383891E+00  2.25868091E+00  2.51339732E+00  2.51341487E+00  2.65171891E+00
  2.83056853E+00  2.83056972E+00  2.84735028E+00  2.96346470E+00  2.96349752E+00
  3.26411108E+00  3.40207574E+00  3.56285069E+00  3.56287931E+00  4.21542280E+00
  4.43680805E+00  4.46422125E+00  4.56625004E+00
Alpha MO coefficients                      R   N=        9604
 -5.62146033E-06  5.85084284E-07 -4.78210850E-05 -3.23436946E-10  6.50417647E-09
  7.70497385E-05 -6.99117021E-05 -9.73969638E-11  1.56642597E-09 -7.32837928E-05
 -1.26959332E-04 -9.61148894E-10  1.55106935E-08  1.60401213E-05  1.56294406E-05
  1.56277450E-05 -2.60886974E-10  1.13996690E-09  1.65867388E-10  9.95997097E-01
  1.51507080E-02  3.64600339E-05  3.90458124E-11 -4.63147002E-09 -2.10590262E-02
 -1.79835308E-05 -6.35346395E-11  2.26131572E-09  1.87067178E-03 -6.00051182E-05
 -1.97797818E-10  9.32837480E-09 -4.32582992E-04 -2.40666461E-05 -2.21816739E-11
  2.95416422E-09  7.49760641E-03  7.52529695E-03  7.52529701E-03 -1.36552079E-10
  4.72844900E-09  1.23579300E-12 -2.13952036E-05 -2.12718273E-05  4.12263077E-05
  2.30856402E-05  2.39132778E-08 -1.04008387E-05 -2.13898473E-05 -2.12733762E-05
  4.12216297E-05  2.30905549E-05  8.99318283E-06  5.21687585E-06 -2.13891059E-05
 -2.12739489E-05  4.12204690E-05  2.30912645E-05 -9.01683321E-06  5.17562073E-06
 -1.23007409E-06 -4.11723824E-07  1.59878741E-06  1.72633325E-10 -4.03010032E-09
 -1.35523822E-04 -1.31598324E-04  9.09257142E-10 -2.73261674E-08  4.00044514E-05
 -1.10073819E-04 -1.22573311E-10 -2.36220563E-09 -1.31541066E-05 -8.82703279E-07
 -8.82854834E-07  2.61359769E-10 -6.64480516E-09 -5.95280222E-12 -2.79857983E-06
 -1.12643105E-05 -1.34970045E-06 -3.01574673E-11  6.49827274E-10  1.61647622E-04
 -8.17911395E-05  1.36869574E-09 -3.61646800E-08  1.03667939E-04  1.66374868E-05
  7.67004680E-10 -1.67962110E-08  3.92412998E-06 -7.86052225E-06 -7.86049453E-06
 -2.54264753E-10  6.65556489E-09 -5.29411909E-14  1.96634732E-06  1.67555435E-05
 -8.78964549E-06  3.76577815E-11 -1.79798831E-09 -1.24928138E-05 -3.08555193E-06
  4.66439050E-11 -9.13805648E-09  1.18395169E-03  1.55273592E-04  1.99695680E-09
 -8.05529563E-08 -1.03163885E-05  6.06493241E-06  6.06590207E-06 -1.85135887E-10
  1.81642235E-09  2.70871254E-11  1.06727819E-07  1.97763135E-06 -3.49948046E-07
  2.54625897E-11 -3.30975363E-10  3.92148917E-06  1.84398957E-06 -1.46662390E-10
  1.90822286E-09 -4.79214702E-05 -1.56779531E-05  4.91639794E-10 -5.01570289E-09
 -1.25023308E-04 -6.74205078E-05 -2.50338368E-09  6.56003533E-08  5.39208061E-06
  3.37624192E-06  3.37634365E-06  1.01684343E-11  6.29268609E-10  1.40553205E-11
  6.03797086E-06 -6.42140911E-05 -1.83825135E-04 -2.63986713E-06  1.06574708E-08
 -4.65672493E-06  6.02553213E-06 -6.41618347E-05 -1.84045728E-04 -2.64066798E-06
  4.02490909E-06  2.33585184E-06  6.02486891E-06 -6.41602623E-05 -1.84060345E-04
 -2.64072422E-06 -4.03550730E-06  2.31733646E-06  8.42315492E-05  2.05669037E-04
 -2.92006908E-04  3.87334324E-09 -1.04272386E-07 -2.46491278E-04 -4.15953666E-04
  6.22266991E-09 -1.66244039E-07  1.36231840E-03  1.09527868E-03 -1.51834882E-08
  3.85698871E-07 -7.67196314E-04 -1.20598378E-05 -1.20604825E-05  1.18853061E-08
 -3.19832858E-07 -8.41644610E-12  9.92697202E-01  3.44529585E-02 -1.41527107E-03
  1.90762614E-08 -5.12664497E-07  5.21616228E-03  1.14960651E-04 -1.61504407E-09
  4.12008713E-08 -3.03562425E-03  4.04861145E-05 -5.29012327E-10  2.65765592E-08
 -7.70224245E-03 -8.42639614E-03 -8.42639628E-03 -1.13008163E-08  3.04569215E-07
 -1.15193326E-11  9.93015209E-01  4.95398181E-02 -5.92179343E-04 -2.51346301E-09
 -4.94600537E-08 -1.63908992E-02  5.49367431E-04  8.92737990E-09  2.37210192E-07
  6.29566535E-03 -2.77762855E-03 -2.87240493E-09  5.59008098E-07 -9.28545280E-03
 -8.78865875E-03 -8.78864320E-03 -4.81894739E-09  8.28016408E-08  3.91083129E-09
 -7.87858882E-06 -5.42690939E-05 -1.21614948E-05 -4.05007958E-10  3.66588233E-09
 -8.94654483E-05  2.06765138E-04  3.13919713E-09 -3.96664187E-08  2.83463767E-03
  1.66149690E-03 -4.06624891E-09 -1.97813561E-07 -4.92280687E-03 -1.72150767E-03
 -2.03202923E-09  1.70945093E-07 -4.24604225E-05 -1.58540034E-04 -1.58548325E-04
 -1.56936313E-09 -1.62734689E-08 -6.52639205E-10 -1.54660915E-04  3.03604710E-03
 -8.98127740E-04  4.21894701E-05  2.57926001E-07 -1.11744881E-04 -1.54650000E-04
  3.03569501E-03 -8.98282072E-04  4.21930212E-05  9.66324790E-05  5.60611924E-05
 -1.54648314E-04  3.03570719E-03 -8.98228417E-04  4.21896212E-05 -9.68836943E-05
  5.56173760E-05 -1.45054424E-05 -1.00272636E-04  4.42347995E-05 -2.23360595E-09
  2.76759861E-08 -6.95704715E-04 -1.26565264E-03  2.02572468E-08 -4.30744220E-07
  1.32134534E-03  8.15293291E-04  2.28348692E-08 -3.32685235E-07  1.12575027E-05
 -3.79980014E-05 -3.79831536E-05  7.56468096E-10 -2.43928582E-08  3.82423215E-10
 -4.08008571E-05 -1.61546437E-04  9.57848651E-06 -8.77519159E-10  2.88308601E-08
  1.66455487E-03 -5.42258193E-04  9.65369685E-09 -2.87861689E-07 -8.58437433E-04
 -2.78766617E-04 -2.32655980E-08  4.13453368E-07 -4.74408837E-05 -9.35312734E-05
 -9.35323781E-05  3.64051120E-10  2.25414948E-09  8.30372153E-13 -2.65126446E-05
 -1.27742528E-04 -9.79403081E-05 -1.95121036E-10  7.85010503E-09  4.49186834E-04
  6.99306195E-04  3.19072010E-09 -1.86589475E-07 -2.38917671E-03  6.46463172E-03
  1.12404255E-08 -4.45861916E-07  2.19147466E-05 -3.26263668E-05 -3.26232656E-05
 -6.09701449E-13 -4.48535008E-09  1.38618432E-10  2.15683941E-07  7.69754248E-06
  5.97613051E-06  1.60578279E-10 -3.51829582E-09  1.84459539E-05 -3.91998419E-05
 -9.78254713E-10  2.06965276E-08 -1.93646215E-04  4.24690928E-04  4.35109111E-09
 -9.01385245E-08  7.57739929E-03  1.82794342E-03  8.38782163E-09 -3.54741098E-07
  5.50034809E-05 -1.58225358E-06 -1.57848889E-06  6.58926874E-10 -1.34586834E-08
  1.30158017E-10 -3.96006927E-05 -4.63363698E-04  7.06594018E-05 -2.80095870E-05
  1.55108263E-08 -6.91072192E-06 -3.96337552E-05 -4.63061981E-04  7.05926848E-05
 -2.79402066E-05  5.94474211E-06  3.46456609E-06 -3.96364825E-05 -4.63054524E-04
  7.05752224E-05 -2.79355573E-05 -5.95949394E-06  3.43631114E-06  9.92836533E-01
  4.93866162E-02  1.86477324E-03 -2.76843150E-08  7.41869652E-07 -1.07979674E-02
 -5.51394126E-04  1.65915621E-08 -4.33827153E-07 -9.18848535E-03  5.49703870E-04
  2.31403150E-08 -4.50125097E-07 -8.45403800E-03 -9.72171809E-03 -9.72171991E-03
 -1.95991848E-08  5.29802585E-07 -5.07199460E-11 -4.89044595E-04  7.13720959E-05
  4.33208157E-04 -5.54657656E-09  1.46474777E-07 -1.39203159E-03  6.68337287E-04
 -1.21062319E-08  3.34470635E-07  9.06207198E-03 -3.56372822E-03  4.14257236E-08
 -1.19314297E-06 -2.67878933E-04  1.85066772E-04  1.85066765E-04  7.67393110E-09
 -2.05329132E-07 -1.13252953E-12 -9.01646939E-05  1.37556195E-04  3.03348348E-04
  1.05547627E-09 -2.51830918E-08  2.73997215E-03 -1.55312263E-03 -1.89930498E-08
  8.94292988E-08 -3.09414753E-02  3.82129890E-02  1.18382037E-07 -3.35180269E-06
 -6.85930272E-04 -1.03684924E-04 -1.03700733E-04 -2.94111448E-09  8.45351442E-08
 -2.07424208E-09 -2.84607586E-01  1.02275134E+00  4.34407692E-03  4.32637300E-09
 -5.62278990E-07  7.60090408E-02  5.40186466E-04  1.34103621E-09 -5.88732362E-08
 -2.62650994E-02 -1.62708959E-03 -2.39776223E-09  1.74625214E-07  6.16550712E-02
  1.72980719E-02  7.68393903E-08 -2.83627365E-06 -1.52576683E-02 -1.55667953E-02
 -1.55667939E-02  1.97541275E-09 -5.85325840E-08  1.19377361E-10 -4.67597725E-05
 -7.70809505E-04  9.80311377E-04 -6.33314371E-05 -7.65367287E-09  3.33697021E-06
 -4.67847850E-05 -7.70602200E-04  9.80742731E-04 -6.32529481E-05 -2.89656015E-06
 -1.65916625E-06 -4.67889739E-05 -7.70621251E-04  9.80803232E-04 -6.32419797E-05
  2.90286628E-06 -1.64516078E-06  1.85274794E-05  8.25782862E-05  4.38170936E-05
 -3.03768043E-09  8.21738452E-08 -3.75646419E-05  3.86551463E-04  4.70904451E-09
 -1.46508104E-07 -2.42585797E-02  1.19607441E-02  2.76982120E-08  6.17502823E-07
  9.04759611E-05  1.54733366E-05  1.54714066E-05 -4.44630457E-10  8.58844576E-09
 -9.34099291E-11  4.12143361E-06  3.31621512E-05 -1.79580624E-05 -1.70004676E-09
  2.28974380E-08 -4.82157670E-04  4.67604617E-04  5.40983010E-10  1.00248699E-07
  1.06824459E-03 -3.03223345E-03 -1.92467031E-08 -1.14178640E-07 -5.59927713E-05
  1.31642944E-05  1.31650083E-05  1.48203816E-09 -4.15052690E-08  2.84335535E-11
  7.34912745E-05  1.44053295E-03  1.20021827E-04 -8.35922201E-10 -4.68591820E-08
 -3.71123772E-04  1.66164776E-03 -2.01930690E-08  3.50170248E-07  3.95319459E-02
 -6.03402441E-02 -1.48123704E-07  4.11993261E-06 -1.70584952E-03  2.29329324E-04
  2.29229132E-04 -7.31823502E-09  2.74952130E-07 -6.05071683E-09  1.27980265E-03
 -4.88663056E-03  9.90371267E-01  1.48447730E-06 -1.17463582E-04 -3.17023626E-04
  3.13619765E-02  5.16425052E-08 -3.76893965E-06  4.85719558E-03 -1.31017005E-02
 -2.39821454E-08  1.58051066E-06 -7.31109607E-02 -1.46470660E-02 -9.41748765E-08
  3.36353411E-06  5.54622221E-04 -4.26730375E-04 -4.26740664E-04  3.57588558E-09
 -1.35646472E-07 -2.80278163E-10 -2.23327739E-04  1.39760565E-03 -5.90066060E-03
 -3.14543402E-04  1.00021233E-07 -4.33633130E-05 -2.23464889E-04  1.39706402E-03
 -5.90177475E-03 -3.14455592E-04  3.75934004E-05  2.18245688E-05 -2.23485631E-04
  1.39703409E-03 -5.90184663E-03 -3.14440403E-04 -3.76980542E-05  2.16557621E-05
 -2.80567413E-05 -1.67490972E-04 -1.03803923E-04  3.08430731E-09 -7.76182953E-08
  3.40485780E-03  2.19263900E-03 -3.81638563E-08  1.05389882E-06  5.13870871E-02
 -2.00485600E-02 -8.87132371E-08 -1.80356295E-07  1.13685660E-04 -5.24134252E-05
 -5.24139051E-05 -5.22378100E-09  1.44582858E-07  1.93744749E-11 -8.38318510E-07
  2.56618732E-05  3.68918899E-05  2.74041847E-09 -3.43542355E-08 -1.48715467E-03
  1.10797070E-03 -2.64676430E-08  5.10360852E-07 -9.65623094E-03  6.46605580E-03
  1.05563871E-08  9.21147888E-07 -1.26281514E-04  2.05867607E-05  2.05840190E-05
  2.14791573E-09 -5.79356231E-08 -2.84732011E-11  2.43747234E-09  1.58860118E-08
  1.35780828E-09 -7.38565226E-05  2.13624568E-06 -8.34875190E-08 -4.58878112E-09
  3.16345933E-04 -9.15770926E-06  1.99551506E-08 -5.11417539E-07  3.67453196E-04
 -1.05976889E-05 -6.14610612E-10  2.97778726E-06 -2.97721103E-06  7.33347735E-05
 -2.12088823E-06 -9.60857632E-05 -7.34942579E-11 -1.41054447E-09 -4.88444516E-06
  9.90430285E-01 -2.86416188E-02 -3.04626199E-09 -1.39024108E-07  2.95850404E-02
 -8.55549471E-04  4.63142644E-08  5.62219180E-08 -1.16239720E-02  3.36143273E-04
 -5.13060327E-07 -1.55115781E-07  5.18763220E-03 -1.50013063E-04 -1.66881292E-09
 -1.74492796E-07  1.72408409E-07  2.82555205E-04 -8.17052187E-06  5.54246105E-06
 -2.01628644E-06  1.78498768E-05 -1.43813165E-04 -7.78393451E-06 -2.64066725E-05
  2.11400304E-06 -5.49224171E-05  4.84944528E-04 -3.92000513E-03 -2.12071161E-04
 -5.81443355E-05 -1.76157520E-05  5.69452154E-05 -5.02623059E-04  4.06383367E-03
  2.19846505E-04 -5.93874269E-05  1.96623095E-05 -1.17949262E-09 -4.77073552E-09
  1.54713727E-09  5.35155521E-05 -1.54705439E-06  4.74987303E-08  2.24094587E-09
 -2.13893472E-04  6.18292977E-06  3.73307279E-07 -2.31362817E-07  1.03175879E-03
 -2.98261584E-05 -6.42991295E-10 -1.15403022E-07  1.10430929E-07 -2.69458664E-06
  7.78104983E-08  3.63836985E-06  7.15999685E-10  2.20930770E-09 -3.89435103E-10
 -2.18400080E-05  6.31497681E-07 -2.39859450E-08  1.14629144E-08  1.32615565E-04
 -3.83407019E-06  1.06249620E-09  6.25913868E-08 -3.86874643E-04  1.11846204E-05
 -8.24200418E-11 -7.17456854E-08  7.67160578E-08 -1.54406212E-05  4.46324305E-07
  2.39272240E-06 -1.28713576E-08 -7.98697094E-08 -2.86920663E-08 -2.13592878E-06
 -7.38757466E-05  4.41623686E-07  1.40147543E-07  9.13480779E-06  3.16211488E-04
 -1.78846024E-06  6.93482359E-06  1.06401262E-05  3.66953067E-04  3.46107075E-09
 -8.32470089E-05  8.32424621E-05  2.12139592E-06  7.33639024E-05 -3.44267672E-06
 -1.35532089E-08  6.70346867E-08  1.17450857E-04  2.86416187E-02  9.90430281E-01
  3.28458914E-08  3.44619561E-06  8.55551752E-04  2.95850254E-02 -4.51001437E-07
 -1.23037843E-06 -3.36147487E-04 -1.16239154E-02  7.39476022E-06  2.45343741E-06
  1.50022825E-04  5.18764156E-03  7.73851545E-08  4.85674003E-06 -4.87955067E-06
  8.17170364E-06  2.82560704E-04  1.99341993E-07  6.45162371E-05 -5.70751379E-04
  4.60884478E-03  2.49410381E-04 -6.63470700E-07 -6.96334894E-05 -3.40267417E-05
  3.00240103E-04 -2.42865215E-03 -1.31424920E-04 -2.04203780E-05 -3.78068995E-05
 -3.05425705E-05  2.69399975E-04 -2.17942620E-03 -1.17939118E-04  1.69177423E-05
 -3.65582073E-05  1.39164712E-08  5.47150647E-08 -1.78050390E-08  1.54771833E-06