RxCoord=2.19945 DE=48.21                                                
Freq      RB3LYP                                                      6-31++G(d,p)        
Number of atoms                            I                7
Info1-9                                    I   N=           9
          16          16           0           0           0         100
           6          18        -502
Full Title                                 C   N=           2
RxCoord=2.19945 DE=48.21
Route                                      C   N=           6
#p b3lyp 6-31++g(d,p) scf=verytight NoSymm freq=noraman int=
ultrafine   
Charge                                     I               -1
Multiplicity                               I                1
Number of electrons                        I               40
Number of alpha electrons                  I               20
Number of beta electrons                   I               20
Number of basis functions                  I               98
Number of independent functions            I               98
Number of point charges in /Mol/           I                0
Number of translation vectors              I                0
Atomic numbers                             I   N=           7
           6          17           1           1           1           6
           7
Nuclear charges                            R   N=           7
  6.00000000E+00  1.70000000E+01  1.00000000E+00  1.00000000E+00  1.00000000E+00
  6.00000000E+00  7.00000000E+00
Current cartesian coordinates              R   N=          21
 -5.38099514E-01  7.55890450E-06 -3.53378785E-04 -4.07753198E+00 -3.77945225E-06
  9.82657585E-05  4.56368859E-02  4.48620982E-03 -1.96157540E+00  4.60658537E-02
  1.69617849E+00  9.84040864E-01  4.60998688E-02 -1.70064202E+00  9.76264641E-01
  4.52684649E+00  1.88972612E-05 -3.79834951E-04  6.75442730E+00 -1.51178090E-05
  4.74321257E-04
Number of symbols in /Mol/                 I                0
Force Field                                I                0
Atom Types                                 C   N=           7
                                                            
                        
Int Atom Types                             I   N=           7
           0           0           0           0           0           0
           0
MM charges                                 R   N=           7
  0.00000000E+00  0.00000000E+00  0.00000000E+00  0.00000000E+00  0.00000000E+00
  0.00000000E+00  0.00000000E+00
Integer atomic weights                     I   N=           7
          12          35           1           1           1          12
          14
Real atomic weights                        R   N=           7
  1.20000000E+01  3.49688527E+01  1.00782504E+00  1.00782504E+00  1.00782504E+00
  1.20000000E+01  1.40030740E+01
Atom fragment info                         I   N=           7
           0           0           0           0           0           0
           0
Atom residue num                           I   N=           7
           0           0           0           0           0           0
           0
Nuclear spins                              I   N=           7
           0           3           1           1           1           0
           2
Nuclear ZEff                               R   N=           7
 -3.60000000E+00 -1.42400000E+01 -1.00000000E+00 -1.00000000E+00 -1.00000000E+00
 -3.60000000E+00 -4.55000000E+00
Nuclear ZNuc                               R   N=           7
  6.00000000E+00  1.70000000E+01  1.00000000E+00  1.00000000E+00  1.00000000E+00
  6.00000000E+00  7.00000000E+00
Nuclear QMom                               R   N=           7
  0.00000000E+00 -8.16500000E+00  0.00000000E+00  0.00000000E+00  0.00000000E+00
  0.00000000E+00  2.04400000E+00
Nuclear GFac                               R   N=           7
  0.00000000E+00  8.21874000E-01  2.79284600E+00  2.79284600E+00  2.79284600E+00
  0.00000000E+00  4.03761000E-01
MicOpt                                     I   N=           7
          -1          -1          -1          -1          -1          -1
          -1
Number of residues                         I                0
Number of secondary structures             I                0
Number of contracted shells                I               33
Number of primitive shells                 I               72
Pure/Cartesian d shells                    I                1
Pure/Cartesian f shells                    I                0
Highest angular momentum                   I                2
Largest degree of contraction              I                6
Shell types                                I   N=          33
           0          -1          -1          -1           2           0
          -1          -1          -1          -1           2           0
           0           0           1           0           0           0
           1           0           0           0           1           0
          -1          -1          -1           2           0          -1
          -1          -1           2
Number of primitives per shell             I   N=          33
           6           3           1           1           1           6
           6           3           1           1           1           3
           1           1           1           3           1           1
           1           3           1           1           1           6
           3           1           1           1           6           3
           1           1           1
Shell to atom map                          I   N=          33
           1           1           1           1           1           2
           2           2           2           2           2           3
           3           3           3           4           4           4
           4           5           5           5           5           6
           6           6           6           6           7           7
           7           7           7
Primitive exponents                        R   N=          72
  3.04752488E+03  4.57369518E+02  1.03948685E+02  2.92101553E+01  9.28666296E+00
  3.16392696E+00  7.86827235E+00  1.88128854E+00  5.44249258E-01  1.68714478E-01
  4.38000000E-02  8.00000000E-01  2.51801000E+04  3.78035000E+03  8.60474000E+02
  2.42145000E+02  7.73349000E+01  2.62470000E+01  4.91765000E+02  1.16984000E+02
  3.74153000E+01  1.37834000E+01  5.45215000E+00  2.22588000E+00  3.18649000E+00
  1.14427000E+00  4.20377000E-01  1.42657000E-01  4.83000000E-02  7.50000000E-01
  1.87311370E+01  2.82539436E+00  6.40121692E-01  1.61277759E-01  3.60000000E-02
  1.10000000E+00  1.87311370E+01  2.82539436E+00  6.40121692E-01  1.61277759E-01
  3.60000000E-02  1.10000000E+00  1.87311370E+01  2.82539436E+00  6.40121692E-01
  1.61277759E-01  3.60000000E-02  1.10000000E+00  3.04752488E+03  4.57369518E+02
  1.03948685E+02  2.92101553E+01  9.28666296E+00  3.16392696E+00  7.86827235E+00
  1.88128854E+00  5.44249258E-01  1.68714478E-01  4.38000000E-02  8.00000000E-01
  4.17351146E+03  6.27457911E+02  1.42902093E+02  4.02343293E+01  1.28202129E+01
  4.39043701E+00  1.16263619E+01  2.71627981E+00  7.72218397E-01  2.12031498E-01
  6.39000000E-02  8.00000000E-01
Contraction coefficients                   R   N=          72
  1.83473713E-03  1.40373228E-02  6.88426223E-02  2.32184443E-01  4.67941348E-01
  3.62311985E-01 -1.19332420E-01 -1.60854152E-01  1.14345644E+00  1.00000000E+00
  1.00000000E+00  1.00000000E+00  1.83295985E-03  1.40341988E-02  6.90973943E-02
  2.37451980E-01  4.83033960E-01  3.39855972E-01 -2.29739142E-03 -3.07137189E-02
 -1.12528069E-01  4.50163278E-02  5.89353363E-01  4.65206287E-01 -2.51828028E-01
  6.15892514E-02  1.06018433E+00  1.00000000E+00  1.00000000E+00  1.00000000E+00
  3.34946043E-02  2.34726953E-01  8.13757326E-01  1.00000000E+00  1.00000000E+00
  1.00000000E+00  3.34946043E-02  2.34726953E-01  8.13757326E-01  1.00000000E+00
  1.00000000E+00  1.00000000E+00  3.34946043E-02  2.34726953E-01  8.13757326E-01
  1.00000000E+00  1.00000000E+00  1.00000000E+00  1.83473713E-03  1.40373228E-02
  6.88426223E-02  2.32184443E-01  4.67941348E-01  3.62311985E-01 -1.19332420E-01
 -1.60854152E-01  1.14345644E+00  1.00000000E+00  1.00000000E+00  1.00000000E+00
  1.83477216E-03  1.39946270E-02  6.85865518E-02  2.32240873E-01  4.69069948E-01
  3.60455199E-01 -1.14961182E-01 -1.69117479E-01  1.14585195E+00  1.00000000E+00
  1.00000000E+00  1.00000000E+00
P(S=P) Contraction coefficients            R   N=          72
  0.00000000E+00  0.00000000E+00  0.00000000E+00  0.00000000E+00  0.00000000E+00
  0.00000000E+00  6.89990666E-02  3.16423961E-01  7.44308291E-01  1.00000000E+00
  1.00000000E+00  0.00000000E+00  0.00000000E+00  0.00000000E+00  0.00000000E+00
  0.00000000E+00  0.00000000E+00  0.00000000E+00  3.98940088E-03  3.03177067E-02
  1.29880029E-01  3.27951072E-01  4.53527100E-01  2.52154056E-01 -1.42993147E-02
  3.23572333E-01  7.43507765E-01  1.00000000E+00  1.00000000E+00  0.00000000E+00
  0.00000000E+00  0.00000000E+00  0.00000000E+00  0.00000000E+00  0.00000000E+00
  0.00000000E+00  0.00000000E+00  0.00000000E+00  0.00000000E+00  0.00000000E+00
  0.00000000E+00  0.00000000E+00  0.00000000E+00  0.00000000E+00  0.00000000E+00
  0.00000000E+00  0.00000000E+00  0.00000000E+00  0.00000000E+00  0.00000000E+00
  0.00000000E+00  0.00000000E+00  0.00000000E+00  0.00000000E+00  6.89990666E-02
  3.16423961E-01  7.44308291E-01  1.00000000E+00  1.00000000E+00  0.00000000E+00
  0.00000000E+00  0.00000000E+00  0.00000000E+00  0.00000000E+00  0.00000000E+00
  0.00000000E+00  6.75797439E-02  3.23907296E-01  7.40895140E-01  1.00000000E+00
  1.00000000E+00  0.00000000E+00
Coordinates of each shell                  R   N=          99
 -5.38099514E-01  7.55890450E-06 -3.53378785E-04 -5.38099514E-01  7.55890450E-06
 -3.53378785E-04 -5.38099514E-01  7.55890450E-06 -3.53378785E-04 -5.38099514E-01
  7.55890450E-06 -3.53378785E-04 -5.38099514E-01  7.55890450E-06 -3.53378785E-04
 -4.07753198E+00 -3.77945225E-06  9.82657585E-05 -4.07753198E+00 -3.77945225E-06
  9.82657585E-05 -4.07753198E+00 -3.77945225E-06  9.82657585E-05 -4.07753198E+00
 -3.77945225E-06  9.82657585E-05 -4.07753198E+00 -3.77945225E-06  9.82657585E-05
 -4.07753198E+00 -3.77945225E-06  9.82657585E-05  4.56368859E-02  4.48620982E-03
 -1.96157540E+00  4.56368859E-02  4.48620982E-03 -1.96157540E+00  4.56368859E-02
  4.48620982E-03 -1.96157540E+00  4.56368859E-02  4.48620982E-03 -1.96157540E+00
  4.60658537E-02  1.69617849E+00  9.84040864E-01  4.60658537E-02  1.69617849E+00
  9.84040864E-01  4.60658537E-02  1.69617849E+00  9.84040864E-01  4.60658537E-02
  1.69617849E+00  9.84040864E-01  4.60998688E-02 -1.70064202E+00  9.76264641E-01
  4.60998688E-02 -1.70064202E+00  9.76264641E-01  4.60998688E-02 -1.70064202E+00
  9.76264641E-01  4.60998688E-02 -1.70064202E+00  9.76264641E-01  4.52684649E+00
  1.88972612E-05 -3.79834951E-04  4.52684649E+00  1.88972612E-05 -3.79834951E-04
  4.52684649E+00  1.88972612E-05 -3.79834951E-04  4.52684649E+00  1.88972612E-05
 -3.79834951E-04  4.52684649E+00  1.88972612E-05 -3.79834951E-04  6.75442730E+00
 -1.51178090E-05  4.74321257E-04  6.75442730E+00 -1.51178090E-05  4.74321257E-04
  6.75442730E+00 -1.51178090E-05  4.74321257E-04  6.75442730E+00 -1.51178090E-05
  4.74321257E-04  6.75442730E+00 -1.51178090E-05  4.74321257E-04
Num ILSW                                   I              100
ILSW                                       I   N=         100
           0           1           0           0           2           0
           0           0           0           0         402          -1
           5           0           0           0           2           0
           0           0           0           0           1           0
           1           1           0           0           0           0
           0           0      100000           0          -1           0
           0           0           0           0           0           0
           0           0           0           1           0           0
           0 -2000000000           1           0           0           0
           0           0           4          52           0           0
           0           0           5           0           0           0
           0           0           0           7           0           1
           0           0           0           0           0           0
           0           0           0           0           0           0
           0           0           0           0           0           0
           0           0           0           0           0           0
           0           0           0           0
Num RLSW                                   I               52
RLSW                                       R   N=          52
  8.00000000E-01  7.20000000E-01  1.00000000E+00  8.10000000E-01  2.00000000E-01
  0.00000000E+00  0.00000000E+00  1.00000000E+00  0.00000000E+00  0.00000000E+00
  0.00000000E+00  0.00000000E+00  1.00000000E+00  0.00000000E+00  0.00000000E+00
  0.00000000E+00  0.00000000E+00  1.00000000E+00  0.00000000E+00  0.00000000E+00
  0.00000000E+00  0.00000000E+00  1.00000000E+00  0.00000000E+00  0.00000000E+00
  0.00000000E+00  0.00000000E+00  1.00000000E+00  0.00000000E+00  0.00000000E+00
  0.00000000E+00  0.00000000E+00  1.00000000E+00  0.00000000E+00  0.00000000E+00
  0.00000000E+00  0.00000000E+00  0.00000000E+00  1.00000000E+00  1.00000000E+00
  0.00000000E+00  1.00000000E+00  0.00000000E+00  0.00000000E+00  0.00000000E+00
  0.00000000E+00  0.00000000E+00  0.00000000E+00  0.00000000E+00  0.00000000E+00
  0.00000000E+00  0.00000000E+00
MxBond                                     I                4
NBond                                      I   N=           7
           4           1           1           1           1           1
           1
IBond                                      I   N=          28
           2           3           4           5           1           0
           0           0           1           0           0           0
           1           0           0           0           1           0
           0           0           7           0           0           0
           6           0           0           0
RBond                                      R   N=          28
  1.00000000E+00  1.00000000E+00  1.00000000E+00  1.00000000E+00  1.00000000E+00
  0.00000000E+00  0.00000000E+00  0.00000000E+00  1.00000000E+00  0.00000000E+00
  0.00000000E+00  0.00000000E+00  1.00000000E+00  0.00000000E+00  0.00000000E+00
  0.00000000E+00  1.00000000E+00  0.00000000E+00  0.00000000E+00  0.00000000E+00
  2.00000000E+00  0.00000000E+00  0.00000000E+00  0.00000000E+00  2.00000000E+00
  0.00000000E+00  0.00000000E+00  0.00000000E+00
Virial Ratio                               R      2.004515690325983E+00
SCF Energy                                 R     -5.929927139885591E+02
Total Energy                               R     -5.929927139885591E+02
RMS Force                                  R      2.452170236972542E-03
RMS Density                                R      2.331348349270364E-09
NImag                                      I                2
Job Status                                 I                1
Nuclear derivative order                   I                2
External E-field                           R   N=          35
  0.00000000E+00  0.00000000E+00  0.00000000E+00  0.00000000E+00  0.00000000E+00
  0.00000000E+00  0.00000000E+00  0.00000000E+00  0.00000000E+00  0.00000000E+00
  0.00000000E+00  0.00000000E+00  0.00000000E+00  0.00000000E+00  0.00000000E+00
  0.00000000E+00  0.00000000E+00  0.00000000E+00  0.00000000E+00  0.00000000E+00
  0.00000000E+00  0.00000000E+00  0.00000000E+00  0.00000000E+00  0.00000000E+00
  0.00000000E+00  0.00000000E+00  0.00000000E+00  0.00000000E+00  0.00000000E+00
  0.00000000E+00  0.00000000E+00  0.00000000E+00  0.00000000E+00  0.00000000E+00
IOpCl                                      I                0
IROHF                                      I                0
Alpha Orbital Energies                     R   N=          98
 -1.01399003E+02 -1.40987048E+01 -1.00972784E+01 -9.96313183E+00 -9.31505263E+00
 -7.07778351E+00 -7.06987318E+00 -7.06987317E+00 -6.99637470E-01 -6.52603086E-01
 -5.35859777E-01 -3.01686362E-01 -3.01680854E-01 -2.64727240E-01 -1.85262959E-01
 -1.68065799E-01 -1.68065493E-01 -1.01404121E-01 -1.01404101E-01 -7.23478919E-02
  1.11581523E-01  1.30680877E-01  1.47109651E-01  1.47114300E-01  1.70861955E-01
  2.02829091E-01  2.05686642E-01  2.05686731E-01  2.21832016E-01  2.21833557E-01
  2.45089127E-01  2.50959474E-01  2.50961356E-01  2.71028965E-01  2.72731762E-01
  2.72732467E-01  3.14933405E-01  3.40415313E-01  3.40417659E-01  3.65551887E-01
  3.84848510E-01  3.85759717E-01  3.85765581E-01  4.67282418E-01  4.81753966E-01
  6.75615970E-01  7.43736508E-01  7.50642408E-01  7.50643864E-01  7.80262347E-01
  7.80265363E-01  8.86318171E-01  8.94898967E-01  8.94903772E-01  9.87560400E-01
  1.00501024E+00  1.00501097E+00  1.05503478E+00  1.05503649E+00  1.07795019E+00
  1.09869303E+00  1.09869997E+00  1.12248612E+00  1.18960016E+00  1.18960145E+00
  1.26471408E+00  1.28920147E+00  1.36280605E+00  1.48897575E+00  1.60537942E+00
  1.60538267E+00  1.77735059E+00  1.77735244E+00  1.80016651E+00  1.80081292E+00
  1.80082378E+00  2.15709947E+00  2.19827052E+00  2.19827449E+00  2.21645330E+00
  2.21645807E+00  2.26651670E+00  2.50944166E+00  2.50945265E+00  2.65527969E+00
  2.83147405E+00  2.83147417E+00  2.84809073E+00  2.96345575E+00  2.96346170E+00
  3.26420113E+00  3.40001900E+00  3.56278532E+00  3.56279540E+00  4.21583816E+00
  4.43339305E+00  4.46380081E+00  4.56822847E+00
Alpha MO coefficients                      R   N=        9604
 -5.79755398E-06  6.49533139E-06 -4.87109939E-05 -2.42694223E-10  5.87889775E-09
  8.41661158E-05 -6.55006112E-05 -1.65825246E-10  5.22540576E-09 -6.43579198E-05
 -1.30468459E-04 -9.78794152E-10  1.35442530E-08  8.26813727E-06  1.50192925E-05
  1.50206676E-05 -2.46372341E-10  1.17373363E-09  2.10466704E-10  9.95997047E-01
  1.51507634E-02  3.71027744E-05  3.43782594E-11 -4.94996227E-09 -2.10600572E-02
 -1.80901436E-05 -6.32828788E-11  2.26319049E-09  1.87254596E-03 -5.91294691E-05
 -1.25862428E-10  8.52975856E-09 -4.40920679E-04 -2.64182326E-05  2.97583415E-12
  3.24475031E-09  7.49825276E-03  7.52520854E-03  7.52520858E-03 -1.02716532E-10
  4.18844187E-09  1.97810287E-12 -2.25137456E-05 -2.30172169E-05  4.10937014E-05
  2.32468165E-05  2.48360396E-08 -1.08268354E-05 -2.25117921E-05 -2.30175050E-05
  4.10915996E-05  2.32491424E-05  9.36108450E-06  5.43002743E-06 -2.25112093E-05
 -2.30178144E-05  4.10902414E-05  2.32497848E-05 -9.38561864E-06  5.38714183E-06
 -1.15827652E-06 -8.62734375E-08  1.46285575E-06  2.04233019E-10 -4.31918614E-09
 -1.33538003E-04 -1.27524146E-04  9.66263330E-10 -2.75895251E-08  4.01479850E-05
 -1.09706647E-04 -3.37704413E-10 -7.62599952E-10 -1.31523898E-05 -7.31722128E-07
 -7.31824645E-07  2.84555957E-10 -6.78178070E-09 -4.13329118E-12 -2.72174094E-06
 -1.09117772E-05 -1.36962117E-06 -2.81463742E-11  5.70797998E-10  1.57377263E-04
 -8.01181470E-05  1.49383563E-09 -3.68916421E-08  1.02504519E-04  1.68014210E-05
  9.64092120E-10 -1.84229583E-08  3.96945905E-06 -7.69967954E-06 -7.69965995E-06
 -2.87126881E-10  6.95408565E-09 -4.04889785E-13  2.21978967E-06  1.69515963E-05
 -7.56359388E-06  6.96714294E-11 -2.35882482E-09 -1.57865471E-05 -6.58884837E-06
 -1.37804401E-10 -2.62989025E-09  1.18631031E-03  1.33242779E-04  2.82597736E-09
 -7.94840627E-08 -9.14562797E-06  6.57161249E-06  6.57233032E-06 -1.64096513E-10
  1.53446603E-09  2.33447243E-11  1.05494670E-07  1.99280726E-06 -3.62633521E-07
  2.54602184E-11 -3.32896469E-10  3.94038608E-06  1.96473445E-06 -1.46718690E-10
  1.92781127E-09 -4.81386561E-05 -1.73283959E-05  5.13484483E-10 -5.65045290E-09
 -1.51273672E-04 -7.38699150E-05 -2.94820104E-09  7.11474068E-08  5.19621417E-06
  3.47245245E-06  3.47244954E-06  1.80850459E-12  6.47171918E-10  1.14983982E-11
  6.40071085E-06 -6.23608197E-05 -1.85249982E-04 -2.33751139E-06  1.02692289E-08
 -4.49712010E-06  6.38962192E-06 -6.23169497E-05 -1.85475003E-04 -2.33697048E-06
  3.88684119E-06  2.25562671E-06  6.38906031E-06 -6.23154791E-05 -1.85489557E-04
 -2.33691356E-06 -3.89702266E-06  2.23776029E-06  8.42025042E-05  2.05894520E-04
 -2.90418049E-04  4.31838153E-09 -1.08605187E-07 -2.48246206E-04 -4.18288640E-04
  7.09185323E-09 -1.75762226E-07  1.38749821E-03  1.08060880E-03 -1.65031736E-08
  3.98102111E-07 -7.65677732E-04 -1.22312395E-05 -1.22317644E-05  1.33321631E-08
 -3.34570073E-07 -3.83554329E-12  9.92697084E-01  3.44519670E-02 -1.41206482E-03
  2.14409665E-08 -5.36996148E-07  5.21892250E-03  1.12843887E-04 -1.79762065E-09
  4.28131577E-08 -3.03507443E-03  4.45933882E-05 -8.57959684E-10  3.03647084E-08
 -7.70350820E-03 -8.42637684E-03 -8.42637700E-03 -1.26841793E-08  3.18744127E-07
 -1.26161436E-11  9.93010602E-01  4.95648014E-02 -6.14768603E-04 -4.46665658E-09
  5.85700730E-09 -1.64216442E-02  5.98827352E-04  1.38624994E-08 -1.68636450E-08
  6.30602161E-03 -2.69937619E-03  2.12333560E-09  4.08452737E-07 -9.28493830E-03
 -8.80428060E-03 -8.80423655E-03 -3.88303460E-09  6.34238841E-08  3.89466774E-09
 -8.05749797E-06 -5.28257946E-05 -9.84733986E-06 -3.20828876E-10  1.96883241E-09
 -7.09023938E-05  2.01748533E-04  2.58252550E-09 -3.05729943E-08  2.89439692E-03
  1.69831826E-03 -3.85944956E-09 -2.02042157E-07 -4.88545622E-03 -1.70559221E-03
 -2.38778014E-09  2.01773013E-07 -6.31630048E-05 -1.61277827E-04 -1.61281911E-04
 -1.58206567E-09 -1.09759533E-08 -5.68260321E-10 -1.52818298E-04  3.03577509E-03
 -8.89251331E-04  4.03436359E-05  2.48618634E-07 -1.08055548E-04 -1.52788337E-04
  3.03566399E-03 -8.89275349E-04  4.03449109E-05  9.34414254E-05  5.42207180E-05
 -1.52786596E-04  3.03567965E-03 -8.89221365E-04  4.03420770E-05 -9.36853042E-05
  5.37928639E-05 -1.49069146E-05 -9.48425845E-05  4.40235816E-05 -1.52146087E-09
  1.89321551E-08 -6.36599395E-04 -1.18667454E-03  1.71723627E-08 -3.78422008E-07
  1.25626170E-03  8.55377685E-04  1.90208930E-08 -2.71739922E-07  7.57924351E-06
 -3.78453511E-05 -3.78348776E-05  1.17974862E-09 -2.82125064E-08  2.43125079E-10
 -3.89687920E-05 -1.53228412E-04  7.91808100E-06 -1.24480562E-09  3.17873367E-08
  1.57159028E-03 -5.03206653E-04  1.18435922E-08 -3.01297331E-07 -8.80881264E-04
 -2.85515037E-04 -2.23058138E-08  3.92284293E-07 -4.56712922E-05 -8.97306136E-05
 -8.97311984E-05  1.19130962E-10  4.85769457E-09  1.25987126E-11 -2.53475365E-05
 -1.22669420E-04 -9.87245712E-05  2.20877663E-11  3.15069788E-09  4.45183846E-04
  6.90455198E-04  5.44111903E-10 -1.25652220E-07 -2.43468877E-03  6.13773846E-03
  1.13066193E-08 -4.28977789E-07  1.62445981E-05 -3.21696754E-05 -3.21661355E-05
 -1.04292846E-10 -4.74018899E-10  8.30000532E-11  2.04155750E-07  7.46497573E-06
  5.64797561E-06  1.30024566E-10 -3.10247117E-09  1.78281181E-05 -3.71513987E-05
 -8.05195287E-10  1.83855675E-08 -1.80800332E-04  4.16287222E-04  3.92898014E-09
 -8.76710115E-08  7.32248910E-03  1.75438928E-03  6.14501657E-09 -3.33487713E-07
  5.39725237E-05 -1.76235326E-06 -1.75945175E-06  6.07881225E-10 -1.38330262E-08
  1.08200276E-10 -3.97420090E-05 -4.64511666E-04  4.92255996E-05 -2.87772213E-05
  1.82404125E-08 -8.02727644E-06 -3.97751650E-05 -4.64283289E-04  4.92174882E-05
 -2.87262086E-05  6.91895754E-06  4.02565609E-06 -3.97778235E-05 -4.64279899E-04
  4.92073489E-05 -2.87229386E-05 -6.93664277E-06  3.99346902E-06  9.92837031E-01
  4.93797236E-02  1.87149385E-03 -3.12937211E-08  7.78560677E-07 -1.08257566E-02
 -5.92327687E-04  1.99036932E-08 -4.70473048E-07 -8.82531302E-03  3.79524331E-04
  3.39270480E-08 -5.53960387E-07 -8.45350081E-03 -9.72022345E-03 -9.72022413E-03
 -2.21599786E-08  5.56475944E-07 -2.32947780E-11 -4.89597847E-04  6.69700040E-05
  4.35213385E-04 -6.30579090E-09  1.54812678E-07 -1.34040001E-03  6.46189367E-04
 -1.30774315E-08  3.39339101E-07  9.04371408E-03 -3.52048601E-03  4.26447722E-08
 -1.21282417E-06 -2.70530813E-04  1.82862583E-04  1.82862504E-04  8.69686197E-09
 -2.15771165E-07 -5.65247463E-13 -9.36913098E-05  1.37875602E-04  3.15805322E-04
  1.23007826E-09 -3.25152099E-08  2.79082916E-03 -1.54252035E-03 -1.89579959E-08
  1.02028093E-07 -3.25343651E-02  3.84198357E-02  1.15929996E-07 -3.35792887E-06
 -7.04671577E-04 -1.07948786E-04 -1.07946694E-04 -2.74241619E-09  8.99545703E-08
 -1.82748002E-09 -2.84606682E-01  1.02275018E+00  4.44122345E-03  3.49908013E-09
 -6.00112528E-07  7.60233160E-02  5.49674429E-04  1.28405495E-09 -5.95843454E-08
 -2.63579517E-02 -1.62894883E-03 -2.24286432E-09  1.77628048E-07  6.27880276E-02
  1.75287265E-02  6.36048052E-08 -2.80470346E-06 -1.52424335E-02 -1.55683771E-02
 -1.55683745E-02  1.75701457E-09 -6.06839352E-08  1.14486005E-10 -4.51021890E-05
 -7.74856327E-04  1.05565912E-03 -6.52699930E-05 -1.06784491E-08  4.74197513E-06
 -4.51213320E-05 -7.74639150E-04  1.05593770E-03 -6.52340835E-05 -4.11104187E-06
 -2.36644798E-06 -4.51249699E-05 -7.74659168E-04  1.05599820E-03 -6.52253762E-05
  4.12056355E-06 -2.34671356E-06  1.83488068E-05  8.17755321E-05  4.43886001E-05
 -4.27490799E-09  9.55593801E-08  1.07493909E-05  4.19662589E-04  8.12370028E-09
 -1.80543750E-07 -2.39855554E-02  1.18763870E-02  6.88088641E-08  2.98365930E-07
  9.05376154E-05  1.47576651E-05  1.47568762E-05 -7.16478064E-10  1.16706921E-08
 -6.05832204E-11  5.85002134E-06  3.94845106E-05 -1.81119498E-05 -2.26702169E-09
  2.62011673E-08 -5.46558897E-04  4.88542187E-04  1.80150827E-09  1.05016935E-07
  1.09994521E-03 -3.04374932E-03 -4.02151835E-08  4.61141890E-08 -5.38053076E-05
  1.72154683E-05  1.72158848E-05  1.97649674E-09 -4.75982259E-08  2.51920147E-11
  7.06572095E-05  1.46800372E-03  1.67341779E-04 -1.06440284E-09 -4.24088512E-08
 -3.97253947E-04  1.70864758E-03 -1.14835202E-08  1.37005831E-07  4.15617993E-02
 -5.99717536E-02 -1.54120076E-07  4.39856934E-06 -1.76976195E-03  2.20082089E-04
  2.20028615E-04 -6.40015562E-09  2.85915003E-07 -4.82367635E-09  1.30838368E-03
 -4.99833744E-03  9.90360496E-01  1.34544385E-06 -1.24336940E-04 -3.45923014E-04
  3.13962621E-02  4.62955540E-08 -3.96466883E-06  5.00483140E-03 -1.30568145E-02
 -2.10157814E-08  1.63406254E-06 -7.40242914E-02 -1.48029703E-02 -7.51367220E-08
  3.26868531E-06  5.93709284E-04 -4.40100715E-04 -4.40109481E-04  3.13654583E-09
 -1.36659123E-07 -2.40504733E-10 -2.17724353E-04  1.39247207E-03 -5.92496232E-03
 -3.17508110E-04  9.49401552E-08 -4.13950078E-05 -2.17748021E-04  1.39202201E-03
 -5.92624849E-03 -3.17492408E-04  3.58789673E-05  2.08395356E-05 -2.17763172E-04
  1.39199746E-03 -5.92631894E-03 -3.17480802E-04 -3.59780228E-05  2.06779541E-05
 -2.68157117E-05 -1.65228360E-04 -1.04313861E-04  4.42036004E-09 -8.75967216E-08
  3.41585956E-03  2.22241681E-03 -4.68848512E-08  1.13959592E-06  5.02304728E-02
 -1.96212639E-02 -1.60640379E-07  4.21071290E-07  1.22235008E-04 -5.07603466E-05
 -5.07617786E-05 -5.59642914E-09  1.49219598E-07 -8.59202822E-12 -1.41255855E-07
  2.85122659E-05  3.74450468E-05  3.72986256E-09 -4.16598668E-08 -1.52706768E-03
  1.13344706E-03 -3.33483382E-08  5.76246176E-07 -9.59929616E-03  6.38889337E-03
  4.28363105E-08  6.59205145E-07 -1.29178247E-04  2.29038759E-05  2.29017282E-05
  2.21325188E-09 -6.08372939E-08 -1.89748354E-11  1.82138099E-09  1.21609329E-08
  1.35830552E-09 -7.59056369E-05  5.32903864E-06 -7.01955304E-08 -4.43229767E-09
  3.15120378E-04 -2.21288786E-05  1.83384760E-09 -4.81208455E-07  3.76808196E-04
 -2.64176519E-05 -1.55451152E-09  6.45162345E-06 -6.45119500E-06  8.86160883E-05
 -6.22222728E-06 -9.66582289E-05  2.09303345E-10 -2.52908399E-09 -1.00563826E-05
  9.88410940E-01 -6.93853315E-02 -3.60721799E-09 -2.94354604E-07  2.95280148E-02
 -2.07283170E-03  4.69545809E-08  1.17296181E-07 -1.16041632E-02  8.14595269E-04
 -4.87104429E-07 -1.73160977E-07  5.18056456E-03 -3.63664555E-04 -4.91010199E-09
 -3.75401592E-07  3.76116583E-07  2.89666782E-04 -2.03337866E-05  5.55806354E-06
 -4.58026785E-06  4.14980223E-05 -3.35352819E-04 -1.83550129E-05 -2.60403162E-05
  4.73680408E-06 -5.24112055E-05  4.74432745E-04 -3.83924384E-03 -2.10086804E-04
 -5.47880407E-05 -1.48305943E-05  5.69952123E-05 -5.15769919E-04  4.17463281E-03
  2.28436349E-04 -5.73745415E-05  1.97938382E-05 -1.40082268E-09 -5.50564632E-09
  2.96357317E-09  5.29223072E-05 -3.71418262E-06  8.31404477E-08  2.25586419E-08
 -2.10817176E-04  1.47957059E-05  3.27842322E-07 -2.32460828E-07  1.02903351E-03
 -7.22286097E-05  2.65695389E-10 -2.49741190E-07  2.42785566E-07 -2.96116221E-06
  2.07957961E-07  3.68020134E-06  1.67575022E-09  5.77085013E-09 -9.79234041E-10
 -2.16391952E-05  1.51958534E-06 -6.39871152E-08  3.12545882E-08  1.31474375E-04
 -9.23123351E-06  2.09815696E-08  6.15581620E-08 -3.87993899E-04  2.72429349E-05
 -4.42818291E-10 -1.52740816E-07  1.63352439E-07 -1.52351312E-05  1.06918691E-06
  2.36445495E-06 -3.46632726E-09 -2.03485984E-08 -2.36379833E-08 -5.32856380E-06
 -7.59145031E-05  1.78721421E-07  1.28163264E-07  2.21094505E-05  3.15065398E-04
 -8.19110724E-07  4.34909644E-06  2.64689547E-05  3.76574421E-04  9.46496078E-09
 -8.37070939E-05  8.37017569E-05  6.22132888E-06  8.86454090E-05 -7.45402429E-06
 -1.13582845E-08  5.35175658E-08  1.24008836E-04  6.93853317E-02  9.88410934E-01
  2.58033024E-08  3.67351782E-06  2.07283435E-03  2.95280073E-02 -2.88487562E-07
 -1.34873410E-06 -8.14601072E-04 -1.16041352E-02  4.64525793E-06  1.76698608E-06
  3.63675671E-04  5.18057405E-03  8.33926661E-08  4.86250306E-06 -4.90472060E-06
  2.03348980E-05  2.89668522E-04  4.29344680E-07  6.31420733E-05 -5.71998681E-04
  4.62647016E-03  2.53191552E-04 -1.73506356E-06 -6.61476492E-05 -3.55373717E-05
  3.21553261E-04 -2.60365214E-03 -1.42497135E-04 -2.13188365E-05 -3.73324126E-05
 -2.76121862E-05  2.49754308E-04 -2.02260929E-03 -1.10701040E-04  1.33491599E-05
 -3.47429596E-05  1.12986240E-08  4.27247147E-08 -2.30739447E-08  3.71528903E-06