RxCoord=2.29938 DE=47.95                                                
Freq      RB3LYP                                                      6-31++G(d,p)        
Number of atoms                            I                7
Info1-9                                    I   N=           9
          16          16           0           0           0         100
           6          18        -502
Full Title                                 C   N=           2
RxCoord=2.29938 DE=47.95
Route                                      C   N=           6
#p b3lyp 6-31++g(d,p) scf=verytight NoSymm freq=noraman int=
ultrafine   
Charge                                     I               -1
Multiplicity                               I                1
Number of electrons                        I               40
Number of alpha electrons                  I               20
Number of beta electrons                   I               20
Number of basis functions                  I               98
Number of independent functions            I               98
Number of point charges in /Mol/           I                0
Number of translation vectors              I                0
Atomic numbers                             I   N=           7
           6          17           1           1           1           6
           7
Nuclear charges                            R   N=           7
  6.00000000E+00  1.70000000E+01  1.00000000E+00  1.00000000E+00  1.00000000E+00
  6.00000000E+00  7.00000000E+00
Current cartesian coordinates              R   N=          21
 -5.59727429E-01  5.66917837E-06 -3.28812346E-04 -4.07819716E+00 -3.77945225E-06
  9.82657585E-05  3.38601127E-02  4.46920228E-03 -1.95908663E+00  3.40849901E-02
  1.69405632E+00  9.82903249E-01  3.41076668E-02 -1.69851608E+00  9.75149703E-01
  4.53896152E+00  2.26767135E-05 -4.30857556E-04  6.76681634E+00 -1.51178090E-05
  4.79990436E-04
Number of symbols in /Mol/                 I                0
Force Field                                I                0
Atom Types                                 C   N=           7
                                                            
                        
Int Atom Types                             I   N=           7
           0           0           0           0           0           0
           0
MM charges                                 R   N=           7
  0.00000000E+00  0.00000000E+00  0.00000000E+00  0.00000000E+00  0.00000000E+00
  0.00000000E+00  0.00000000E+00
Integer atomic weights                     I   N=           7
          12          35           1           1           1          12
          14
Real atomic weights                        R   N=           7
  1.20000000E+01  3.49688527E+01  1.00782504E+00  1.00782504E+00  1.00782504E+00
  1.20000000E+01  1.40030740E+01
Atom fragment info                         I   N=           7
           0           0           0           0           0           0
           0
Atom residue num                           I   N=           7
           0           0           0           0           0           0
           0
Nuclear spins                              I   N=           7
           0           3           1           1           1           0
           2
Nuclear ZEff                               R   N=           7
 -3.60000000E+00 -1.42400000E+01 -1.00000000E+00 -1.00000000E+00 -1.00000000E+00
 -3.60000000E+00 -4.55000000E+00
Nuclear ZNuc                               R   N=           7
  6.00000000E+00  1.70000000E+01  1.00000000E+00  1.00000000E+00  1.00000000E+00
  6.00000000E+00  7.00000000E+00
Nuclear QMom                               R   N=           7
  0.00000000E+00 -8.16500000E+00  0.00000000E+00  0.00000000E+00  0.00000000E+00
  0.00000000E+00  2.04400000E+00
Nuclear GFac                               R   N=           7
  0.00000000E+00  8.21874000E-01  2.79284600E+00  2.79284600E+00  2.79284600E+00
  0.00000000E+00  4.03761000E-01
MicOpt                                     I   N=           7
          -1          -1          -1          -1          -1          -1
          -1
Number of residues                         I                0
Number of secondary structures             I                0
Number of contracted shells                I               33
Number of primitive shells                 I               72
Pure/Cartesian d shells                    I                1
Pure/Cartesian f shells                    I                0
Highest angular momentum                   I                2
Largest degree of contraction              I                6
Shell types                                I   N=          33
           0          -1          -1          -1           2           0
          -1          -1          -1          -1           2           0
           0           0           1           0           0           0
           1           0           0           0           1           0
          -1          -1          -1           2           0          -1
          -1          -1           2
Number of primitives per shell             I   N=          33
           6           3           1           1           1           6
           6           3           1           1           1           3
           1           1           1           3           1           1
           1           3           1           1           1           6
           3           1           1           1           6           3
           1           1           1
Shell to atom map                          I   N=          33
           1           1           1           1           1           2
           2           2           2           2           2           3
           3           3           3           4           4           4
           4           5           5           5           5           6
           6           6           6           6           7           7
           7           7           7
Primitive exponents                        R   N=          72
  3.04752488E+03  4.57369518E+02  1.03948685E+02  2.92101553E+01  9.28666296E+00
  3.16392696E+00  7.86827235E+00  1.88128854E+00  5.44249258E-01  1.68714478E-01
  4.38000000E-02  8.00000000E-01  2.51801000E+04  3.78035000E+03  8.60474000E+02
  2.42145000E+02  7.73349000E+01  2.62470000E+01  4.91765000E+02  1.16984000E+02
  3.74153000E+01  1.37834000E+01  5.45215000E+00  2.22588000E+00  3.18649000E+00
  1.14427000E+00  4.20377000E-01  1.42657000E-01  4.83000000E-02  7.50000000E-01
  1.87311370E+01  2.82539436E+00  6.40121692E-01  1.61277759E-01  3.60000000E-02
  1.10000000E+00  1.87311370E+01  2.82539436E+00  6.40121692E-01  1.61277759E-01
  3.60000000E-02  1.10000000E+00  1.87311370E+01  2.82539436E+00  6.40121692E-01
  1.61277759E-01  3.60000000E-02  1.10000000E+00  3.04752488E+03  4.57369518E+02
  1.03948685E+02  2.92101553E+01  9.28666296E+00  3.16392696E+00  7.86827235E+00
  1.88128854E+00  5.44249258E-01  1.68714478E-01  4.38000000E-02  8.00000000E-01
  4.17351146E+03  6.27457911E+02  1.42902093E+02  4.02343293E+01  1.28202129E+01
  4.39043701E+00  1.16263619E+01  2.71627981E+00  7.72218397E-01  2.12031498E-01
  6.39000000E-02  8.00000000E-01
Contraction coefficients                   R   N=          72
  1.83473713E-03  1.40373228E-02  6.88426223E-02  2.32184443E-01  4.67941348E-01
  3.62311985E-01 -1.19332420E-01 -1.60854152E-01  1.14345644E+00  1.00000000E+00
  1.00000000E+00  1.00000000E+00  1.83295985E-03  1.40341988E-02  6.90973943E-02
  2.37451980E-01  4.83033960E-01  3.39855972E-01 -2.29739142E-03 -3.07137189E-02
 -1.12528069E-01  4.50163278E-02  5.89353363E-01  4.65206287E-01 -2.51828028E-01
  6.15892514E-02  1.06018433E+00  1.00000000E+00  1.00000000E+00  1.00000000E+00
  3.34946043E-02  2.34726953E-01  8.13757326E-01  1.00000000E+00  1.00000000E+00
  1.00000000E+00  3.34946043E-02  2.34726953E-01  8.13757326E-01  1.00000000E+00
  1.00000000E+00  1.00000000E+00  3.34946043E-02  2.34726953E-01  8.13757326E-01
  1.00000000E+00  1.00000000E+00  1.00000000E+00  1.83473713E-03  1.40373228E-02
  6.88426223E-02  2.32184443E-01  4.67941348E-01  3.62311985E-01 -1.19332420E-01
 -1.60854152E-01  1.14345644E+00  1.00000000E+00  1.00000000E+00  1.00000000E+00
  1.83477216E-03  1.39946270E-02  6.85865518E-02  2.32240873E-01  4.69069948E-01
  3.60455199E-01 -1.14961182E-01 -1.69117479E-01  1.14585195E+00  1.00000000E+00
  1.00000000E+00  1.00000000E+00
P(S=P) Contraction coefficients            R   N=          72
  0.00000000E+00  0.00000000E+00  0.00000000E+00  0.00000000E+00  0.00000000E+00
  0.00000000E+00  6.89990666E-02  3.16423961E-01  7.44308291E-01  1.00000000E+00
  1.00000000E+00  0.00000000E+00  0.00000000E+00  0.00000000E+00  0.00000000E+00
  0.00000000E+00  0.00000000E+00  0.00000000E+00  3.98940088E-03  3.03177067E-02
  1.29880029E-01  3.27951072E-01  4.53527100E-01  2.52154056E-01 -1.42993147E-02
  3.23572333E-01  7.43507765E-01  1.00000000E+00  1.00000000E+00  0.00000000E+00
  0.00000000E+00  0.00000000E+00  0.00000000E+00  0.00000000E+00  0.00000000E+00
  0.00000000E+00  0.00000000E+00  0.00000000E+00  0.00000000E+00  0.00000000E+00
  0.00000000E+00  0.00000000E+00  0.00000000E+00  0.00000000E+00  0.00000000E+00
  0.00000000E+00  0.00000000E+00  0.00000000E+00  0.00000000E+00  0.00000000E+00
  0.00000000E+00  0.00000000E+00  0.00000000E+00  0.00000000E+00  6.89990666E-02
  3.16423961E-01  7.44308291E-01  1.00000000E+00  1.00000000E+00  0.00000000E+00
  0.00000000E+00  0.00000000E+00  0.00000000E+00  0.00000000E+00  0.00000000E+00
  0.00000000E+00  6.75797439E-02  3.23907296E-01  7.40895140E-01  1.00000000E+00
  1.00000000E+00  0.00000000E+00
Coordinates of each shell                  R   N=          99
 -5.59727429E-01  5.66917837E-06 -3.28812346E-04 -5.59727429E-01  5.66917837E-06
 -3.28812346E-04 -5.59727429E-01  5.66917837E-06 -3.28812346E-04 -5.59727429E-01
  5.66917837E-06 -3.28812346E-04 -5.59727429E-01  5.66917837E-06 -3.28812346E-04
 -4.07819716E+00 -3.77945225E-06  9.82657585E-05 -4.07819716E+00 -3.77945225E-06
  9.82657585E-05 -4.07819716E+00 -3.77945225E-06  9.82657585E-05 -4.07819716E+00
 -3.77945225E-06  9.82657585E-05 -4.07819716E+00 -3.77945225E-06  9.82657585E-05
 -4.07819716E+00 -3.77945225E-06  9.82657585E-05  3.38601127E-02  4.46920228E-03
 -1.95908663E+00  3.38601127E-02  4.46920228E-03 -1.95908663E+00  3.38601127E-02
  4.46920228E-03 -1.95908663E+00  3.38601127E-02  4.46920228E-03 -1.95908663E+00
  3.40849901E-02  1.69405632E+00  9.82903249E-01  3.40849901E-02  1.69405632E+00
  9.82903249E-01  3.40849901E-02  1.69405632E+00  9.82903249E-01  3.40849901E-02
  1.69405632E+00  9.82903249E-01  3.41076668E-02 -1.69851608E+00  9.75149703E-01
  3.41076668E-02 -1.69851608E+00  9.75149703E-01  3.41076668E-02 -1.69851608E+00
  9.75149703E-01  3.41076668E-02 -1.69851608E+00  9.75149703E-01  4.53896152E+00
  2.26767135E-05 -4.30857556E-04  4.53896152E+00  2.26767135E-05 -4.30857556E-04
  4.53896152E+00  2.26767135E-05 -4.30857556E-04  4.53896152E+00  2.26767135E-05
 -4.30857556E-04  4.53896152E+00  2.26767135E-05 -4.30857556E-04  6.76681634E+00
 -1.51178090E-05  4.79990436E-04  6.76681634E+00 -1.51178090E-05  4.79990436E-04
  6.76681634E+00 -1.51178090E-05  4.79990436E-04  6.76681634E+00 -1.51178090E-05
  4.79990436E-04  6.76681634E+00 -1.51178090E-05  4.79990436E-04
Num ILSW                                   I              100
ILSW                                       I   N=         100
           0           1           0           0           2           0
           0           0           0           0         402          -1
           5           0           0           0           2           0
           0           0           0           0           1           0
           1           1           0           0           0           0
           0           0      100000           0          -1           0
           0           0           0           0           0           0
           0           0           0           1           0           0
           0 -2000000000           1           0           0           0
           0           0           4          52           0           0
           0           0           5           0           0           0
           0           0           0           7           0           1
           0           0           0           0           0           0
           0           0           0           0           0           0
           0           0           0           0           0           0
           0           0           0           0           0           0
           0           0           0           0
Num RLSW                                   I               52
RLSW                                       R   N=          52
  8.00000000E-01  7.20000000E-01  1.00000000E+00  8.10000000E-01  2.00000000E-01
  0.00000000E+00  0.00000000E+00  1.00000000E+00  0.00000000E+00  0.00000000E+00
  0.00000000E+00  0.00000000E+00  1.00000000E+00  0.00000000E+00  0.00000000E+00
  0.00000000E+00  0.00000000E+00  1.00000000E+00  0.00000000E+00  0.00000000E+00
  0.00000000E+00  0.00000000E+00  1.00000000E+00  0.00000000E+00  0.00000000E+00
  0.00000000E+00  0.00000000E+00  1.00000000E+00  0.00000000E+00  0.00000000E+00
  0.00000000E+00  0.00000000E+00  1.00000000E+00  0.00000000E+00  0.00000000E+00
  0.00000000E+00  0.00000000E+00  0.00000000E+00  1.00000000E+00  1.00000000E+00
  0.00000000E+00  1.00000000E+00  0.00000000E+00  0.00000000E+00  0.00000000E+00
  0.00000000E+00  0.00000000E+00  0.00000000E+00  0.00000000E+00  0.00000000E+00
  0.00000000E+00  0.00000000E+00
MxBond                                     I                4
NBond                                      I   N=           7
           4           1           1           1           1           1
           1
IBond                                      I   N=          28
           2           3           4           5           1           0
           0           0           1           0           0           0
           1           0           0           0           1           0
           0           0           7           0           0           0
           6           0           0           0
RBond                                      R   N=          28
  1.00000000E+00  1.00000000E+00  1.00000000E+00  1.00000000E+00  1.00000000E+00
  0.00000000E+00  0.00000000E+00  0.00000000E+00  1.00000000E+00  0.00000000E+00
  0.00000000E+00  0.00000000E+00  1.00000000E+00  0.00000000E+00  0.00000000E+00
  0.00000000E+00  1.00000000E+00  0.00000000E+00  0.00000000E+00  0.00000000E+00
  2.00000000E+00  0.00000000E+00  0.00000000E+00  0.00000000E+00  2.00000000E+00
  0.00000000E+00  0.00000000E+00  0.00000000E+00
Virial Ratio                               R      2.004506820158654E+00
SCF Energy                                 R     -5.929928531897783E+02
Total Energy                               R     -5.929928531897783E+02
RMS Force                                  R      2.687753903162688E-03
RMS Density                                R      2.277990943831455E-09
NImag                                      I                2
Job Status                                 I                1
Nuclear derivative order                   I                2
External E-field                           R   N=          35
  0.00000000E+00  0.00000000E+00  0.00000000E+00  0.00000000E+00  0.00000000E+00
  0.00000000E+00  0.00000000E+00  0.00000000E+00  0.00000000E+00  0.00000000E+00
  0.00000000E+00  0.00000000E+00  0.00000000E+00  0.00000000E+00  0.00000000E+00
  0.00000000E+00  0.00000000E+00  0.00000000E+00  0.00000000E+00  0.00000000E+00
  0.00000000E+00  0.00000000E+00  0.00000000E+00  0.00000000E+00  0.00000000E+00
  0.00000000E+00  0.00000000E+00  0.00000000E+00  0.00000000E+00  0.00000000E+00
  0.00000000E+00  0.00000000E+00  0.00000000E+00  0.00000000E+00  0.00000000E+00
IOpCl                                      I                0
IROHF                                      I                0
Alpha Orbital Energies                     R   N=          98
 -1.01400628E+02 -1.40978634E+01 -1.00968214E+01 -9.96224525E+00 -9.31676057E+00
 -7.07953151E+00 -7.07154928E+00 -7.07154925E+00 -7.02705816E-01 -6.51691194E-01
 -5.35684353E-01 -3.02076029E-01 -3.02068840E-01 -2.67010240E-01 -1.84677448E-01
 -1.68920602E-01 -1.68918640E-01 -1.00545467E-01 -1.00545405E-01 -7.15715306E-02
  1.11378971E-01  1.30798224E-01  1.46915102E-01  1.46920068E-01  1.71515011E-01
  2.03964198E-01  2.05523703E-01  2.05524035E-01  2.21818886E-01  2.21827428E-01
  2.44783721E-01  2.50968280E-01  2.50968545E-01  2.71379620E-01  2.73293571E-01
  2.73295678E-01  3.15051685E-01  3.39996552E-01  3.39999903E-01  3.64904610E-01
  3.85159586E-01  3.86059286E-01  3.86067471E-01  4.67331629E-01  4.82184136E-01
  6.72060807E-01  7.42560982E-01  7.49923660E-01  7.49925302E-01  7.79451359E-01
  7.79453129E-01  8.86404916E-01  8.95553260E-01  8.95554906E-01  9.86895429E-01
  1.00318786E+00  1.00319190E+00  1.05334569E+00  1.05335232E+00  1.08120606E+00
  1.09899872E+00  1.09901567E+00  1.12310362E+00  1.19010094E+00  1.19010364E+00
  1.26569937E+00  1.28388080E+00  1.36388179E+00  1.48738172E+00  1.60620013E+00
  1.60621511E+00  1.77825214E+00  1.77825390E+00  1.79640709E+00  1.80165389E+00
  1.80165621E+00  2.15813698E+00  2.19907105E+00  2.19907476E+00  2.21860770E+00
  2.21862685E+00  2.27372035E+00  2.50599234E+00  2.50602202E+00  2.65847041E+00
  2.83225438E+00  2.83225597E+00  2.84841260E+00  2.96320758E+00  2.96322758E+00
  3.26415477E+00  3.39816162E+00  3.56267602E+00  3.56268395E+00  4.21607803E+00
  4.43027509E+00  4.46336876E+00  4.57007245E+00
Alpha MO coefficients                      R   N=        9604
 -5.92882985E-06  1.18036358E-05 -4.94099755E-05 -1.41693591E-10  4.97055467E-09
  9.07093137E-05 -6.12619081E-05 -2.90554434E-10  9.30945943E-09 -5.63259368E-05
 -1.32510227E-04 -9.20309115E-10  1.09370320E-08  1.09501230E-06  1.44541585E-05
  1.44581075E-05 -1.87532486E-10  5.39666306E-10  2.67816329E-10  9.95996998E-01
  1.51508223E-02  3.76620094E-05  4.23485026E-11 -5.31025437E-09 -2.10611368E-02
 -1.81020343E-05 -6.20139669E-11  2.22235481E-09  1.87438477E-03 -5.82125879E-05
 -5.64265173E-11  7.39266225E-09 -4.47487325E-04 -2.83385044E-05  2.88908273E-11
  3.25753979E-09  7.49900354E-03  7.52515949E-03  7.52515951E-03 -6.48445126E-11
  3.43047764E-09  2.18875615E-12 -2.35315166E-05 -2.46605343E-05  4.10416870E-05
  2.33897012E-05  2.56248368E-08 -1.11898910E-05 -2.35350708E-05 -2.46575395E-05
  4.10423649E-05  2.33874626E-05  9.67477134E-06  5.61181256E-06 -2.35347357E-05
 -2.46575349E-05  4.10409364E-05  2.33879003E-05 -9.70005560E-06  5.56754219E-06
 -1.08342160E-06  2.09072014E-07  1.32641647E-06  2.32218561E-10 -4.71183400E-09
 -1.31436104E-04 -1.23446612E-04  1.03322432E-09 -2.83226653E-08  3.91807302E-05
 -1.08838316E-04 -5.43180140E-10  1.93930730E-09 -1.30829167E-05 -5.75216827E-07
 -5.75230857E-07  3.02996383E-10 -6.98711190E-09 -1.59632702E-12 -2.64229863E-06
 -1.05568605E-05 -1.37513543E-06 -2.40126635E-11  4.75118138E-10  1.52998438E-04
 -7.83812594E-05  1.60205714E-09 -3.81133745E-08  1.01480827E-04  1.68118415E-05
  1.15280554E-09 -2.09852586E-08  3.99944518E-06 -7.52608254E-06 -7.52607500E-06
 -3.17809483E-10  7.37712068E-09 -7.92201610E-13  2.45015062E-06  1.70836909E-05
 -6.38092203E-06  1.08068853E-10 -3.02448921E-09 -1.87174246E-05 -1.00062730E-05
 -3.78947576E-10  4.58980186E-09  1.18758579E-03  1.14577270E-04  3.69544947E-09
 -8.61954905E-08 -8.01342844E-06  7.02863339E-06  7.02882583E-06 -1.34163071E-10
  1.11519034E-09  1.37789451E-11  1.05047218E-07  2.01122906E-06 -3.67819226E-07
  2.45743582E-11 -3.20079040E-10  3.99797291E-06  2.04568382E-06 -1.41946670E-10
  1.86399945E-09 -4.85696278E-05 -1.89205344E-05  5.26865326E-10 -6.12696095E-09
 -1.73840736E-04 -7.92890223E-05 -3.38669619E-09  7.85341473E-08  4.98611452E-06
  3.56843757E-06  3.56827161E-06 -6.46286820E-12  7.25969900E-10  7.57202298E-12
  6.76245103E-06 -6.05956674E-05 -1.86274848E-04 -2.03134817E-06  9.88504524E-09
 -4.33612177E-06  6.75310501E-06 -6.05604523E-05 -1.86495842E-04 -2.02862895E-06
  3.74750412E-06  2.17465675E-06  6.75266335E-06 -6.05591733E-05 -1.86509738E-04
 -2.02843272E-06 -3.75726927E-06  2.15743833E-06  8.41653067E-05  2.06136262E-04
 -2.88990080E-04  4.76115603E-09 -1.15026365E-07 -2.49658800E-04 -4.20285502E-04
  7.95652171E-09 -1.88988842E-07  1.40877398E-03  1.06764961E-03 -1.77273380E-08
  4.14847839E-07 -7.64345594E-04 -1.23929738E-05 -1.23933387E-05  1.47750200E-08
 -3.55917109E-07  1.68984134E-12  9.92697017E-01  3.44509673E-02 -1.40925795E-03
  2.37978703E-08 -5.72143834E-07  5.22106517E-03  1.11056646E-04 -1.97073686E-09
  4.52508784E-08 -3.03413373E-03  4.81663701E-05 -1.23099769E-09  3.64715630E-08
 -7.70458355E-03 -8.42628008E-03 -8.42628023E-03 -1.40651100E-08  3.39233346E-07
 -1.37146529E-11  9.93006376E-01  4.95876761E-02 -6.35222481E-04 -6.66479598E-09
  7.11729918E-08 -1.64504215E-02  6.43800572E-04  2.07127617E-08 -2.87135050E-07
  6.30734652E-03 -2.63668527E-03  7.73214391E-09  2.64271978E-07 -9.28420588E-03
 -8.81838954E-03 -8.81833677E-03 -2.56541899E-09  3.90928820E-08  3.88139815E-09
 -8.25677916E-06 -5.13869907E-05 -7.70636341E-06 -1.99820098E-10 -5.80251094E-10
 -5.43519300E-05  1.96779987E-04  1.77572357E-09 -1.52115853E-08  2.94944311E-03
  1.73184976E-03 -2.91573800E-09 -2.18190370E-07 -4.85534838E-03 -1.69214976E-03
 -3.50896514E-09  2.36548137E-07 -8.19841664E-05 -1.63712840E-04 -1.63709570E-04
 -1.43743425E-09 -9.20091337E-09 -4.15338874E-10 -1.51250102E-04  3.03556234E-03
 -8.81462535E-04  3.86180813E-05  2.40218781E-07 -1.04822015E-04 -1.51211485E-04
  3.03572426E-03 -8.81466219E-04  3.86248138E-05  9.06464079E-05  5.26153691E-05
 -1.51209341E-04  3.03574466E-03 -8.81414573E-04  3.86228064E-05 -9.08845697E-05
  5.22014178E-05 -1.53294200E-05 -8.97884746E-05  4.38747265E-05 -5.93448038E-10
  4.17777654E-09 -5.84236798E-04 -1.11701704E-03  1.31735092E-08 -3.05937875E-07
  1.20899646E-03  8.83148084E-04  1.35946000E-08 -1.69321701E-07  3.64148207E-06
 -3.77207765E-05 -3.77163574E-05  1.63309416E-09 -3.48990378E-08  7.33786729E-11
 -3.73064371E-05 -1.45669835E-04  6.26877810E-06 -1.64284888E-09  3.70567053E-08
  1.48903504E-03 -4.68776052E-04  1.42060345E-08 -3.30216567E-07 -9.00410915E-04
 -2.89291824E-04 -2.02173419E-08  3.49159841E-07 -4.38795797E-05 -8.63071848E-05
 -8.63071884E-05 -2.02581676E-10  9.76553006E-09  2.60457395E-11 -2.42882822E-05
 -1.17891274E-04 -9.91832283E-05  2.85584246E-10 -2.55101330E-09  4.43001035E-04
  6.80528589E-04 -2.63945144E-09 -5.08651895E-08 -2.44969718E-03  5.82050763E-03
  1.13063195E-08 -4.17448277E-07  1.07952729E-05 -3.17974948E-05 -3.17946710E-05
 -2.41776594E-10  3.67848217E-09  3.05154377E-11  1.92343477E-07  7.24390422E-06
  5.34425718E-06  9.25819615E-11 -2.42786463E-09  1.71852494E-05 -3.52866425E-05
 -5.90343250E-10  1.45394805E-08 -1.69283680E-04  4.07279718E-04  3.40339451E-09
 -8.01898318E-08  7.05963710E-03  1.68133203E-03  4.26922033E-09 -3.02015393E-07
  5.29360295E-05 -1.90719030E-06 -1.90573432E-06  5.54578394E-10 -1.34976709E-08
  7.41544464E-11 -3.97444328E-05 -4.65810943E-04  2.72056755E-05 -2.95820295E-05
  2.08992349E-08 -9.10127443E-06 -3.97736182E-05 -4.65680360E-04  2.73211782E-05
 -2.95583148E-05  7.85980729E-06  4.56626948E-06 -3.97759972E-05 -4.65681764E-04
  2.73202721E-05 -2.95567515E-05 -7.88043835E-06  4.53040318E-06  9.92837565E-01
  4.93725686E-02  1.87697000E-03 -3.48771986E-08  8.31409476E-07 -1.08535791E-02
 -6.31585824E-04  2.32514028E-08 -5.22627201E-07 -8.48344919E-03  2.18519387E-04
  4.42470726E-08 -7.13526206E-07 -8.45316838E-03 -9.71859504E-03 -9.71859424E-03
 -2.47202048E-08  5.94754965E-07  1.12140702E-11 -4.90100106E-04  6.27133456E-05
  4.36910960E-04 -7.05558529E-09  1.66392874E-07 -1.28995658E-03  6.24226913E-04
 -1.40004933E-08  3.49007278E-07  9.02606466E-03 -3.47908291E-03  4.40404851E-08
 -1.23288043E-06 -2.72725679E-04  1.80676314E-04  1.80676179E-04  9.70786489E-09
 -2.30740826E-07  6.77746061E-14 -9.70114989E-05  1.37438908E-04  3.27289638E-04
  1.43465136E-09 -3.97046646E-08  2.83467286E-03 -1.53452330E-03 -1.78751752E-08
  9.53914408E-08 -3.39715750E-02  3.85270540E-02  1.11094328E-07 -3.29612243E-06
 -7.20449737E-04 -1.11737952E-04 -1.11711039E-04 -2.55460852E-09  9.24108801E-08
 -1.34003407E-09 -2.84605868E-01  1.02274898E+00  4.52945879E-03  4.19916362E-09
 -6.41249846E-07  7.60356691E-02  5.59087431E-04  1.25678642E-09 -5.98713454E-08
 -2.64387020E-02 -1.63223411E-03 -2.38637783E-09  1.83752146E-07  6.37414887E-02
  1.77192993E-02  4.99665527E-08 -2.66453382E-06 -1.52284101E-02 -1.55698894E-02
 -1.55698862E-02  1.49726342E-09 -5.94790183E-08  1.10322172E-10 -4.34822914E-05
 -7.76915014E-04  1.11818190E-03 -6.71097100E-05 -1.36984053E-08  6.14659419E-06
 -4.34863996E-05 -7.76677213E-04  1.11826912E-03 -6.71375958E-05 -5.32492172E-06
 -3.07409170E-06 -4.34891390E-05 -7.76696072E-04  1.11832273E-03 -6.71324234E-05
  5.33767831E-06 -3.04866329E-06  1.81044288E-05  8.06708441E-05  4.48798219E-05
 -5.60114683E-09  1.15960454E-07  5.59183317E-05  4.48610707E-04  1.18941426E-08
 -2.36976714E-07 -2.36523420E-02  1.17682164E-02  1.08614118E-07 -2.35543172E-07
  9.04615035E-05  1.39726137E-05  1.39733419E-05 -1.00862577E-09  1.61126314E-08
 -1.91521473E-11  7.35218050E-06  4.49595350E-05 -1.82176864E-05 -2.78387444E-09
  3.23044940E-08 -6.02720537E-04  5.06765194E-04  2.77345183E-09  1.01721501E-07
  1.11886375E-03 -3.04653079E-03 -6.09226397E-08  3.21658198E-07 -5.18688449E-05
  2.07439613E-05  2.07439879E-05  2.50989604E-09 -5.62271584E-08  1.85310697E-11
  6.81137796E-05  1.49147928E-03  2.11251457E-04 -1.42536998E-09 -3.32943551E-08
 -4.28313131E-04  1.74532299E-03  8.27140236E-10 -1.48604697E-07  4.33667536E-02
 -5.95575841E-02 -1.60424081E-07  4.64908432E-06 -1.82483694E-03  2.11909598E-04
  2.11925715E-04 -5.51731477E-09  2.89089998E-07 -3.01592217E-09  1.33441297E-03
 -5.09962792E-03  9.90350586E-01  1.47221526E-06 -1.31616753E-04 -3.71908228E-04
  3.14280089E-02  4.87398444E-08 -4.16273107E-06  5.13152918E-03 -1.30170707E-02
 -2.10996861E-08  1.68797176E-06 -7.47641351E-02 -1.49228959E-02 -5.52946158E-08
  3.02899547E-06  6.30769132E-04 -4.51419746E-04 -4.51425951E-04  2.54060850E-09
 -1.30971900E-07 -1.78313404E-10 -2.11692297E-04  1.38872616E-03 -5.93876729E-03
 -3.20224594E-04  8.93347280E-08 -3.92638589E-05 -2.11556683E-04  1.38843097E-03
 -5.94024177E-03 -3.20311291E-04  3.40186213E-05  1.97736133E-05 -2.11563265E-04
  1.38841403E-03 -5.94030875E-03 -3.20305242E-04 -3.41117617E-05  1.96196031E-05
 -2.57722984E-05 -1.63511655E-04 -1.04536893E-04  5.77290268E-09 -1.05862957E-07
  3.41271393E-03  2.23580789E-03 -5.56498494E-08  1.26726076E-06  4.90961150E-02
 -1.92150457E-02 -2.28845733E-07  1.37673595E-06  1.29622804E-04 -4.93474073E-05
 -4.93500446E-05 -5.91833675E-09  1.54273268E-07 -4.07194674E-11  2.62191598E-07
  3.00303584E-05  3.79456153E-05  4.64478940E-09 -5.36625968E-08 -1.54844874E-03
  1.14942057E-03 -3.98185863E-08  6.69246795E-07 -9.52837146E-03  6.31496691E-03
  7.40145737E-08  2.26715054E-07 -1.31671003E-04  2.44889142E-05  2.44874386E-05
  2.26080394E-09 -6.26804039E-08 -6.48260632E-12  1.09435929E-08  7.16935234E-08
 -1.16979779E-08  7.15123362E-07 -7.82033425E-05 -2.51082813E-07  8.30019792E-08
 -2.88920497E-06  3.15163189E-04  4.12749341E-07  8.76641211E-07 -3.52102910E-06
  3.87421264E-04  1.53474372E-08 -8.44878882E-05  8.44807849E-05 -9.41691422E-07
  1.03077503E-04  2.23247961E-07 -9.13066277E-09  3.73678590E-08  1.31683741E-04
 -9.05894817E-03  9.90800969E-01  1.50261239E-08  3.94638763E-06 -2.70656256E-04
  2.96025113E-02 -5.44202152E-08 -1.49070349E-06  1.06382770E-04 -1.16356494E-02
  8.92748236E-07  8.47876931E-07 -4.75013570E-05  5.19603923E-03  9.07254544E-08
  4.88687997E-06 -4.95561349E-06 -2.72003957E-06  2.97545394E-04 -1.20555408E-08
  6.22467030E-05 -5.75710320E-04  4.66308372E-03  2.57691951E-04  3.21469705E-07
 -6.31547904E-05 -3.07197870E-05  2.84458155E-04 -2.30405770E-03 -1.27355169E-04
 -1.57273846E-05 -3.50303088E-05 -3.14632849E-05  2.91295077E-04 -2.35938224E-03
 -1.30414253E-04  1.66237571E-05 -3.51785398E-05  7.40783549E-09  2.58456044E-08
 -2.98047850E-08 -4.79752515E-07  5.24943713E-05 -6.34207634E-07 -2.67722427E-07
  1.90347662E-06 -2.08444998E-04 -4.32177318E-07  8.15820553E-07 -9.40287364E-06
  1.03082194E-03 -7.30862895E-09  3.27358695E-06 -3.22674147E-06  2.93577220E-08
 -3.24908872E-06 -8.24003221E-09 -1.56896599E-08 -5.61057143E-08  1.18277169E-08
  1.96016184E-07 -2.15420253E-05  6.23762435E-07 -3.15001587E-07 -1.19203971E-06
  1.30938674E-04 -3.88167598E-07 -2.09038177E-07  3.55953482E-06 -3.91280967E-04
  7.10893830E-09  1.98595197E-06 -2.08399609E-06  1.37714631E-07 -1.50751440E-05
 -5.31197880E-09  9.30053904E-10  6.70250845E-09 -1.27338116E-09 -7.82086106E-05
 -7.14959372E-07 -3.81943353E-08  9.98030513E-09  3.15071179E-04  2.87305912E-06
 -9.13038127E-08  3.77263414E-09  3.87425505E-04  3.56343401E-06 -9.76037990E-10
 -1.94651765E-07  1.94336054E-07  1.03049814E-04  9.42942519E-07 -9.76170032E-05
 -7.18688660E-10  2.13577190E-09 -2.69938818E-07  9.90800977E-01  9.05894781E-03
 -1.11716657E-09 -5.98834973E-09  2.96025134E-02  2.70658552E-04  1.53525239E-08
  1.35733254E-08 -1.16356458E-02 -1.06387968E-04  2.85775254E-08  3.19693010E-09
  5.19603315E-03  4.75139321E-05  1.78612651E-09  1.10877977E-08 -1.29004890E-08
  2.97550800E-04  2.72095737E-06  5.60028601E-06  4.24570287E-07 -3.92901971E-06
  3.20591234E-05  1.76860310E-06 -2.57886708E-05 -4.91101237E-07 -5.40708544E-05
  5.00689229E-04 -4.05440094E-03 -2.24091504E-04 -5.38849544E-05 -1.65267591E-05
  5.36472197E-05 -4.96689481E-04  4.02240349E-03  2.22318932E-04 -5.37326343E-05
  1.57966114E-05 -3.21763033E-10 -1.37386854E-09  1.40356457E-09  5.25009944E-05