 Entering Gaussian System, Link 0=g16
 Initial command:
 /usr/local/g16_AVX//g16/l1.exe "/scratch/alanqf/0124-54566.ixchel.mda.cinvestav.mx/Gau-25389.inp" -scrdir="/scratch/alanqf/0124-54566.ixchel.mda.cinvestav.mx/"
 Entering Link 1 = /usr/local/g16_AVX//g16/l1.exe PID=     25390.
  
 Copyright (c) 1988-2017, Gaussian, Inc.  All Rights Reserved.
  
 This is part of the Gaussian(R) 16 program.  It is based on
 the Gaussian(R) 09 system (copyright 2009, Gaussian, Inc.),
 the Gaussian(R) 03 system (copyright 2003, Gaussian, Inc.),
 the Gaussian(R) 98 system (copyright 1998, Gaussian, Inc.),
 the Gaussian(R) 94 system (copyright 1995, Gaussian, Inc.),
 the Gaussian 92(TM) system (copyright 1992, Gaussian, Inc.),
 the Gaussian 90(TM) system (copyright 1990, Gaussian, Inc.),
 the Gaussian 88(TM) system (copyright 1988, Gaussian, Inc.),
 the Gaussian 86(TM) system (copyright 1986, Carnegie Mellon
 University), and the Gaussian 82(TM) system (copyright 1983,
 Carnegie Mellon University). Gaussian is a federally registered
 trademark of Gaussian, Inc.
  
 This software contains proprietary and confidential information,
 including trade secrets, belonging to Gaussian, Inc.
  
 This software is provided under written license and may be
 used, copied, transmitted, or stored only in accord with that
 written license.
  
 The following legend is applicable only to US Government
 contracts under FAR:
  
                    RESTRICTED RIGHTS LEGEND
  
 Use, reproduction and disclosure by the US Government is
 subject to restrictions as set forth in subparagraphs (a)
 and (c) of the Commercial Computer Software - Restricted
 Rights clause in FAR 52.227-19.
  
 Gaussian, Inc.
 340 Quinnipiac St., Bldg. 40, Wallingford CT 06492
  
  
 ---------------------------------------------------------------
 Warning -- This program may not be used in any manner that
 competes with the business of Gaussian, Inc. or will provide
 assistance to any competitor of Gaussian, Inc.  The licensee
 of this program is prohibited from giving any competitor of
 Gaussian, Inc. access to this program.  By using this program,
 the user acknowledges that Gaussian, Inc. is engaged in the
 business of creating and licensing software in the field of
 computational chemistry and represents and warrants to the
 licensee that it is not a competitor of Gaussian, Inc. and that
 it will not use this program in any manner prohibited above.
 ---------------------------------------------------------------
  

 Cite this work as:
 Gaussian 16, Revision B.01,
 M. J. Frisch, G. W. Trucks, H. B. Schlegel, G. E. Scuseria, 
 M. A. Robb, J. R. Cheeseman, G. Scalmani, V. Barone, 
 G. A. Petersson, H. Nakatsuji, X. Li, M. Caricato, A. V. Marenich, 
 J. Bloino, B. G. Janesko, R. Gomperts, B. Mennucci, H. P. Hratchian, 
 J. V. Ortiz, A. F. Izmaylov, J. L. Sonnenberg, D. Williams-Young, 
 F. Ding, F. Lipparini, F. Egidi, J. Goings, B. Peng, A. Petrone, 
 T. Henderson, D. Ranasinghe, V. G. Zakrzewski, J. Gao, N. Rega, 
 G. Zheng, W. Liang, M. Hada, M. Ehara, K. Toyota, R. Fukuda, 
 J. Hasegawa, M. Ishida, T. Nakajima, Y. Honda, O. Kitao, H. Nakai, 
 T. Vreven, K. Throssell, J. A. Montgomery, Jr., J. E. Peralta, 
 F. Ogliaro, M. J. Bearpark, J. J. Heyd, E. N. Brothers, K. N. Kudin, 
 V. N. Staroverov, T. A. Keith, R. Kobayashi, J. Normand, 
 K. Raghavachari, A. P. Rendell, J. C. Burant, S. S. Iyengar, 
 J. Tomasi, M. Cossi, J. M. Millam, M. Klene, C. Adamo, R. Cammi, 
 J. W. Ochterski, R. L. Martin, K. Morokuma, O. Farkas, 
 J. B. Foresman, and D. J. Fox, Gaussian, Inc., Wallingford CT, 2016.
 
 ******************************************
 Gaussian 16:  ES64L-G16RevB.01 20-Dec-2017
                13-Oct-2024 
 ******************************************
 %NProcShared=26
 Will use up to   26 processors via shared memory.
 %MEM=20GB
 %chk=CHKfiles/0124.chk
 ---------------------------------------------------------------------
 #p b3lyp 6-31++g(d,p) scf=verytight NoSymm freq=noraman int=ultrafine
 ---------------------------------------------------------------------
 1/10=4,30=1,38=1/1,3;
 2/12=2,15=1,17=6,18=5,40=1/2;
 3/5=1,6=6,7=1111,11=2,25=1,30=1,71=2,74=-5,75=-5,140=1/1,2,3;
 4//1;
 5/5=2,17=3,38=5,98=1/2;
 8/6=4,10=90,11=11/1;
 11/6=1,8=1,9=11,15=111,16=1,31=1/1,2,10;
 10/6=1,31=1/2;
 6/7=2,8=2,9=2,10=2,28=1/1;
 7/8=1,10=1,25=1,30=1/1,2,3,16;
 1/10=4,30=1/3;
 99//99;
 Leave Link    1 at Sun Oct 13 09:51:28 2024, MaxMem=  2684354560 cpu:               1.5 elap:               0.1
 (Enter /usr/local/g16_AVX//g16/l101.exe)
 ------------------------
 RxCoord=2.29938 DE=47.95
 ------------------------
 Symbolic Z-matrix:
 Charge = -1 Multiplicity = 1
 C                    -0.2962    0.       -0.00017 
 Cl                   -2.15809  0.         0.00005 
 H                     0.01792   0.00237  -1.0367 
 H                     0.01804   0.89646   0.52013 
 H                     0.01805  -0.89882   0.51603 
 C                     2.40192   0.00001  -0.00023 
 N                     3.58085  -0.00001   0.00025 
 
 ITRead=  0  0  0  0  0  0  0
 MicOpt= -1 -1 -1 -1 -1 -1 -1
 NAtoms=      7 NQM=        7 NQMF=       0 NMMI=      0 NMMIF=      0
                NMic=       0 NMicF=      0.
                    Isotopes and Nuclear Properties:
 (Nuclear quadrupole moments (NQMom) in fm**2, nuclear magnetic moments (NMagM)
  in nuclear magnetons)

  Atom         1           2           3           4           5           6           7
 IAtWgt=          12          35           1           1           1          12          14
 AtmWgt=  12.0000000  34.9688527   1.0078250   1.0078250   1.0078250  12.0000000  14.0030740
 NucSpn=           0           3           1           1           1           0           2
 AtZEff=  -0.0000000  -0.0000000  -0.0000000  -0.0000000  -0.0000000  -0.0000000  -0.0000000
 NQMom=    0.0000000  -8.1650000   0.0000000   0.0000000   0.0000000   0.0000000   2.0440000
 NMagM=    0.0000000   0.8218740   2.7928460   2.7928460   2.7928460   0.0000000   0.4037610
 AtZNuc=   6.0000000  17.0000000   1.0000000   1.0000000   1.0000000   6.0000000   7.0000000
 Leave Link  101 at Sun Oct 13 09:51:28 2024, MaxMem=  2684354560 cpu:               2.9 elap:               0.1
 (Enter /usr/local/g16_AVX//g16/l103.exe)

 GradGradGradGradGradGradGradGradGradGradGradGradGradGradGradGradGradGrad
 Berny optimization.
 Initialization pass.
 Trust Radius=3.00D-01 FncErr=1.00D-07 GrdErr=1.00D-07 EigMax=2.50D+02 EigMin=1.00D-04
 Number of steps in this run=      2 maximum allowed number of steps=      2.
 GradGradGradGradGradGradGradGradGradGradGradGradGradGradGradGradGradGrad

 Leave Link  103 at Sun Oct 13 09:51:28 2024, MaxMem=  2684354560 cpu:               0.5 elap:               0.0
 (Enter /usr/local/g16_AVX//g16/l202.exe)
                          Input orientation:                          
 ---------------------------------------------------------------------
 Center     Atomic      Atomic             Coordinates (Angstroms)
 Number     Number       Type             X           Y           Z
 ---------------------------------------------------------------------
      1          6           0       -0.296195    0.000003   -0.000174
      2         17           0       -2.158089   -0.000002    0.000052
      3          1           0        0.017918    0.002365   -1.036704
      4          1           0        0.018037    0.896456    0.520130
      5          1           0        0.018049   -0.898816    0.516027
      6          6           0        2.401915    0.000012   -0.000228
      7          7           0        3.580845   -0.000008    0.000254
 ---------------------------------------------------------------------
                    Distance matrix (angstroms):
                    1          2          3          4          5
     1  C    0.000000
     2  Cl   1.861894   0.000000
     3  H    1.083082   2.410368   0.000000
     4  H    1.083091   2.410320   1.795308   0.000000
     5  H    1.083092   2.410326   1.795300   1.795277   0.000000
     6  C    2.698110   4.560004   2.599563   2.599473   2.599467
     7  N    3.877040   5.738934   3.710760   3.710461   3.710444
                    6          7
     6  C    0.000000
     7  N    1.178930   0.000000
 Symmetry turned off by external request.
 This structure is nearly, but not quite of a higher symmetry.
 Consider Symm=Loose if the higher symmetry is desired.
 Stoichiometry    C2H3ClN(1-)
 Framework group  C1[X(C2H3ClN)]
 Deg. of freedom    15
 Full point group                 C1      NOp   1
 Rotational constants (GHZ):         155.5823215           1.2197674           1.2197672
 Leave Link  202 at Sun Oct 13 09:51:28 2024, MaxMem=  2684354560 cpu:               0.2 elap:               0.0
 (Enter /usr/local/g16_AVX//g16/l301.exe)
 Standard basis: 6-31++G(d,p) (6D, 7F)
 Ernie: Thresh=  0.10000D-02 Tol=  0.10000D-05 Strict=F.
    98 basis functions,   176 primitive gaussians,    98 cartesian basis functions
    20 alpha electrons       20 beta electrons
       nuclear repulsion energy       110.9796038116 Hartrees.
 IExCor=  402 DFT=T Ex+Corr=B3LYP ExCW=0 ScaHFX=  0.200000
 ScaDFX=  0.800000  0.720000  1.000000  0.810000 ScalE2=  1.000000  1.000000
 IRadAn=      5 IRanWt=     -1 IRanGd=            0 ICorTp=0 IEmpDi=  4
 NAtoms=    7 NActive=    7 NUniq=    7 SFac= 1.00D+00 NAtFMM=   60 NAOKFM=F Big=F
 Integral buffers will be    131072 words long.
 Raffenetti 2 integral format.
 Two-electron integral symmetry is turned off.
 Leave Link  301 at Sun Oct 13 09:51:29 2024, MaxMem=  2684354560 cpu:               1.4 elap:               0.1
 (Enter /usr/local/g16_AVX//g16/l302.exe)
 NPDir=0 NMtPBC=     1 NCelOv=     1 NCel=       1 NClECP=     1 NCelD=      1
         NCelK=      1 NCelE2=     1 NClLst=     1 CellRange=     0.0.
 One-electron integrals computed using PRISM.
 NBasis=    98 RedAO= T EigKep=  1.22D-04  NBF=    98
 NBsUse=    98 1.00D-06 EigRej= -1.00D+00 NBFU=    98
 Precomputing XC quadrature grid using
 IXCGrd= 4 IRadAn=           5 IRanWt=          -1 IRanGd=           0 AccXCQ= 0.00D+00.
 Generated NRdTot=       0 NPtTot=           0 NUsed=           0 NTot=          32
 NSgBfM=    98    98    98    98    98 MxSgAt=     7 MxSgA2=     7.
 Leave Link  302 at Sun Oct 13 09:51:29 2024, MaxMem=  2684354560 cpu:               3.9 elap:               0.2
 (Enter /usr/local/g16_AVX//g16/l303.exe)
 DipDrv:  MaxL=1.
 Leave Link  303 at Sun Oct 13 09:51:29 2024, MaxMem=  2684354560 cpu:               0.7 elap:               0.1
 (Enter /usr/local/g16_AVX//g16/l401.exe)
 ExpMin= 3.60D-02 ExpMax= 2.52D+04 ExpMxC= 3.78D+03 IAcc=3 IRadAn=         5 AccDes= 0.00D+00
 Harris functional with IExCor=  402 and IRadAn=       5 diagonalized for initial guess.
 HarFok:  IExCor=  402 AccDes= 0.00D+00 IRadAn=         5 IDoV= 1 UseB2=F ITyADJ=14
 ICtDFT=  3500011 ScaDFX=  1.000000  1.000000  1.000000  1.000000
 FoFCou: FMM=F IPFlag=           0 FMFlag=      100000 FMFlg1=           0
         NFxFlg=           0 DoJE=T BraDBF=F KetDBF=T FulRan=T
         wScrn=  0.000000 ICntrl=       500 IOpCl=  0 I1Cent=   200000004 NGrid=           0
         NMat0=    1 NMatS0=      1 NMatT0=    0 NMatD0=    1 NMtDS0=    0 NMtDT0=    0
 Symmetry not used in FoFCou.
 Harris En= -593.074645004136    
 JPrj=0 DoOrth=F DoCkMO=F.
 Leave Link  401 at Sun Oct 13 09:51:29 2024, MaxMem=  2684354560 cpu:               5.8 elap:               0.3
 (Enter /usr/local/g16_AVX//g16/l502.exe)
 Keep R1 ints in memory in canonical form, NReq=35752935.
 FoFCou: FMM=F IPFlag=           0 FMFlag=           0 FMFlg1=           0
         NFxFlg=           0 DoJE=F BraDBF=F KetDBF=F FulRan=T
         wScrn=  0.000000 ICntrl=       600 IOpCl=  0 I1Cent=           0 NGrid=           0
         NMat0=    1 NMatS0=   4851 NMatT0=    0 NMatD0=    1 NMtDS0=    0 NMtDT0=    0
 Symmetry not used in FoFCou.
 Two-electron integral symmetry not used.
 Closed shell SCF:
 Using DIIS extrapolation, IDIIS=  1040.
 NGot=  2684354560 LenX=  2672563405 LenY=  2672553360
 Requested convergence on RMS density matrix=1.00D-08 within 128 cycles.
 Requested convergence on MAX density matrix=1.00D-06.
 Requested convergence on             energy=1.00D-06.
 No special actions if energy rises.

 Cycle   1  Pass 1  IDiag  1:
 E= -592.838278240572    
 DIIS: error= 3.47D-02 at cycle   1 NSaved=   1.
 NSaved= 1 IEnMin= 1 EnMin= -592.838278240572     IErMin= 1 ErrMin= 3.47D-02
 ErrMax= 3.47D-02  0.00D+00 EMaxC= 1.00D-01 BMatC= 1.33D-01 BMatP= 1.33D-01
 IDIUse=3 WtCom= 6.53D-01 WtEn= 3.47D-01
 Coeff-Com:  0.100D+01
 Coeff-En:   0.100D+01
 Coeff:      0.100D+01
 Gap=     0.625 Goal=   None    Shift=    0.000
 GapD=    0.625 DampG=2.000 DampE=0.500 DampFc=1.0000 IDamp=-1.
 RMSDP=9.56D-02 MaxDP=3.39D+00              OVMax= 3.89D-01

 Cycle   2  Pass 1  IDiag  1:
 E= -592.627109283868     Delta-E=        0.211168956704 Rises=F Damp=F
 DIIS: error= 4.74D-02 at cycle   2 NSaved=   2.
 NSaved= 2 IEnMin= 1 EnMin= -592.838278240572     IErMin= 1 ErrMin= 3.47D-02
 ErrMax= 4.74D-02  0.00D+00 EMaxC= 1.00D-01 BMatC= 3.04D-01 BMatP= 1.33D-01
 IDIUse=2 WtCom= 0.00D+00 WtEn= 1.00D+00
 Coeff-En:   0.688D+00 0.312D+00
 Coeff:      0.688D+00 0.312D+00
 Gap=     0.157 Goal=   None    Shift=    0.000
 RMSDP=9.38D-02 MaxDP=3.40D+00 DE= 2.11D-01 OVMax= 2.56D-01

 Cycle   3  Pass 1  IDiag  1:
 E= -592.981335955935     Delta-E=       -0.354226672067 Rises=F Damp=F
 DIIS: error= 8.19D-03 at cycle   3 NSaved=   3.
 NSaved= 3 IEnMin= 3 EnMin= -592.981335955935     IErMin= 3 ErrMin= 8.19D-03
 ErrMax= 8.19D-03  0.00D+00 EMaxC= 1.00D-01 BMatC= 1.05D-02 BMatP= 1.33D-01
 IDIUse=3 WtCom= 9.18D-01 WtEn= 8.19D-02
 Coeff-Com:  0.265D+00 0.949D-01 0.641D+00
 Coeff-En:   0.000D+00 0.000D+00 0.100D+01
 Coeff:      0.243D+00 0.872D-01 0.670D+00
 Gap=     0.188 Goal=   None    Shift=    0.000
 RMSDP=2.96D-03 MaxDP=5.13D-02 DE=-3.54D-01 OVMax= 5.24D-02

 Cycle   4  Pass 1  IDiag  1:
 E= -592.986106784407     Delta-E=       -0.004770828471 Rises=F Damp=F
 DIIS: error= 1.16D-02 at cycle   4 NSaved=   4.
 NSaved= 4 IEnMin= 4 EnMin= -592.986106784407     IErMin= 3 ErrMin= 8.19D-03
 ErrMax= 1.16D-02  0.00D+00 EMaxC= 1.00D-01 BMatC= 7.13D-03 BMatP= 1.05D-02
 IDIUse=3 WtCom= 8.84D-01 WtEn= 1.16D-01
 Coeff-Com:  0.532D-01-0.266D-01 0.502D+00 0.471D+00
 Coeff-En:   0.000D+00 0.000D+00 0.380D+00 0.620D+00
 Coeff:      0.471D-01-0.235D-01 0.488D+00 0.489D+00
 Gap=     0.180 Goal=   None    Shift=    0.000
 RMSDP=1.05D-03 MaxDP=1.66D-02 DE=-4.77D-03 OVMax= 2.99D-02

 Cycle   5  Pass 1  IDiag  1:
 E= -592.992482974096     Delta-E=       -0.006376189689 Rises=F Damp=F
 DIIS: error= 2.87D-03 at cycle   5 NSaved=   5.
 NSaved= 5 IEnMin= 5 EnMin= -592.992482974096     IErMin= 5 ErrMin= 2.87D-03
 ErrMax= 2.87D-03  0.00D+00 EMaxC= 1.00D-01 BMatC= 3.70D-04 BMatP= 7.13D-03
 IDIUse=3 WtCom= 9.71D-01 WtEn= 2.87D-02
 Coeff-Com:  0.179D-01-0.138D-01 0.237D+00 0.284D+00 0.476D+00
 Coeff-En:   0.000D+00 0.000D+00 0.000D+00 0.000D+00 0.100D+01
 Coeff:      0.174D-01-0.134D-01 0.230D+00 0.275D+00 0.491D+00
 Gap=     0.183 Goal=   None    Shift=    0.000
 RMSDP=3.43D-04 MaxDP=5.48D-03 DE=-6.38D-03 OVMax= 7.54D-03

 Cycle   6  Pass 1  IDiag  1:
 E= -592.992818945394     Delta-E=       -0.000335971297 Rises=F Damp=F
 DIIS: error= 9.15D-04 at cycle   6 NSaved=   6.
 NSaved= 6 IEnMin= 6 EnMin= -592.992818945394     IErMin= 6 ErrMin= 9.15D-04
 ErrMax= 9.15D-04  0.00D+00 EMaxC= 1.00D-01 BMatC= 3.53D-05 BMatP= 3.70D-04
 IDIUse=3 WtCom= 9.91D-01 WtEn= 9.15D-03
 Coeff-Com:  0.338D-02-0.649D-02 0.628D-01 0.764D-01 0.259D+00 0.605D+00
 Coeff-En:   0.000D+00 0.000D+00 0.000D+00 0.000D+00 0.707D-01 0.929D+00
 Coeff:      0.335D-02-0.643D-02 0.622D-01 0.757D-01 0.258D+00 0.608D+00
 Gap=     0.183 Goal=   None    Shift=    0.000
 RMSDP=8.21D-05 MaxDP=1.60D-03 DE=-3.36D-04 OVMax= 1.84D-03

 Cycle   7  Pass 1  IDiag  1:
 E= -592.992852585183     Delta-E=       -0.000033639789 Rises=F Damp=F
 DIIS: error= 7.35D-05 at cycle   7 NSaved=   7.
 NSaved= 7 IEnMin= 7 EnMin= -592.992852585183     IErMin= 7 ErrMin= 7.35D-05
 ErrMax= 7.35D-05  0.00D+00 EMaxC= 1.00D-01 BMatC= 5.04D-07 BMatP= 3.53D-05
 IDIUse=1 WtCom= 1.00D+00 WtEn= 0.00D+00
 Coeff-Com:  0.368D-03-0.895D-03 0.295D-02 0.277D-02 0.479D-01 0.193D+00
 Coeff-Com:  0.754D+00
 Coeff:      0.368D-03-0.895D-03 0.295D-02 0.277D-02 0.479D-01 0.193D+00
 Coeff:      0.754D+00
 Gap=     0.183 Goal=   None    Shift=    0.000
 RMSDP=1.49D-05 MaxDP=3.18D-04 DE=-3.36D-05 OVMax= 3.08D-04

 Cycle   8  Pass 1  IDiag  1:
 E= -592.992853160352     Delta-E=       -0.000000575169 Rises=F Damp=F
 DIIS: error= 1.43D-05 at cycle   8 NSaved=   8.
 NSaved= 8 IEnMin= 8 EnMin= -592.992853160352     IErMin= 8 ErrMin= 1.43D-05
 ErrMax= 1.43D-05  0.00D+00 EMaxC= 1.00D-01 BMatC= 2.60D-08 BMatP= 5.04D-07
 IDIUse=1 WtCom= 1.00D+00 WtEn= 0.00D+00
 Coeff-Com:  0.106D-03-0.154D-03 0.685D-04 0.315D-03 0.127D-01 0.544D-01
 Coeff-Com:  0.266D+00 0.667D+00
 Coeff:      0.106D-03-0.154D-03 0.685D-04 0.315D-03 0.127D-01 0.544D-01
 Coeff:      0.266D+00 0.667D+00
 Gap=     0.183 Goal=   None    Shift=    0.000
 RMSDP=3.03D-06 MaxDP=8.82D-05 DE=-5.75D-07 OVMax= 5.71D-05

 Cycle   9  Pass 1  IDiag  1:
 E= -592.992853187260     Delta-E=       -0.000000026908 Rises=F Damp=F
 DIIS: error= 3.54D-06 at cycle   9 NSaved=   9.
 NSaved= 9 IEnMin= 9 EnMin= -592.992853187260     IErMin= 9 ErrMin= 3.54D-06
 ErrMax= 3.54D-06  0.00D+00 EMaxC= 1.00D-01 BMatC= 2.24D-09 BMatP= 2.60D-08
 IDIUse=1 WtCom= 1.00D+00 WtEn= 0.00D+00
 Coeff-Com: -0.160D-04 0.203D-04-0.155D-03 0.194D-03 0.145D-02 0.457D-02
 Coeff-Com:  0.321D-01 0.231D+00 0.731D+00
 Coeff:     -0.160D-04 0.203D-04-0.155D-03 0.194D-03 0.145D-02 0.457D-02
 Coeff:      0.321D-01 0.231D+00 0.731D+00
 Gap=     0.183 Goal=   None    Shift=    0.000
 RMSDP=9.33D-07 MaxDP=2.01D-05 DE=-2.69D-08 OVMax= 1.28D-05

 Cycle  10  Pass 1  IDiag  1:
 E= -592.992853189746     Delta-E=       -0.000000002485 Rises=F Damp=F
 DIIS: error= 3.53D-07 at cycle  10 NSaved=  10.
 NSaved=10 IEnMin=10 EnMin= -592.992853189746     IErMin=10 ErrMin= 3.53D-07
 ErrMax= 3.53D-07  0.00D+00 EMaxC= 1.00D-01 BMatC= 2.12D-11 BMatP= 2.24D-09
 IDIUse=1 WtCom= 1.00D+00 WtEn= 0.00D+00
 Coeff-Com: -0.933D-05 0.716D-05-0.213D-04 0.284D-04-0.601D-04-0.697D-03
 Coeff-Com: -0.192D-02 0.145D-01 0.122D+00 0.866D+00
 Coeff:     -0.933D-05 0.716D-05-0.213D-04 0.284D-04-0.601D-04-0.697D-03
 Coeff:     -0.192D-02 0.145D-01 0.122D+00 0.866D+00
 Gap=     0.183 Goal=   None    Shift=    0.000
 RMSDP=1.61D-07 MaxDP=3.37D-06 DE=-2.49D-09 OVMax= 2.37D-06

 Cycle  11  Pass 1  IDiag  1:
 E= -592.992853189776     Delta-E=       -0.000000000030 Rises=F Damp=F
 DIIS: error= 6.78D-08 at cycle  11 NSaved=  11.
 NSaved=11 IEnMin=11 EnMin= -592.992853189776     IErMin=11 ErrMin= 6.78D-08
 ErrMax= 6.78D-08  0.00D+00 EMaxC= 1.00D-01 BMatC= 4.55D-13 BMatP= 2.12D-11
 IDIUse=1 WtCom= 1.00D+00 WtEn= 0.00D+00
 Coeff-Com: -0.127D-05 0.666D-06-0.937D-05-0.131D-04-0.575D-04-0.167D-03
 Coeff-Com: -0.172D-03-0.232D-02 0.263D-02 0.984D-01 0.902D+00
 Coeff:     -0.127D-05 0.666D-06-0.937D-05-0.131D-04-0.575D-04-0.167D-03
 Coeff:     -0.172D-03-0.232D-02 0.263D-02 0.984D-01 0.902D+00
 Gap=     0.183 Goal=   None    Shift=    0.000
 RMSDP=4.44D-08 MaxDP=8.86D-07 DE=-3.00D-11 OVMax= 4.70D-07

 Cycle  12  Pass 1  IDiag  1:
 E= -592.992853189778     Delta-E=       -0.000000000003 Rises=F Damp=F
 DIIS: error= 7.13D-09 at cycle  12 NSaved=  12.
 NSaved=12 IEnMin=12 EnMin= -592.992853189778     IErMin=12 ErrMin= 7.13D-09
 ErrMax= 7.13D-09  0.00D+00 EMaxC= 1.00D-01 BMatC= 5.18D-15 BMatP= 4.55D-13
 IDIUse=1 WtCom= 1.00D+00 WtEn= 0.00D+00
 Coeff-Com: -0.440D-07 0.623D-08-0.968D-06-0.246D-05-0.946D-05-0.221D-04
 Coeff-Com: -0.339D-04-0.695D-03-0.233D-02 0.127D-02 0.113D+00 0.889D+00
 Coeff:     -0.440D-07 0.623D-08-0.968D-06-0.246D-05-0.946D-05-0.221D-04
 Coeff:     -0.339D-04-0.695D-03-0.233D-02 0.127D-02 0.113D+00 0.889D+00
 Gap=     0.183 Goal=   None    Shift=    0.000
 RMSDP=2.28D-09 MaxDP=4.68D-08 DE=-2.73D-12 OVMax= 4.82D-08

 SCF Done:  E(RB3LYP) =  -592.992853190     A.U. after   12 cycles
            NFock= 12  Conv=0.23D-08     -V/T= 2.0045
 KE= 5.903323315377D+02 PE=-1.631780746226D+03 EE= 3.374759576872D+02
 Leave Link  502 at Sun Oct 13 09:51:31 2024, MaxMem=  2684354560 cpu:              35.5 elap:               1.7
 (Enter /usr/local/g16_AVX//g16/l801.exe)
 DoSCS=F DFT=T ScalE2(SS,OS)=  1.000000  1.000000
 Range of M.O.s used for correlation:     1    98
 NBasis=    98 NAE=    20 NBE=    20 NFC=     0 NFV=     0
 NROrb=     98 NOA=    20 NOB=    20 NVA=    78 NVB=    78

 **** Warning!!: The largest alpha MO coefficient is  0.35445190D+02

 Leave Link  801 at Sun Oct 13 09:51:31 2024, MaxMem=  2684354560 cpu:               0.7 elap:               0.1
 (Enter /usr/local/g16_AVX//g16/l1101.exe)
 Using compressed storage, NAtomX=     7.
 Will process      8 centers per pass.
 Leave Link 1101 at Sun Oct 13 09:51:31 2024, MaxMem=  2684354560 cpu:               3.5 elap:               0.2
 (Enter /usr/local/g16_AVX//g16/l1102.exe)
 Symmetrizing basis deriv contribution to polar:
 IMax=3 JMax=2 DiffMx= 0.00D+00
 Leave Link 1102 at Sun Oct 13 09:51:31 2024, MaxMem=  2684354560 cpu:               0.7 elap:               0.1
 (Enter /usr/local/g16_AVX//g16/l1110.exe)
 Forming Gx(P) for the SCF density, NAtomX=     7.
 Integral derivatives from FoFJK, PRISM(SPDF).
 Do as many integral derivatives as possible in FoFJK.
 G2DrvN: MDV=    2684353864.
 G2DrvN: will do     8 centers at a time, making    1 passes.
 Calling FoFCou, ICntrl=  3107 FMM=F I1Cent=   0 AccDes= 0.00D+00.
 FoFJK:  IHMeth= 1 ICntrl=    3107 DoSepK=F KAlg= 0 I1Cent=           0 FoldK=F
 IRaf=         0 NMat=       1 IRICut=       1 DoRegI=T DoRafI=F ISym2E= 0 IDoP0=0 IntGTp=1.
 FoFCou: FMM=F IPFlag=           0 FMFlag=      100000 FMFlg1=           0
         NFxFlg=           0 DoJE=F BraDBF=F KetDBF=F FulRan=T
         wScrn=  0.000000 ICntrl=      3107 IOpCl=  0 I1Cent=           0 NGrid=           0
         NMat0=    1 NMatS0=      1 NMatT0=    0 NMatD0=    1 NMtDS0=    0 NMtDT0=    0
 Symmetry not used in FoFCou.
 End of G2Drv F.D. properties file   721 does not exist.
 End of G2Drv F.D. properties file   722 does not exist.
 End of G2Drv F.D. properties file   788 does not exist.
 Leave Link 1110 at Sun Oct 13 09:51:33 2024, MaxMem=  2684354560 cpu:              38.0 elap:               1.5
 (Enter /usr/local/g16_AVX//g16/l1002.exe)
 Minotr:  Closed shell wavefunction.
          IDoAtm=1111111
          Direct CPHF calculation.
          Differentiating once with respect to electric field.
                with respect to dipole field.
          Differentiating once with respect to nuclear coordinates.
          Requested convergence is 1.0D-08 RMS, and 1.0D-07 maximum.
          Secondary convergence is 1.0D-12 RMS, and 1.0D-12 maximum.
          NewPWx=T KeepS1=F KeepF1=F KeepIn=T MapXYZ=F SortEE=F KeepMc=T.
         2136 words used for storage of precomputed grid.
 Keep R1 ints in memory in canonical form, NReq=35668397.
 FoFCou: FMM=F IPFlag=           0 FMFlag=           0 FMFlg1=           0
         NFxFlg=           0 DoJE=F BraDBF=F KetDBF=F FulRan=T
         wScrn=  0.000000 ICntrl=       600 IOpCl=  0 I1Cent=           0 NGrid=           0
         NMat0=    1 NMatS0=   4851 NMatT0=    0 NMatD0=    1 NMtDS0=    0 NMtDT0=    0
 Symmetry not used in FoFCou.
 Two-electron integral symmetry not used.
          MDV=    2684354560 using IRadAn=       1.
          Solving linear equations simultaneously, MaxMat=       0.
          There are    24 degrees of freedom in the 1st order CPHF.  IDoFFX=6 NUNeed=     3.
     21 vectors produced by pass  0 Test12= 6.50D-15 4.17D-09 XBig12= 8.93D+01 4.77D+00.
 AX will form    21 AO Fock derivatives at one time.
     21 vectors produced by pass  1 Test12= 6.50D-15 4.17D-09 XBig12= 4.40D+01 1.94D+00.
     21 vectors produced by pass  2 Test12= 6.50D-15 4.17D-09 XBig12= 1.13D+00 2.70D-01.
     21 vectors produced by pass  3 Test12= 6.50D-15 4.17D-09 XBig12= 2.15D-02 3.74D-02.
     21 vectors produced by pass  4 Test12= 6.50D-15 4.17D-09 XBig12= 7.22D-05 2.00D-03.
     16 vectors produced by pass  5 Test12= 6.50D-15 4.17D-09 XBig12= 1.84D-07 9.19D-05.
      6 vectors produced by pass  6 Test12= 6.50D-15 4.17D-09 XBig12= 2.14D-10 2.53D-06.
      1 vectors produced by pass  7 Test12= 6.50D-15 4.17D-09 XBig12= 2.08D-13 9.49D-08.
 InvSVY:  IOpt=1 It=  1 EMax= 1.24D-14
 Solved reduced A of dimension   128 with    24 vectors.
 FullF1:  Do perturbations      1 to       3.
 Isotropic polarizability for W=    0.000000       57.58 Bohr**3.
 End of Minotr F.D. properties file   721 does not exist.
 End of Minotr F.D. properties file   722 does not exist.
 End of Minotr F.D. properties file   788 does not exist.
 Leave Link 1002 at Sun Oct 13 09:51:35 2024, MaxMem=  2684354560 cpu:              51.4 elap:               2.1
 (Enter /usr/local/g16_AVX//g16/l601.exe)
 Copying SCF densities to generalized density rwf, IOpCl= 0 IROHF=0.

 **********************************************************************

            Population analysis using the SCF Density.

 **********************************************************************

 Alpha  occ. eigenvalues -- -101.40063 -14.09786 -10.09682  -9.96225  -9.31676
 Alpha  occ. eigenvalues --   -7.07953  -7.07155  -7.07155  -0.70271  -0.65169
 Alpha  occ. eigenvalues --   -0.53568  -0.30208  -0.30207  -0.26701  -0.18468
 Alpha  occ. eigenvalues --   -0.16892  -0.16892  -0.10055  -0.10055  -0.07157
 Alpha virt. eigenvalues --    0.11138   0.13080   0.14692   0.14692   0.17152
 Alpha virt. eigenvalues --    0.20396   0.20552   0.20552   0.22182   0.22183
 Alpha virt. eigenvalues --    0.24478   0.25097   0.25097   0.27138   0.27329
 Alpha virt. eigenvalues --    0.27330   0.31505   0.34000   0.34000   0.36490
 Alpha virt. eigenvalues --    0.38516   0.38606   0.38607   0.46733   0.48218
 Alpha virt. eigenvalues --    0.67206   0.74256   0.74992   0.74993   0.77945
 Alpha virt. eigenvalues --    0.77945   0.88640   0.89555   0.89555   0.98690
 Alpha virt. eigenvalues --    1.00319   1.00319   1.05335   1.05335   1.08121
 Alpha virt. eigenvalues --    1.09900   1.09902   1.12310   1.19010   1.19010
 Alpha virt. eigenvalues --    1.26570   1.28388   1.36388   1.48738   1.60620
 Alpha virt. eigenvalues --    1.60622   1.77825   1.77825   1.79641   1.80165
 Alpha virt. eigenvalues --    1.80166   2.15814   2.19907   2.19907   2.21861
 Alpha virt. eigenvalues --    2.21863   2.27372   2.50599   2.50602   2.65847
 Alpha virt. eigenvalues --    2.83225   2.83226   2.84841   2.96321   2.96323
 Alpha virt. eigenvalues --    3.26415   3.39816   3.56268   3.56268   4.21608
 Alpha virt. eigenvalues --    4.43028   4.46337   4.57007
          Condensed to atoms (all electrons):
               1          2          3          4          5          6
     1  C    5.490267  -0.128421   0.423123   0.423103   0.423103  -0.216283
     2  Cl  -0.128421  17.418294  -0.051456  -0.051416  -0.051415   0.087474
     3  H    0.423123  -0.051456   0.507213  -0.023318  -0.023319  -0.044130
     4  H    0.423103  -0.051416  -0.023318   0.507223  -0.023315  -0.044159
     5  H    0.423103  -0.051415  -0.023319  -0.023315   0.507222  -0.044158
     6  C   -0.216283   0.087474  -0.044130  -0.044159  -0.044158   6.076767
     7  N   -0.003157  -0.003372  -0.000112  -0.000112  -0.000112   0.670330
               7
     1  C   -0.003157
     2  Cl  -0.003372
     3  H   -0.000112
     4  H   -0.000112
     5  H   -0.000112
     6  C    0.670330
     7  N    6.855256
 Mulliken charges:
               1
     1  C   -0.411735
     2  Cl  -0.219688
     3  H    0.211999
     4  H    0.211994
     5  H    0.211995
     6  C   -0.485842
     7  N   -0.518722
 Sum of Mulliken charges =  -1.00000
 Mulliken charges with hydrogens summed into heavy atoms:
               1
     1  C    0.224252
     2  Cl  -0.219688
     6  C   -0.485842
     7  N   -0.518722
 APT charges:
               1
     1  C    0.713923
     2  Cl  -0.722009
     3  H    0.012088
     4  H    0.012077
     5  H    0.012077
     6  C   -0.399205
     7  N   -0.628951
 Sum of APT charges =  -1.00000
 APT charges with hydrogens summed into heavy atoms:
               1
     1  C    0.750166
     2  Cl  -0.722009
     6  C   -0.399205
     7  N   -0.628951
 Electronic spatial extent (au):  <R**2>=            858.7939
 Charge=             -1.0000 electrons
 Dipole moment (field-independent basis, Debye):
    X=             -9.2703    Y=             -0.0000    Z=             -0.0003  Tot=              9.2703
 Quadrupole moment (field-independent basis, Debye-Ang):
   XX=            -88.5900   YY=            -35.4120   ZZ=            -35.4119
   XY=              0.0000   XZ=             -0.0014   YZ=              0.0000
 Traceless Quadrupole moment (field-independent basis, Debye-Ang):
   XX=            -35.4521   YY=             17.7260   ZZ=             17.7261
   XY=              0.0000   XZ=             -0.0014   YZ=              0.0000
 Octapole moment (field-independent basis, Debye-Ang**2):
  XXX=           -174.8914  YYY=             -0.0062  ZZZ=             -0.8901  XYY=            -11.2177
  XXY=              0.0003  XXZ=             -0.0087  XZZ=            -11.2178  YZZ=              0.0061
  YYZ=              0.8923  XYZ=             -0.0000
 Hexadecapole moment (field-independent basis, Debye-Ang**3):
 XXXX=          -1838.6574 YYYY=            -55.9539 ZZZZ=            -55.9531 XXXY=              0.0012
 XXXZ=             -0.0497 YYYX=             -0.0009 YYYZ=              0.0000 ZZZX=             -0.0990
 ZZZY=              0.0000 XXYY=           -221.3898 XXZZ=           -221.3897 YYZZ=            -18.6516
 XXYZ=             -0.0000 YYXZ=              0.0955 ZZXY=              0.0006
 N-N= 1.109796038116D+02 E-N=-1.631780746144D+03  KE= 5.903323315377D+02
  Exact polarizability:  93.716  -0.000  39.517   0.004   0.000  39.518
 Approx polarizability: 115.707  -0.000  49.511   0.008   0.000  49.511
 No NMR shielding tensors so no spin-rotation constants.
 Leave Link  601 at Sun Oct 13 09:51:35 2024, MaxMem=  2684354560 cpu:               2.6 elap:               0.1
 (Enter /usr/local/g16_AVX//g16/l701.exe)
 ... and contract with generalized density number  0.
 Compute integral second derivatives.
 Leave Link  701 at Sun Oct 13 09:51:35 2024, MaxMem=  2684354560 cpu:               4.9 elap:               0.2
 (Enter /usr/local/g16_AVX//g16/l702.exe)
 L702 exits ... SP integral derivatives will be done elsewhere.
 Leave Link  702 at Sun Oct 13 09:51:35 2024, MaxMem=  2684354560 cpu:               0.6 elap:               0.0
 (Enter /usr/local/g16_AVX//g16/l703.exe)
 Integral derivatives from FoFJK, PRISM(SPDF).
 Compute integral second derivatives, UseDBF=F ICtDFT=           0.
 Calling FoFJK, ICntrl=    100127 FMM=F ISym2X=0 I1Cent= 0 IOpClX= 0 NMat=1 NMatS=1 NMatT=0.
 FoFJK:  IHMeth= 1 ICntrl=  100127 DoSepK=F KAlg= 0 I1Cent=           0 FoldK=F
 IRaf=         0 NMat=       1 IRICut=       1 DoRegI=T DoRafI=F ISym2E= 0 IDoP0=0 IntGTp=1.
 FoFCou: FMM=F IPFlag=           0 FMFlag=      100000 FMFlg1=         800
         NFxFlg=           0 DoJE=F BraDBF=F KetDBF=F FulRan=T
         wScrn=  0.000000 ICntrl=    100127 IOpCl=  0 I1Cent=           0 NGrid=           0
         NMat0=    1 NMatS0=      1 NMatT0=    0 NMatD0=    1 NMtDS0=    0 NMtDT0=    0
 Symmetry not used in FoFCou.
 Leave Link  703 at Sun Oct 13 09:51:38 2024, MaxMem=  2684354560 cpu:              65.8 elap:               2.6
 (Enter /usr/local/g16_AVX//g16/l716.exe)
 Dipole        =-3.64723190D+00-2.50104649D-06-9.91305837D-05
 Polarizability= 9.37162336D+01-1.62892840D-04 3.95172932D+01
                 3.89329015D-03 6.76186142D-06 3.95179312D+01
 Full mass-weighted force constant matrix:
 Low frequencies ---  -97.5774  -97.5746  -40.7848  -40.7801   -0.0035    0.0025
 Low frequencies ---    0.0041  106.3277  143.8959
 ******    2 imaginary frequencies (negative Signs) ****** 
 Diagonal vibrational polarizability:
       96.8848380      15.5023343      15.5055133
 Harmonic frequencies (cm**-1), IR intensities (KM/Mole), Raman scattering
 activities (A**4/AMU), depolarization ratios for plane and unpolarized
 incident light, reduced masses (AMU), force constants (mDyne/A),
 and normal coordinates:
                      1                      2                      3
                      A                      A                      A
 Frequencies --    -97.5724               -97.5696               143.8899
 Red. masses --      9.9928                 9.9940                 3.7408
 Frc consts  --      0.0561                 0.0561                 0.0456
 IR Inten    --      0.0121                 0.0120                11.8317
  Atom  AN      X      Y      Z        X      Y      Z        X      Y      Z
     1   6    -0.00  -0.01   0.21    -0.00   0.21   0.01     0.00  -0.03   0.40
     2  17    -0.00   0.00  -0.11    -0.00  -0.11  -0.00     0.00   0.01  -0.10
     3   1     0.17  -0.01   0.26     0.01   0.27   0.01     0.25  -0.04   0.49
     4   1    -0.08  -0.02   0.27    -0.15   0.26   0.01    -0.11  -0.03   0.47
     5   1    -0.09  -0.01   0.27     0.15   0.26   0.02    -0.14  -0.05   0.47
     6   6    -0.00  -0.03   0.64     0.00   0.64   0.03    -0.00   0.02  -0.23
     7   7     0.00   0.02  -0.52     0.00  -0.52  -0.02    -0.00  -0.00   0.00
                      4                      5                      6
                      A                      A                      A
 Frequencies --    143.9032               179.1285               535.9573
 Red. masses --      3.7408                12.1650                10.4779
 Frc consts  --      0.0456                 0.2300                 1.7733
 IR Inten    --     11.8315                76.5061               343.0259
  Atom  AN      X      Y      Z        X      Y      Z        X      Y      Z
     1   6     0.00   0.40   0.03    -0.34  -0.00   0.00     0.76   0.00  -0.00
     2  17     0.00  -0.10  -0.01    -0.27   0.00  -0.00    -0.31  -0.00   0.00
     3   1     0.02   0.46   0.04    -0.26  -0.00   0.02     0.31   0.00  -0.12
     4   1    -0.22   0.48   0.05    -0.26  -0.01  -0.01     0.31   0.10   0.06
     5   1     0.21   0.48   0.03    -0.26   0.01  -0.01     0.31  -0.10   0.06
     6   6    -0.00  -0.23  -0.02     0.55   0.00  -0.00     0.03   0.00  -0.00
     7   7    -0.00   0.00   0.00     0.56  -0.00   0.00     0.02  -0.00   0.00
                      7                      8                      9
                      A                      A                      A
 Frequencies --   1013.0205              1013.0475              1281.8081
 Red. masses --      1.1276                 1.1276                 1.0804
 Frc consts  --      0.6818                 0.6818                 1.0459
 IR Inten    --      0.1334                 0.1336                28.7291
  Atom  AN      X      Y      Z        X      Y      Z        X      Y      Z
     1   6    -0.00   0.01  -0.10     0.00   0.10   0.01    -0.07  -0.00   0.00
     2  17     0.00  -0.00   0.02    -0.00  -0.02  -0.00    -0.02  -0.00   0.00
     3   1     0.77  -0.02   0.13    -0.07  -0.22  -0.01     0.55  -0.00   0.17
     4   1    -0.32  -0.05   0.20     0.70  -0.15   0.02     0.55  -0.14  -0.08
     5   1    -0.45   0.02   0.19    -0.63  -0.15  -0.06     0.55   0.14  -0.08
     6   6     0.00   0.00  -0.00     0.00   0.00   0.00    -0.00  -0.00   0.00
     7   7    -0.00   0.00  -0.00     0.00   0.00   0.00    -0.01   0.00  -0.00
                     10                     11                     12
                      A                      A                      A
 Frequencies --   1451.4367              1451.4484              2162.6571
 Red. masses --      1.0655                 1.0655                12.8134
 Frc consts  --      1.3225                 1.3225                35.3094
 IR Inten    --      6.9734                 6.9708                14.6187
  Atom  AN      X      Y      Z        X      Y      Z        X      Y      Z
     1   6     0.00  -0.07   0.01    -0.00  -0.01  -0.07    -0.00  -0.00   0.00
     2  17     0.00  -0.00   0.00    -0.00  -0.00  -0.00     0.00  -0.00  -0.00
     3   1     0.05   0.75   0.02    -0.26   0.14  -0.13    -0.02   0.00  -0.01
     4   1     0.20   0.16  -0.47     0.17  -0.36   0.46    -0.02   0.01   0.00
     5   1    -0.25   0.02   0.28     0.09   0.39   0.60    -0.02  -0.01   0.00
     6   6    -0.00  -0.00   0.00     0.00  -0.00  -0.00     0.76  -0.00   0.00
     7   7     0.00   0.00  -0.00     0.00   0.00   0.00    -0.65   0.00  -0.00
                     13                     14                     15
                      A                      A                      A
 Frequencies --   3141.6399              3277.4585              3277.5893
 Red. masses --      1.0228                 1.1132                 1.1132
 Frc consts  --      5.9475                 7.0451                 7.0457
 IR Inten    --     10.4147                 0.0597                 0.0596
  Atom  AN      X      Y      Z        X      Y      Z        X      Y      Z
     1   6     0.04  -0.00   0.00    -0.00  -0.10   0.00     0.00  -0.00  -0.10
     2  17    -0.00   0.00  -0.00    -0.00   0.00  -0.00    -0.00   0.00   0.00
     3   1    -0.15  -0.00   0.56     0.01  -0.02  -0.03    -0.23  -0.00   0.78
     4   1    -0.15  -0.48  -0.28     0.19   0.57   0.34     0.12   0.37   0.19
     5   1    -0.15   0.48  -0.28    -0.20   0.59  -0.35     0.10  -0.32   0.17
     6   6     0.00   0.00  -0.00    -0.00   0.00  -0.00     0.00   0.00   0.00
     7   7     0.00  -0.00   0.00    -0.00  -0.00   0.00     0.00  -0.00  -0.00

 -------------------
 - Thermochemistry -
 -------------------
 Temperature   298.150 Kelvin.  Pressure   1.00000 Atm.
 Atom     1 has atomic number  6 and mass  12.00000
 Atom     2 has atomic number 17 and mass  34.96885
 Atom     3 has atomic number  1 and mass   1.00783
 Atom     4 has atomic number  1 and mass   1.00783
 Atom     5 has atomic number  1 and mass   1.00783
 Atom     6 has atomic number  6 and mass  12.00000
 Atom     7 has atomic number  7 and mass  14.00307
 Molecular mass:    75.99540 amu.
 Principal axes and moments of inertia in atomic units:
                           1         2         3
     Eigenvalues --    11.599911479.578131479.57838
           X            1.00000  -0.00001   0.00000
           Y            0.00000   0.12326   0.99237
           Z            0.00001   0.99237  -0.12326
 This molecule is an asymmetric top.
 Rotational symmetry number  1.
 Rotational temperatures (Kelvin)      7.46677     0.05854     0.05854
 Rotational constants (GHZ):         155.58232     1.21977     1.21977
    2 imaginary frequencies ignored.
 Zero-point vibrational energy     114081.8 (Joules/Mol)
                                   27.26620 (Kcal/Mol)
 Warning -- explicit consideration of   4 degrees of freedom as
           vibrations may cause significant error
 Vibrational temperatures:    207.03   207.04   257.73   771.12  1457.51
          (Kelvin)           1457.55  1844.24  2088.29  2088.31  3111.58
                             4520.12  4715.53  4715.72
 
 Zero-point correction=                           0.043451 (Hartree/Particle)
 Thermal correction to Energy=                    0.048479
 Thermal correction to Enthalpy=                  0.049424
 Thermal correction to Gibbs Free Energy=         0.015074
 Sum of electronic and zero-point Energies=           -592.949402
 Sum of electronic and thermal Energies=              -592.944374
 Sum of electronic and thermal Enthalpies=            -592.943430
 Sum of electronic and thermal Free Energies=         -592.977779
 
                     E (Thermal)             CV                S
                      KCal/Mol        Cal/Mol-Kelvin    Cal/Mol-Kelvin
 Total                   30.421             13.886             72.295
 Electronic               0.000              0.000              0.000
 Translational            0.889              2.981             38.900
 Rotational               0.889              2.981             24.744
 Vibrational             28.644              7.924              8.651
 Vibration     1          0.616              1.909              2.751
 Vibration     2          0.616              1.909              2.751
 Vibration     3          0.629              1.868              2.337
 Vibration     4          0.891              1.170              0.574
                       Q            Log10(Q)             Ln(Q)
 Total Bot       0.116509D-06         -6.933640        -15.965297
 Total V=0       0.112882D+14         13.052625         30.054779
 Vib (Bot)       0.784357D-19        -19.105486        -43.992007
 Vib (Bot)    1  0.141163D+01          0.149721          0.344746
 Vib (Bot)    2  0.141150D+01          0.149679          0.344650
 Vib (Bot)    3  0.112160D+01          0.049838          0.114757
 Vib (Bot)    4  0.296740D+00         -0.527625         -1.214901
 Vib (V=0)       0.759939D+01          0.880779          2.028068
 Vib (V=0)    1  0.199757D+01          0.300501          0.691929
 Vib (V=0)    2  0.199744D+01          0.300473          0.691865
 Vib (V=0)    3  0.172800D+01          0.237544          0.546966
 Vib (V=0)    4  0.108142D+01          0.033996          0.078279
 Electronic      0.100000D+01          0.000000          0.000000
 Translational   0.260396D+08          7.415635         17.075130
 Rotational      0.570441D+05          4.756211         10.951580
 
                                                       RxCoord=2.29938 DE=47.95
                                                             IR Spectrum
 
      3    3                                     2                          1      1         1                                       
      2    1                                     1                          4      2         0                  5             11     
      7    4                                     6                          5      8         1                  3             74     
      7    2                                     3                          1      2         3                  6             94     
 
      X    X                                     X                          X      X         X                  X             XX     
                                                                                   X                            X             X      
                                                                                                                X             X      
                                                                                                                X             X      
                                                                                                                X                    
                                                                                                                X                    
                                                                                                                X                    
                                                                                                                X                    
                                                                                                                X                    
                                                                                                                X                    
                                                                                                                X                    
                                                                                                                X                    
                                                                                                                X                    
                                                                                                                X                    
                                                                                                                X                    
                                                                                                                X                    
                                                                                                                X                    
                                                                                                                X                    
                                                                                                                X                    
                                                                                                                X                    
 
 -------------------------------------------------------------------
 Center     Atomic                   Forces (Hartrees/Bohr)
 Number     Number              X              Y              Z
 -------------------------------------------------------------------
      1        6          -0.000766602   -0.000001039    0.000014924
      2       17          -0.010214238   -0.000000284   -0.000002003
      3        1           0.000656217   -0.000001168    0.000842392
      4        1           0.000657867   -0.000733515   -0.000429071
      5        1           0.000656937    0.000736010   -0.000425182
      6        6           0.003332689    0.000000073   -0.000003284
      7        7           0.005677130   -0.000000077    0.000002225
 -------------------------------------------------------------------
 Cartesian Forces:  Max     0.010214238 RMS     0.002687754
 Z-matrix is all fixed cartesians, so copy forces.
 Force constants in Cartesian coordinates: 
                1             2             3             4             5 
      1  0.203072D+00
      2 -0.209055D-05  0.613002D+00
      3  0.238707D-04  0.305180D-05  0.613054D+00
      4 -0.635723D-01  0.000000D+00  0.300215D-05  0.154015D+00
      5  0.000000D+00 -0.334034D-01  0.000000D+00  0.000000D+00  0.178677D-01
      6  0.402082D-05  0.000000D+00 -0.334049D-01 -0.129688D-04  0.000000D+00
      7 -0.491936D-01 -0.189799D-03  0.831777D-01 -0.244340D-01 -0.420463D-04
      8 -0.185128D-03 -0.495689D-01  0.648373D-03  0.142890D-04  0.577112D-03
      9  0.811684D-01  0.648455D-03 -0.333917D+00 -0.630322D-02 -0.172769D-04
     10 -0.492045D-01 -0.719548D-01 -0.417655D-01 -0.244394D-01 -0.159031D-01
     11 -0.702198D-01 -0.262228D+00 -0.123427D+00  0.545496D-02  0.625333D-02
     12 -0.407584D-01 -0.123428D+00 -0.121202D+00  0.316844D-02  0.329521D-02
     13 -0.492066D-01  0.721468D-01 -0.414374D-01 -0.244389D-01  0.159448D-01
     14  0.704072D-01 -0.263349D+00  0.122775D+00 -0.546961D-02  0.628350D-02
     15 -0.404381D-01  0.122777D+00 -0.120077D+00  0.314355D-02 -0.327790D-02
     16 -0.603597D-03  0.000000D+00  0.000000D+00 -0.903963D-02  0.000000D+00
     17  0.000000D+00 -0.583257D-02  0.000000D+00  0.000000D+00  0.292892D-02
     18 -0.478640D-05  0.000000D+00 -0.583334D-02  0.632488D-05  0.000000D+00
     19  0.870822D-02  0.000000D+00 -0.174120D-05 -0.809129D-02  0.000000D+00
     20  0.000000D+00  0.137971D-02  0.000000D+00  0.000000D+00 -0.507179D-03
     21  0.496512D-05  0.000000D+00  0.137999D-02 -0.513484D-05  0.000000D+00
                6             7             8             9            10 
      6  0.178664D-01
      7  0.183902D-01  0.709475D-01
      8 -0.171351D-04  0.192428D-03  0.458412D-01
      9  0.816466D-02 -0.843595D-01 -0.682346D-03  0.344875D+00
     10 -0.922806D-02  0.352195D-02  0.664463D-02  0.426303D-02  0.709624D-01
     11  0.329312D-02 -0.332131D-03  0.229089D-02  0.264419D-02  0.729765D-01
     12  0.249108D-02 -0.788972D-02 -0.248919D-01 -0.106884D-01  0.423563D-01
     13 -0.915530D-02  0.352221D-02 -0.666393D-02  0.423284D-02  0.352189D-02
     14 -0.327598D-02  0.368288D-03  0.218878D-02 -0.258507D-02  0.699938D-02
     15  0.246105D-02 -0.788829D-02  0.249509D-01 -0.105871D-01  0.365603D-02
     16  0.000000D+00 -0.428758D-02  0.000000D+00  0.282502D-03 -0.428512D-02
     17  0.000000D+00  0.348060D-05 -0.171486D-02 -0.102775D-04  0.131965D-02
     18  0.292877D-02 -0.152531D-02 -0.102983D-04  0.279851D-02  0.766084D-03
     19  0.133070D-05 -0.765265D-04 -0.162040D-05  0.715926D-03 -0.771718D-04
     20  0.000000D+00  0.000000D+00  0.385756D-03  0.232510D-05 -0.821930D-04
     21 -0.507129D-03  0.949515D-04  0.234538D-05 -0.645738D-03 -0.479159D-04
               11            12            13            14            15 
     11  0.269488D+00
     12  0.129804D+00  0.121171D+00
     13 -0.701584D-02  0.362391D-02  0.709637D-01
     14 -0.170807D-01  0.137091D-01 -0.731710D-01  0.270667D+00
     15 -0.138266D-01  0.867950D-02  0.420234D-01 -0.129119D+00  0.119988D+00
     16 -0.245026D-03 -0.141305D-03 -0.428511D-02  0.245584D-03 -0.140136D-03
     17  0.166241D-02  0.196002D-02 -0.132314D-02  0.168032D-02 -0.194974D-02
     18  0.196054D-02 -0.576213D-03  0.760078D-03 -0.195023D-02 -0.593996D-03
     19 -0.618582D-03 -0.359291D-03 -0.771682D-04  0.620193D-03 -0.356433D-03
     20 -0.386218D-03 -0.448069D-03  0.824219D-04 -0.390347D-03  0.445727D-03
     21 -0.448383D-03  0.125222D-03 -0.475464D-04  0.446018D-03  0.129309D-03
               16            17            18            19            20 
     16  0.115969D+01
     17 -0.191797D-04 -0.511800D-03
     18  0.462665D-03  0.000000D+00 -0.511144D-03
     19 -0.113718D+01  0.192559D-04 -0.465050D-03  0.113680D+01
     20  0.192739D-04  0.178758D-02  0.000000D+00 -0.192870D-04 -0.226930D-02
     21 -0.464578D-03  0.000000D+00  0.178741D-02  0.465258D-03  0.000000D+00
               21 
     21 -0.226906D-02
 Leave Link  716 at Sun Oct 13 09:51:38 2024, MaxMem=  2684354560 cpu:               0.9 elap:               0.1
 (Enter /usr/local/g16_AVX//g16/l103.exe)

 GradGradGradGradGradGradGradGradGradGradGradGradGradGradGradGradGradGrad
 Berny optimization.
 Search for a local minimum.
 Step number   1 out of a maximum of    2
 All quantities printed in internal units (Hartrees-Bohrs-Radians)
 Second derivative matrix not updated -- analytic derivatives used.
 ITU=  0
     Eigenvalues ---   -0.00425  -0.00425   0.00389   0.00389   0.01396
     Eigenvalues ---    0.05958   0.05959   0.10832   0.10878   0.10879
     Eigenvalues ---    0.17472   0.46725   0.90549   0.90557   2.28450
 Eigenvalue     1 is  -4.25D-03 should be greater than     0.000000 Eigenvector:
                          Z6        Z7        Y6        Z2        Y7
   1                    0.66964  -0.59667  -0.18032  -0.17584   0.16067
                          Z4        Z5        X3        Z3        X5
   1                    0.14384   0.14165   0.13669   0.13593  -0.10007
 Eigenvalue     2 is  -4.25D-03 should be greater than     0.000000 Eigenvector:
                          Y6        Y7        Z6        Y2        Z7
   1                    0.66967  -0.59667   0.18031  -0.17583  -0.16067
                          Y3        Y5        Y4        X4        X5
   1                    0.14467   0.13936   0.13728  -0.13669   0.10016
 Quadratic step=4.966D-01 exceeds max=3.000D-01 adjusted using Lamda=-9.479D-03.
 Angle between NR and scaled steps=   4.46 degrees.
 Angle between quadratic step and forces=  44.83 degrees.
 Linear search not attempted -- first point.
 B after Tr=     0.006812   -0.000002   -0.000005
         Rot=    1.000000   -0.000000    0.000001   -0.000000 Ang=   0.00 deg.
 Variable       Old X    -DE/DX   Delta X   Delta X   Delta X     New X
                                 (Linear)    (Quad)   (Total)
    X1       -0.55973  -0.00077   0.00000  -0.09532  -0.08850  -0.64823
    Y1        0.00001  -0.00000   0.00000  -0.00000  -0.00000   0.00000
    Z1       -0.00033   0.00001   0.00000   0.00005   0.00004  -0.00029
    X2       -4.07820  -0.01021   0.00000  -0.10890  -0.10209  -4.18029
    Y2       -0.00000  -0.00000   0.00000  -0.00000  -0.00001  -0.00001
    Z2        0.00010  -0.00000   0.00000  -0.00002  -0.00003   0.00007
    X3        0.03386   0.00066   0.00000  -0.06106  -0.05424  -0.02038
    Y3        0.00447  -0.00000   0.00000  -0.00001  -0.00001   0.00446
    Z3       -1.95909   0.00084   0.00000   0.00862   0.00861  -1.95047
    X4        0.03408   0.00066   0.00000  -0.06101  -0.05420  -0.02012
    Y4        1.69406  -0.00073   0.00000  -0.00742  -0.00742   1.68664
    Z4        0.98290  -0.00043   0.00000  -0.00432  -0.00432   0.97858
    X5        0.03411   0.00066   0.00000  -0.06102  -0.05421  -0.02011
    Y5       -1.69852   0.00074   0.00000   0.00744   0.00744  -1.69108
    Z5        0.97515  -0.00043   0.00000  -0.00428  -0.00428   0.97087
    X6        4.53896   0.00333   0.00000   0.16808   0.17489   4.71385
    Y6        0.00002   0.00000   0.00000   0.00000   0.00000   0.00002
    Z6       -0.00043  -0.00000   0.00000  -0.00010  -0.00010  -0.00053
    X7        6.76682   0.00568   0.00000   0.17155   0.17837   6.94518
    Y7       -0.00002  -0.00000   0.00000  -0.00000  -0.00000  -0.00002
    Z7        0.00048   0.00000   0.00000   0.00007   0.00008   0.00056
         Item               Value     Threshold  Converged?
 Maximum Force            0.010214     0.000450     NO 
 RMS     Force            0.002688     0.000300     NO 
 Maximum Displacement     0.178365     0.001800     NO 
 RMS     Displacement     0.065355     0.001200     NO 
 Predicted change in Energy=-1.737201D-03
 GradGradGradGradGradGradGradGradGradGradGradGradGradGradGradGradGradGrad

 Leave Link  103 at Sun Oct 13 09:51:38 2024, MaxMem=  2684354560 cpu:               0.6 elap:               0.1
 (Enter /usr/local/g16_AVX//g16/l9999.exe)

 ----------------------------------------------------------------------

 Electric dipole moment (input orientation):
 (Debye = 10**-18 statcoulomb cm , SI units = C m)
                  (au)            (Debye)         (10**-30 SI)
   Tot        0.364723D+01      0.927034D+01      0.309225D+02
   x         -0.364723D+01     -0.927034D+01     -0.309225D+02
   y          0.000000D+00      0.000000D+00      0.000000D+00
   z         -0.991306D-04     -0.251965D-03     -0.840464D-03

 Dipole polarizability, Alpha (input orientation).
 (esu units = cm**3 , SI units = C**2 m**2 J**-1)
 Alpha(0;0):
               (au)            (10**-24 esu)      (10**-40 SI)
   iso        0.575838D+02      0.853304D+01      0.949429D+01
   aniso      0.541986D+02      0.803141D+01      0.893615D+01
   xx         0.937162D+02      0.138873D+02      0.154517D+02
   yx        -0.162893D-03     -0.241382D-04     -0.268574D-04
   yy         0.395173D+02      0.585586D+01      0.651552D+01
   zx         0.389329D-02      0.576926D-03      0.641917D-03
   zy         0.000000D+00      0.000000D+00      0.000000D+00
   zz         0.395179D+02      0.585595D+01      0.651563D+01

 ----------------------------------------------------------------------

 Dipole orientation:
     6         -0.00031360          0.00000605          0.55972744
    17          0.00020911         -0.00000098          4.07819716
     1         -1.95908755          0.00446784         -0.03380687
     1          0.98290116          1.69405697         -0.03411287
     1          0.97514994         -1.69851543         -0.03413301
     6         -0.00055423          0.00001956         -4.53896151
     7          0.00029607         -0.00001976         -6.76681636

 Electric dipole moment (dipole orientation):
 (Debye = 10**-18 statcoulomb cm , SI units = C m)
                  (au)            (Debye)         (10**-30 SI)
   Tot        0.364723D+01      0.927034D+01      0.309225D+02
   x          0.000000D+00      0.000000D+00      0.000000D+00
   y          0.000000D+00      0.000000D+00      0.000000D+00
   z          0.364723D+01      0.927034D+01      0.309225D+02

 Dipole polarizability, Alpha (dipole orientation).
 (esu units = cm**3 , SI units = C**2 m**2 J**-1)
 Alpha(0;0):
               (au)            (10**-24 esu)      (10**-40 SI)
   iso        0.575838D+02      0.853304D+01      0.949429D+01
   aniso      0.541986D+02      0.803141D+01      0.893615D+01
   xx         0.395179D+02      0.585595D+01      0.651563D+01
   yx         0.000000D+00      0.000000D+00      0.000000D+00
   yy         0.395173D+02      0.585586D+01      0.651552D+01
   zx        -0.242020D-02     -0.358636D-03     -0.399037D-03
   zy         0.200057D-03      0.296454D-04      0.329850D-04
   zz         0.937162D+02      0.138873D+02      0.154517D+02

 ----------------------------------------------------------------------
 1\1\GINC-NODO7\Freq\RB3LYP\6-31++G(d,p)\C2H3Cl1N1(1-)\ALANQF\13-Oct-20
 24\0\\#p b3lyp 6-31++g(d,p) scf=verytight NoSymm freq=noraman int=ultr
 afine\\RxCoord=2.29938 DE=47.95\\-1,1\C,-0.296195,0.000003,-0.000174\C
 l,-2.158089,-0.000002,0.000052\H,0.017918,0.002365,-1.036704\H,0.01803
 7,0.896456,0.52013\H,0.018049,-0.898816,0.516027\C,2.401915,0.000012,-
 0.000228\N,3.580845,-0.000008,0.000254\\Version=ES64L-G16RevB.01\HF=-5
 92.9928532\RMSD=2.278e-09\RMSF=2.688e-03\ZeroPoint=0.0434515\Thermal=0
 .0484795\Dipole=-3.5955442,-0.0000023,-0.0001135\DipoleDeriv=2.0188673
 ,0.0000048,-0.0001508,0.0000078,0.0614416,-0.0000009,-0.0001821,-0.000
 0009,0.0614609,-1.5431081,-0.0000027,0.0000743,-0.0000029,-0.311456,-0
 .0000001,0.0001446,-0.0000001,-0.3114637,-0.0425435,0.0000035,-0.00189
 11,-0.0000164,0.0788412,0.0001795,0.0068177,0.0001804,-0.000034,-0.042
 5631,0.0016412,0.0009748,-0.0059198,0.0198384,-0.0342383,-0.0034146,-0
 .0342463,0.058956,-0.0425595,-0.001645,0.000966,0.0059348,0.0195243,0.
 0340599,-0.0033882,0.0340669,0.0592673,-0.3058147,-0.0000066,0.0001425
 ,-0.0000169,-0.4459016,0.,0.0003298,0.,-0.4459001,-1.0422784,0.0000048
 ,-0.0001158,0.0000134,-0.422288,0.,-0.0003072,0.,-0.4222864\Polar=93.7
 162336,-0.0001629,39.5172932,0.0038933,0.0000068,39.5179312\Quadrupole
 =-26.3577388,13.1788204,13.1789184,0.0000092,-0.0010734,0.0000119\PG=C
 01 [X(C2H3Cl1N1)]\NImag=2\\0.20307243,-0.00000209,0.61300189,0.0000238
 7,0.00000305,0.61305379,-0.06357230,-0.00000015,0.00000300,0.15401546,
 -0.00000018,-0.03340335,-0.00000007,0.00000060,0.01786767,0.00000402,-
 0.00000004,-0.03340487,-0.00001297,0.00000003,0.01786643,-0.04919359,-
 0.00018980,0.08317765,-0.02443397,-0.00004205,0.01839023,0.07094750,-0
 .00018513,-0.04956886,0.00064837,0.00001429,0.00057711,-0.00001714,0.0
 0019243,0.04584118,0.08116844,0.00064845,-0.33391667,-0.00630322,-0.00
 001728,0.00816466,-0.08435951,-0.00068235,0.34487480,-0.04920454,-0.07
 195484,-0.04176549,-0.02443939,-0.01590310,-0.00922806,0.00352195,0.00
 664463,0.00426303,0.07096238,-0.07021985,-0.26222790,-0.12342673,0.005
 45496,0.00625333,0.00329312,-0.00033213,0.00229089,0.00264419,0.072976
 47,0.26948816,-0.04075837,-0.12342832,-0.12120232,0.00316844,0.0032952
 1,0.00249108,-0.00788972,-0.02489187,-0.01068845,0.04235632,0.12980392
 ,0.12117118,-0.04920663,0.07214676,-0.04143740,-0.02443889,0.01594478,
 -0.00915530,0.00352221,-0.00666393,0.00423284,0.00352189,-0.00701584,0
 .00362391,0.07096370,0.07040721,-0.26334892,0.12277540,-0.00546961,0.0
 0628350,-0.00327598,0.00036829,0.00218878,-0.00258507,0.00699938,-0.01
 708067,0.01370912,-0.07317104,0.27066734,-0.04043814,0.12277689,-0.120
 07658,0.00314355,-0.00327790,0.00246105,-0.00788829,0.02495093,-0.0105
 8712,0.00365603,-0.01382665,0.00867950,0.04202342,-0.12911926,0.119987
 83,-0.00060360,0.00000004,0.00000011,-0.00903963,-0.00000002,0.0000007
 4,-0.00428758,-0.00000067,0.00028250,-0.00428512,-0.00024503,-0.000141
 30,-0.00428511,0.00024558,-0.00014014,1.15968578,0.00000025,-0.0058325
 7,-0.00000004,-0.00000031,0.00292892,0.,0.00000348,-0.00171486,-0.0000
 1028,0.00131965,0.00166241,0.00196002,-0.00132314,0.00168032,-0.001949
 74,-0.00001918,-0.00051180,-0.00000479,-0.00000005,-0.00583334,0.00000
 632,0.,0.00292877,-0.00152531,-0.00001030,0.00279851,0.00076608,0.0019
 6054,-0.00057621,0.00076008,-0.00195023,-0.00059400,0.00046266,0.00000
 002,-0.00051114,0.00870822,0.00000008,-0.00000174,-0.00809129,-0.00000
 004,0.00000133,-0.00007653,-0.00000162,0.00071593,-0.00007717,-0.00061
 858,-0.00035929,-0.00007717,0.00062019,-0.00035643,-1.13718474,0.00001
 926,-0.00046505,1.13679868,-0.00000021,0.00137971,0.00000001,0.0000002
 2,-0.00050718,0.,-0.00000022,0.00038576,0.00000233,-0.00008219,-0.0003
 8622,-0.00044807,0.00008242,-0.00039035,0.00044573,0.00001927,0.001787
 58,0.00000002,-0.00001929,-0.00226930,0.00000497,0.00000002,0.00137999
 ,-0.00000513,0.,-0.00050713,0.00009495,0.00000235,-0.00064574,-0.00004
 792,-0.00044838,0.00012522,-0.00004755,0.00044602,0.00012931,-0.000464
 58,0.00000002,0.00178741,0.00046526,-0.00000001,-0.00226906\\0.0007666
 0,0.00000104,-0.00001492,0.01021424,0.00000028,0.00000200,-0.00065622,
 0.00000117,-0.00084239,-0.00065787,0.00073351,0.00042907,-0.00065694,-
 0.00073601,0.00042518,-0.00333269,-0.00000007,0.00000328,-0.00567713,0
 .00000008,-0.00000222\\\@


 ERWIN WITH HIS PSI CAN DO
 CALCULATIONS QUITE A FEW.
 BUT ONE THING HAS NOT BEEN SEEN
 JUST WHAT DOES PSI REALLY MEAN.
 -- WALTER HUCKEL, TRANS. BY FELIX BLOCH
 Job cpu time:       0 days  0 hours  3 minutes 43.2 seconds.
 Elapsed time:       0 days  0 hours  0 minutes  9.6 seconds.
 File lengths (MBytes):  RWF=     88 Int=      0 D2E=      0 Chk=      2 Scr=      2
 Normal termination of Gaussian 16 at Sun Oct 13 09:51:38 2024.
