RxCoord=2.39930 DE=47.73                                                
Freq      RB3LYP                                                      6-31++G(d,p)        
Number of atoms                            I                7
Info1-9                                    I   N=           9
          16          16           0           0           0         100
           6          18        -502
Full Title                                 C   N=           2
RxCoord=2.39930 DE=47.73
Route                                      C   N=           6
#p b3lyp 6-31++g(d,p) scf=verytight NoSymm freq=noraman int=
ultrafine   
Charge                                     I               -1
Multiplicity                               I                1
Number of electrons                        I               40
Number of alpha electrons                  I               20
Number of beta electrons                   I               20
Number of basis functions                  I               98
Number of independent functions            I               98
Number of point charges in /Mol/           I                0
Number of translation vectors              I                0
Atomic numbers                             I   N=           7
           6          17           1           1           1           6
           7
Nuclear charges                            R   N=           7
  6.00000000E+00  1.70000000E+01  1.00000000E+00  1.00000000E+00  1.00000000E+00
  6.00000000E+00  7.00000000E+00
Current cartesian coordinates              R   N=          21
 -5.79493965E-01  1.88972612E-06 -2.83458919E-04 -4.08039491E+00 -3.77945225E-06
  9.44863062E-05  2.23044374E-02  4.45597420E-03 -1.95696258E+00  2.22760916E-02
  1.69229132E+00  9.81990511E-01  2.22930991E-02 -1.69675107E+00  9.74253973E-01
  4.55225575E+00  2.83458919E-05 -4.98887697E-04  6.78038080E+00 -1.51178090E-05
  4.87549340E-04
Number of symbols in /Mol/                 I                0
Force Field                                I                0
Atom Types                                 C   N=           7
                                                            
                        
Int Atom Types                             I   N=           7
           0           0           0           0           0           0
           0
MM charges                                 R   N=           7
  0.00000000E+00  0.00000000E+00  0.00000000E+00  0.00000000E+00  0.00000000E+00
  0.00000000E+00  0.00000000E+00
Integer atomic weights                     I   N=           7
          12          35           1           1           1          12
          14
Real atomic weights                        R   N=           7
  1.20000000E+01  3.49688527E+01  1.00782504E+00  1.00782504E+00  1.00782504E+00
  1.20000000E+01  1.40030740E+01
Atom fragment info                         I   N=           7
           0           0           0           0           0           0
           0
Atom residue num                           I   N=           7
           0           0           0           0           0           0
           0
Nuclear spins                              I   N=           7
           0           3           1           1           1           0
           2
Nuclear ZEff                               R   N=           7
 -3.60000000E+00 -1.42400000E+01 -1.00000000E+00 -1.00000000E+00 -1.00000000E+00
 -3.60000000E+00 -4.55000000E+00
Nuclear ZNuc                               R   N=           7
  6.00000000E+00  1.70000000E+01  1.00000000E+00  1.00000000E+00  1.00000000E+00
  6.00000000E+00  7.00000000E+00
Nuclear QMom                               R   N=           7
  0.00000000E+00 -8.16500000E+00  0.00000000E+00  0.00000000E+00  0.00000000E+00
  0.00000000E+00  2.04400000E+00
Nuclear GFac                               R   N=           7
  0.00000000E+00  8.21874000E-01  2.79284600E+00  2.79284600E+00  2.79284600E+00
  0.00000000E+00  4.03761000E-01
MicOpt                                     I   N=           7
          -1          -1          -1          -1          -1          -1
          -1
Number of residues                         I                0
Number of secondary structures             I                0
Number of contracted shells                I               33
Number of primitive shells                 I               72
Pure/Cartesian d shells                    I                1
Pure/Cartesian f shells                    I                0
Highest angular momentum                   I                2
Largest degree of contraction              I                6
Shell types                                I   N=          33
           0          -1          -1          -1           2           0
          -1          -1          -1          -1           2           0
           0           0           1           0           0           0
           1           0           0           0           1           0
          -1          -1          -1           2           0          -1
          -1          -1           2
Number of primitives per shell             I   N=          33
           6           3           1           1           1           6
           6           3           1           1           1           3
           1           1           1           3           1           1
           1           3           1           1           1           6
           3           1           1           1           6           3
           1           1           1
Shell to atom map                          I   N=          33
           1           1           1           1           1           2
           2           2           2           2           2           3
           3           3           3           4           4           4
           4           5           5           5           5           6
           6           6           6           6           7           7
           7           7           7
Primitive exponents                        R   N=          72
  3.04752488E+03  4.57369518E+02  1.03948685E+02  2.92101553E+01  9.28666296E+00
  3.16392696E+00  7.86827235E+00  1.88128854E+00  5.44249258E-01  1.68714478E-01
  4.38000000E-02  8.00000000E-01  2.51801000E+04  3.78035000E+03  8.60474000E+02
  2.42145000E+02  7.73349000E+01  2.62470000E+01  4.91765000E+02  1.16984000E+02
  3.74153000E+01  1.37834000E+01  5.45215000E+00  2.22588000E+00  3.18649000E+00
  1.14427000E+00  4.20377000E-01  1.42657000E-01  4.83000000E-02  7.50000000E-01
  1.87311370E+01  2.82539436E+00  6.40121692E-01  1.61277759E-01  3.60000000E-02
  1.10000000E+00  1.87311370E+01  2.82539436E+00  6.40121692E-01  1.61277759E-01
  3.60000000E-02  1.10000000E+00  1.87311370E+01  2.82539436E+00  6.40121692E-01
  1.61277759E-01  3.60000000E-02  1.10000000E+00  3.04752488E+03  4.57369518E+02
  1.03948685E+02  2.92101553E+01  9.28666296E+00  3.16392696E+00  7.86827235E+00
  1.88128854E+00  5.44249258E-01  1.68714478E-01  4.38000000E-02  8.00000000E-01
  4.17351146E+03  6.27457911E+02  1.42902093E+02  4.02343293E+01  1.28202129E+01
  4.39043701E+00  1.16263619E+01  2.71627981E+00  7.72218397E-01  2.12031498E-01
  6.39000000E-02  8.00000000E-01
Contraction coefficients                   R   N=          72
  1.83473713E-03  1.40373228E-02  6.88426223E-02  2.32184443E-01  4.67941348E-01
  3.62311985E-01 -1.19332420E-01 -1.60854152E-01  1.14345644E+00  1.00000000E+00
  1.00000000E+00  1.00000000E+00  1.83295985E-03  1.40341988E-02  6.90973943E-02
  2.37451980E-01  4.83033960E-01  3.39855972E-01 -2.29739142E-03 -3.07137189E-02
 -1.12528069E-01  4.50163278E-02  5.89353363E-01  4.65206287E-01 -2.51828028E-01
  6.15892514E-02  1.06018433E+00  1.00000000E+00  1.00000000E+00  1.00000000E+00
  3.34946043E-02  2.34726953E-01  8.13757326E-01  1.00000000E+00  1.00000000E+00
  1.00000000E+00  3.34946043E-02  2.34726953E-01  8.13757326E-01  1.00000000E+00
  1.00000000E+00  1.00000000E+00  3.34946043E-02  2.34726953E-01  8.13757326E-01
  1.00000000E+00  1.00000000E+00  1.00000000E+00  1.83473713E-03  1.40373228E-02
  6.88426223E-02  2.32184443E-01  4.67941348E-01  3.62311985E-01 -1.19332420E-01
 -1.60854152E-01  1.14345644E+00  1.00000000E+00  1.00000000E+00  1.00000000E+00
  1.83477216E-03  1.39946270E-02  6.85865518E-02  2.32240873E-01  4.69069948E-01
  3.60455199E-01 -1.14961182E-01 -1.69117479E-01  1.14585195E+00  1.00000000E+00
  1.00000000E+00  1.00000000E+00
P(S=P) Contraction coefficients            R   N=          72
  0.00000000E+00  0.00000000E+00  0.00000000E+00  0.00000000E+00  0.00000000E+00
  0.00000000E+00  6.89990666E-02  3.16423961E-01  7.44308291E-01  1.00000000E+00
  1.00000000E+00  0.00000000E+00  0.00000000E+00  0.00000000E+00  0.00000000E+00
  0.00000000E+00  0.00000000E+00  0.00000000E+00  3.98940088E-03  3.03177067E-02
  1.29880029E-01  3.27951072E-01  4.53527100E-01  2.52154056E-01 -1.42993147E-02
  3.23572333E-01  7.43507765E-01  1.00000000E+00  1.00000000E+00  0.00000000E+00
  0.00000000E+00  0.00000000E+00  0.00000000E+00  0.00000000E+00  0.00000000E+00
  0.00000000E+00  0.00000000E+00  0.00000000E+00  0.00000000E+00  0.00000000E+00
  0.00000000E+00  0.00000000E+00  0.00000000E+00  0.00000000E+00  0.00000000E+00
  0.00000000E+00  0.00000000E+00  0.00000000E+00  0.00000000E+00  0.00000000E+00
  0.00000000E+00  0.00000000E+00  0.00000000E+00  0.00000000E+00  6.89990666E-02
  3.16423961E-01  7.44308291E-01  1.00000000E+00  1.00000000E+00  0.00000000E+00
  0.00000000E+00  0.00000000E+00  0.00000000E+00  0.00000000E+00  0.00000000E+00
  0.00000000E+00  6.75797439E-02  3.23907296E-01  7.40895140E-01  1.00000000E+00
  1.00000000E+00  0.00000000E+00
Coordinates of each shell                  R   N=          99
 -5.79493965E-01  1.88972612E-06 -2.83458919E-04 -5.79493965E-01  1.88972612E-06
 -2.83458919E-04 -5.79493965E-01  1.88972612E-06 -2.83458919E-04 -5.79493965E-01
  1.88972612E-06 -2.83458919E-04 -5.79493965E-01  1.88972612E-06 -2.83458919E-04
 -4.08039491E+00 -3.77945225E-06  9.44863062E-05 -4.08039491E+00 -3.77945225E-06
  9.44863062E-05 -4.08039491E+00 -3.77945225E-06  9.44863062E-05 -4.08039491E+00
 -3.77945225E-06  9.44863062E-05 -4.08039491E+00 -3.77945225E-06  9.44863062E-05
 -4.08039491E+00 -3.77945225E-06  9.44863062E-05  2.23044374E-02  4.45597420E-03
 -1.95696258E+00  2.23044374E-02  4.45597420E-03 -1.95696258E+00  2.23044374E-02
  4.45597420E-03 -1.95696258E+00  2.23044374E-02  4.45597420E-03 -1.95696258E+00
  2.22760916E-02  1.69229132E+00  9.81990511E-01  2.22760916E-02  1.69229132E+00
  9.81990511E-01  2.22760916E-02  1.69229132E+00  9.81990511E-01  2.22760916E-02
  1.69229132E+00  9.81990511E-01  2.22930991E-02 -1.69675107E+00  9.74253973E-01
  2.22930991E-02 -1.69675107E+00  9.74253973E-01  2.22930991E-02 -1.69675107E+00
  9.74253973E-01  2.22930991E-02 -1.69675107E+00  9.74253973E-01  4.55225575E+00
  2.83458919E-05 -4.98887697E-04  4.55225575E+00  2.83458919E-05 -4.98887697E-04
  4.55225575E+00  2.83458919E-05 -4.98887697E-04  4.55225575E+00  2.83458919E-05
 -4.98887697E-04  4.55225575E+00  2.83458919E-05 -4.98887697E-04  6.78038080E+00
 -1.51178090E-05  4.87549340E-04  6.78038080E+00 -1.51178090E-05  4.87549340E-04
  6.78038080E+00 -1.51178090E-05  4.87549340E-04  6.78038080E+00 -1.51178090E-05
  4.87549340E-04  6.78038080E+00 -1.51178090E-05  4.87549340E-04
Num ILSW                                   I              100
ILSW                                       I   N=         100
           0           1           0           0           2           0
           0           0           0           0         402          -1
           5           0           0           0           2           0
           0           0           0           0           1           0
           1           1           0           0           0           0
           0           0      100000           0          -1           0
           0           0           0           0           0           0
           0           0           0           1           0           0
           0 -2000000000           1           0           0           0
           0           0           4          52           0           0
           0           0           5           0           0           0
           0           0           0           7           0           1
           0           0           0           0           0           0
           0           0           0           0           0           0
           0           0           0           0           0           0
           0           0           0           0           0           0
           0           0           0           0
Num RLSW                                   I               52
RLSW                                       R   N=          52
  8.00000000E-01  7.20000000E-01  1.00000000E+00  8.10000000E-01  2.00000000E-01
  0.00000000E+00  0.00000000E+00  1.00000000E+00  0.00000000E+00  0.00000000E+00
  0.00000000E+00  0.00000000E+00  1.00000000E+00  0.00000000E+00  0.00000000E+00
  0.00000000E+00  0.00000000E+00  1.00000000E+00  0.00000000E+00  0.00000000E+00
  0.00000000E+00  0.00000000E+00  1.00000000E+00  0.00000000E+00  0.00000000E+00
  0.00000000E+00  0.00000000E+00  1.00000000E+00  0.00000000E+00  0.00000000E+00
  0.00000000E+00  0.00000000E+00  1.00000000E+00  0.00000000E+00  0.00000000E+00
  0.00000000E+00  0.00000000E+00  0.00000000E+00  1.00000000E+00  1.00000000E+00
  0.00000000E+00  1.00000000E+00  0.00000000E+00  0.00000000E+00  0.00000000E+00
  0.00000000E+00  0.00000000E+00  0.00000000E+00  0.00000000E+00  0.00000000E+00
  0.00000000E+00  0.00000000E+00
MxBond                                     I                4
NBond                                      I   N=           7
           4           1           1           1           1           1
           1
IBond                                      I   N=          28
           2           3           4           5           1           0
           0           0           1           0           0           0
           1           0           0           0           1           0
           0           0           7           0           0           0
           6           0           0           0
RBond                                      R   N=          28
  1.00000000E+00  1.00000000E+00  1.00000000E+00  1.00000000E+00  1.00000000E+00
  0.00000000E+00  0.00000000E+00  0.00000000E+00  1.00000000E+00  0.00000000E+00
  0.00000000E+00  0.00000000E+00  1.00000000E+00  0.00000000E+00  0.00000000E+00
  0.00000000E+00  1.00000000E+00  0.00000000E+00  0.00000000E+00  0.00000000E+00
  2.00000000E+00  0.00000000E+00  0.00000000E+00  0.00000000E+00  2.00000000E+00
  0.00000000E+00  0.00000000E+00  0.00000000E+00
Virial Ratio                               R      2.004500173332048E+00
SCF Energy                                 R     -5.929929761029890E+02
Total Energy                               R     -5.929929761029890E+02
RMS Force                                  R      2.960030496780651E-03
RMS Density                                R      2.227777422271880E-09
NImag                                      I                2
Job Status                                 I                1
Nuclear derivative order                   I                2
External E-field                           R   N=          35
  0.00000000E+00  0.00000000E+00  0.00000000E+00  0.00000000E+00  0.00000000E+00
  0.00000000E+00  0.00000000E+00  0.00000000E+00  0.00000000E+00  0.00000000E+00
  0.00000000E+00  0.00000000E+00  0.00000000E+00  0.00000000E+00  0.00000000E+00
  0.00000000E+00  0.00000000E+00  0.00000000E+00  0.00000000E+00  0.00000000E+00
  0.00000000E+00  0.00000000E+00  0.00000000E+00  0.00000000E+00  0.00000000E+00
  0.00000000E+00  0.00000000E+00  0.00000000E+00  0.00000000E+00  0.00000000E+00
  0.00000000E+00  0.00000000E+00  0.00000000E+00  0.00000000E+00  0.00000000E+00
IOpCl                                      I                0
IROHF                                      I                0
Alpha Orbital Energies                     R   N=          98
 -1.01402071E+02 -1.40971612E+01 -1.00965350E+01 -9.96153344E+00 -9.31827347E+00
 -7.08107905E+00 -7.07303482E+00 -7.07303474E+00 -7.05393000E-01 -6.50916798E-01
 -5.35618541E-01 -3.02521175E-01 -3.02514201E-01 -2.68996194E-01 -1.84187312E-01
 -1.69685308E-01 -1.69681731E-01 -9.98171218E-02 -9.98170235E-02 -7.09334392E-02
  1.11168229E-01  1.30820380E-01  1.46717782E-01  1.46722421E-01  1.72051384E-01
  2.04893762E-01  2.05342949E-01  2.05343602E-01  2.21783932E-01  2.21800322E-01
  2.44480457E-01  2.50940897E-01  2.50942990E-01  2.71634195E-01  2.73774751E-01
  2.73780593E-01  3.15114732E-01  3.39544847E-01  3.39554777E-01  3.64339455E-01
  3.85438781E-01  3.86279243E-01  3.86290559E-01  4.67309345E-01  4.82476287E-01
  6.68814257E-01  7.41384923E-01  7.49248033E-01  7.49249957E-01  7.78728189E-01
  7.78730198E-01  8.86320869E-01  8.96063278E-01  8.96065163E-01  9.86155915E-01
  1.00157068E+00  1.00158018E+00  1.05182383E+00  1.05184012E+00  1.08360974E+00
  1.09918119E+00  1.09920646E+00  1.12382529E+00  1.19047746E+00  1.19048183E+00
  1.26637749E+00  1.27888108E+00  1.36485074E+00  1.48575317E+00  1.60681106E+00
  1.60683605E+00  1.77901462E+00  1.77901628E+00  1.79249616E+00  1.80233931E+00
  1.80234239E+00  2.15891547E+00  2.19973013E+00  2.19973397E+00  2.22021679E+00
  2.22024699E+00  2.27992452E+00  2.50309250E+00  2.50313784E+00  2.66124302E+00
  2.83289604E+00  2.83289922E+00  2.84820917E+00  2.96277828E+00  2.96280769E+00
  3.26397447E+00  3.39649439E+00  3.56249021E+00  3.56250242E+00  4.21612454E+00
  4.42753703E+00  4.46290892E+00  4.57162508E+00
Alpha MO coefficients                      R   N=        9604
 -6.02058669E-06  1.62634985E-05 -4.99415527E-05 -6.38967216E-11  3.29565129E-09
  9.63667247E-05 -5.73443576E-05 -1.94380557E-10  1.28459630E-08 -4.95598937E-05
 -1.32975777E-04 -1.06416548E-09  8.45644162E-09 -5.09584809E-06  1.39651366E-05
  1.39715084E-05 -1.67398517E-10 -6.94915782E-10  2.53697391E-10  9.95996956E-01
  1.51508765E-02  3.81295140E-05  9.10557773E-13 -5.47991349E-09 -2.10621675E-02
 -1.80458532E-05 -5.49273926E-11  2.10272882E-09  1.87610521E-03 -5.72844898E-05
  4.69816196E-11  5.74748784E-09 -4.51913656E-04 -2.97372406E-05  1.07336856E-10
  2.72153845E-09  7.49977585E-03  7.52513822E-03  7.52513821E-03 -2.30814329E-11
  2.44155433E-09  3.77012040E-12 -2.44077258E-05 -2.61192901E-05  4.10671609E-05
  2.35060707E-05  2.62338601E-08 -1.14827915E-05 -2.44175071E-05 -2.61108225E-05
  4.10689815E-05  2.34977674E-05  9.92801947E-06  5.75875852E-06 -2.44172857E-05
 -2.61104180E-05  4.10670306E-05  2.34981932E-05 -9.95396158E-06  5.71335090E-06
 -1.00791193E-06  4.68093141E-07  1.19340246E-06  2.76474143E-10 -5.21712822E-09
 -1.29298133E-04 -1.19483794E-04  1.12411759E-09 -2.95437794E-08  3.71331381E-05
 -1.07470206E-04 -8.79287970E-10  5.91842840E-09 -1.29521081E-05 -4.18609919E-07
 -4.18504984E-07  3.38164314E-10 -7.28811539E-09  3.27062060E-13 -2.56325814E-06
 -1.02117953E-05 -1.36670107E-06 -2.10165474E-11  3.63277019E-10  1.48655830E-04
 -7.66394882E-05  1.77954904E-09 -3.98691095E-08  1.00614134E-04  1.66625569E-05
  1.45956493E-09 -2.46366143E-08  4.01387170E-06 -7.34720211E-06 -7.34721073E-06
 -3.64222048E-10  7.93414087E-09 -1.26849462E-12  2.65589048E-06  1.71574162E-05
 -5.26201126E-06  1.38602285E-10 -3.79132539E-09 -2.12946411E-05 -1.32741456E-05
 -4.81593200E-10  1.16740370E-08  1.18675375E-03  9.99591598E-05  5.30098761E-09
 -1.01835168E-07 -6.93578912E-06  7.43375541E-06  7.43326411E-06 -1.28674077E-10
  6.39552194E-10  8.55818394E-12  1.05478210E-07  2.03437709E-06 -3.65635797E-07
  2.64135630E-11 -3.06607221E-10  4.09567562E-06  2.08590090E-06 -1.52437138E-10
  1.79751113E-09 -4.92350434E-05 -2.04112435E-05  5.83948808E-10 -6.71335740E-09
 -1.91473996E-04 -8.33877912E-05 -4.01158050E-09  8.75860317E-08  4.77122769E-06
  3.66586875E-06  3.66552193E-06 -1.55633012E-11  8.42225904E-10  6.63945473E-12
  7.11687282E-06 -5.89427350E-05 -1.86808508E-04 -1.72487556E-06  9.50851085E-09
 -4.17700778E-06  7.10946240E-06 -5.89149552E-05 -1.87017416E-04 -1.71926881E-06
  3.60962911E-06  2.09456206E-06  7.10906285E-06 -5.89135015E-05 -1.87031720E-04
 -1.71893570E-06 -3.61898012E-06  2.07796455E-06  8.41201574E-05  2.06390170E-04
 -2.87743618E-04  5.44371361E-09 -1.23797212E-07 -2.50703472E-04 -4.21927300E-04
  9.20617235E-09 -2.06217898E-07  1.42569522E-03  1.05664771E-03 -1.99204640E-08
  4.37879520E-07 -7.63220557E-04 -1.25431584E-05 -1.25433417E-05  1.69556181E-08
 -3.84622339E-07  5.93112863E-12  9.92697003E-01  3.44499736E-02 -1.40689467E-03
  2.73431075E-08 -6.19195733E-07  5.22254741E-03  1.09626340E-04 -2.24157186E-09
  4.85820782E-08 -3.03274985E-03  5.11171300E-05 -1.62023899E-09  4.44090031E-08
 -7.70544967E-03 -8.42610442E-03 -8.42610456E-03 -1.61465909E-08  3.66732896E-07
 -1.55561662E-11  9.93002712E-01  4.96071336E-02 -6.52903869E-04 -8.52756489E-09
  1.35073228E-07 -1.64749967E-02  6.83318450E-04  2.07964252E-08 -5.24011899E-07
  6.30631748E-03 -2.59722616E-03  1.02021586E-08  1.20161918E-07 -9.28336706E-03
 -8.83042807E-03 -8.83037642E-03 -2.14868461E-09  1.03325135E-08  3.03498573E-09
 -8.45824289E-06 -5.00930250E-05 -5.86421609E-06 -1.47144213E-10 -3.50019101E-09
 -4.06057040E-05  1.92312316E-04  1.28935920E-09  4.08829666E-09  2.99811039E-03
  1.76077584E-03 -3.87874863E-09 -2.33102117E-07 -4.84159247E-03 -1.68370582E-03
 -1.94745756E-09  2.62948064E-07 -9.80317863E-05 -1.65807940E-04 -1.65796036E-04
 -1.38799690E-09 -1.02818792E-08 -3.76018408E-10 -1.50069858E-04  3.03537840E-03
 -8.75772900E-04  3.70762802E-05  2.33690212E-07 -1.02138299E-04 -1.50025392E-04
  3.03577081E-03 -8.75821855E-04  3.70960096E-05  8.83372686E-05  5.12933673E-05
 -1.50024970E-04  3.03579237E-03 -8.75775767E-04  3.70948413E-05 -8.85704217E-05
  5.08909312E-05 -1.57729810E-05 -8.51834011E-05  4.37885161E-05  1.52507408E-10
 -1.57314928E-08 -5.40102860E-04 -1.05808573E-03  1.04882113E-08 -2.17928311E-07
  1.18500116E-03  8.95958397E-04  1.00278620E-08 -3.75926287E-08 -5.48413177E-07
 -3.76232481E-05 -3.76261749E-05  2.15027311E-09 -4.41198359E-08 -4.27037510E-11
 -3.58630053E-05 -1.39074107E-04  4.65869617E-06 -2.08997170E-09  4.44998260E-08
  1.41901615E-03 -4.39872330E-04  1.70544191E-08 -3.74309206E-07 -9.17451228E-04
 -2.89258447E-04 -2.01607217E-08  2.93032380E-07 -4.20980075E-05 -8.33756273E-05
 -8.33749868E-05 -4.73675088E-10  1.66920379E-08  3.43006089E-11 -2.33527583E-05
 -1.13519088E-04 -9.93087794E-05  4.52224982E-10 -8.86831952E-09  4.42880179E-04
  6.69426315E-04 -5.04828000E-09  3.27568149E-08 -2.43571343E-03  5.51817989E-03
  1.08701169E-08 -3.99765440E-07  5.65867741E-06 -3.15267621E-05 -3.15260042E-05
 -2.42802635E-10  7.17165926E-09 -7.19243844E-11  1.80970518E-07  7.04294706E-06
  5.07608212E-06  5.72555788E-11 -1.52582202E-09  1.65594703E-05 -3.36698290E-05
 -3.89723083E-10  9.36034741E-09 -1.59666019E-04  3.97670967E-04  2.73929585E-09
 -6.73213555E-08  6.79381397E-03  1.61032551E-03  4.98395610E-10 -2.52699606E-07
  5.18947872E-05 -2.00690758E-06 -2.00725573E-06  4.38896699E-10 -1.22586110E-08
  5.74576719E-11 -3.95947077E-05 -4.67255047E-04  4.99866308E-06 -3.04086748E-05
  2.33907268E-08 -1.01167551E-05 -3.96163721E-05 -4.67238281E-04  5.29278994E-06
 -3.04183380E-05  8.75332739E-06  5.07861943E-06 -3.96185799E-05 -4.67243996E-04
  5.30090791E-06 -3.04180730E-05 -8.77668087E-06  5.03917758E-06  9.92838126E-01
  4.93652457E-02  1.88111105E-03 -4.02598607E-08  9.02417238E-07 -1.08810550E-02
 -6.68699031E-04  2.80294236E-08 -5.91697964E-07 -8.16745957E-03  6.90068865E-05
  5.92957064E-08 -9.34007362E-07 -8.45306170E-03 -9.71686074E-03 -9.71685826E-03
 -2.84954493E-08  6.45682725E-07  3.01073011E-11 -4.90543485E-04  5.86622636E-05
  4.38269650E-04 -8.19020479E-09  1.81673847E-07 -1.24136238E-03  6.02726697E-04
 -1.54072295E-08  3.63278307E-07  9.00948647E-03 -3.44020023E-03  4.63268109E-08
 -1.25354278E-06 -2.74420328E-04  1.78538441E-04  1.78538267E-04  1.12132137E-08
 -2.50656547E-07  2.13869106E-12 -9.99603427E-05  1.36497589E-04  3.37265786E-04
  1.34174377E-09 -4.48783517E-08  2.87082220E-03 -1.52946913E-03 -1.88232282E-08
  7.80415712E-08 -3.51886114E-02  3.85217898E-02  1.02156594E-07 -3.10202571E-06
 -7.33066772E-04 -1.14945072E-04 -1.14892476E-04 -1.83758775E-09  8.88872875E-08
 -1.51274690E-09 -2.84605188E-01  1.02274785E+00  4.60591777E-03 -1.33319474E-09
 -6.56387219E-07  7.60454373E-02  5.67868658E-04  9.69209391E-10 -5.79946439E-08
 -2.65034994E-02 -1.63700129E-03 -1.50356743E-09  1.85586728E-07  6.44625958E-02
  1.78600114E-02  2.11533402E-08 -2.33431768E-06 -1.52163589E-02 -1.55712936E-02
 -1.55712904E-02  8.57162446E-10 -5.31634915E-08  7.04664774E-11 -4.20450702E-05
 -7.77087136E-04  1.16422840E-03 -6.87284739E-05 -1.63391462E-08  7.45055011E-06
 -4.20283671E-05 -7.76835332E-04  1.16413328E-03 -6.88317176E-05 -6.44918266E-06
 -3.73138568E-06 -4.20304000E-05 -7.76860690E-04  1.16419959E-03 -6.88277109E-05
  6.46470249E-06 -3.70036221E-06  1.78032522E-05  7.93178004E-05  4.52742261E-05
 -7.37067558E-09  1.43538916E-07  9.66457597E-05  4.72795615E-04  1.65296709E-08
 -3.14381416E-07 -2.32612507E-02  1.16376486E-02  1.76713322E-07 -1.06084890E-06
  9.02186871E-05  1.31456556E-05  1.31480673E-05 -1.43766552E-09  2.23356903E-08
  1.14945574E-12  8.57580387E-06  4.94087571E-05 -1.82784399E-05 -3.78509458E-09
  4.26378847E-08 -6.48937457E-04  5.21776257E-04  5.58810380E-09  8.33530082E-08
  1.12318229E-03 -3.04014231E-03 -9.61499434E-08  7.53453925E-07 -5.02518622E-05
  2.36223109E-05  2.36219344E-05  3.21021225E-09 -6.74350277E-08  2.20254956E-11
  6.60592260E-05  1.51087501E-03  2.49833100E-04 -2.27603475E-09 -1.82533392E-08
 -4.61982084E-04  1.76925207E-03  6.78077985E-09 -4.65637517E-07  4.48824440E-02
 -5.90989488E-02 -1.52687889E-07  4.72983423E-06 -1.86953524E-03  2.05307262E-04
  2.05405312E-04 -2.96860659E-09  2.71479351E-07 -2.46869058E-09  1.35701850E-03
 -5.18707146E-03  9.90342081E-01  4.61325139E-07 -1.33206960E-04 -3.93537436E-04
  3.14552938E-02  1.63062000E-08 -4.17521089E-06  5.23073924E-03 -1.29844346E-02
 -8.00326370E-09  1.67049869E-06 -7.52868570E-02 -1.49999310E-02 -1.84459777E-08
  2.56034012E-06  6.63561938E-04 -4.60324080E-04 -4.60327054E-04  1.30698331E-09
 -1.14531680E-07 -1.48244951E-10 -2.05608259E-04  1.38617639E-03 -5.94020914E-03
 -3.22456497E-04  8.43964658E-08 -3.72061783E-05 -2.05288024E-04  1.38607324E-03
 -5.94177224E-03 -3.22659515E-04  3.22160207E-05  1.87422692E-05 -2.05292129E-04
  1.38606264E-03 -5.94183622E-03 -3.22654917E-04 -3.23034771E-05  1.85959598E-05
 -2.49538058E-05 -1.62327244E-04 -1.04453168E-04  7.78608944E-09 -1.33507547E-07
  3.39240665E-03  2.23014252E-03 -6.79404122E-08  1.43862050E-06  4.80017622E-02
 -1.88394997E-02 -3.44813161E-07  2.81017402E-06  1.35448812E-04 -4.81814210E-05
 -4.81853776E-05 -6.42313509E-09  1.59423113E-07 -6.15453614E-11  3.06938332E-07
  2.99518786E-05  3.83658998E-05  6.30262561E-09 -7.24218134E-08 -1.54765982E-03
  1.15389246E-03 -5.06152145E-08  7.99538724E-07 -9.44244842E-03  6.24640345E-03
  1.27371033E-07 -4.42363072E-07 -1.33637117E-04  2.51566402E-05  2.51558863E-05
  2.29362175E-09 -6.31536011E-08 -2.52392446E-12  2.83413735E-08  1.83730397E-07
  8.54360595E-09  3.60541625E-07 -8.00730728E-05 -7.79899560E-07 -9.97495611E-09
 -1.42226926E-06  3.14535671E-04  1.77298526E-06 -3.22706121E-06 -1.76105747E-06
  3.96539136E-04  1.89514234E-08 -8.48848429E-05  8.48773595E-05 -5.18617046E-07
  1.15325207E-04 -2.29992461E-07 -7.08089733E-09  2.01162655E-08  1.33248745E-04
 -4.45960933E-03  9.90831554E-01  1.53524820E-09  4.04314275E-06 -1.33251598E-04
  2.96060048E-02  2.24650088E-07 -1.57736340E-06  5.23812480E-05 -1.16387930E-02
 -3.59903871E-06 -2.64769859E-07 -2.33886204E-05  5.19834169E-03  9.27942936E-08
  4.89156326E-06 -4.98733119E-06 -1.36723276E-06  3.03865310E-04  1.35836302E-08
  6.13870488E-05 -5.77426534E-04  4.68357534E-03  2.60901556E-04  1.94373677E-07
 -6.03507401E-05 -3.04998294E-05  2.88106522E-04 -2.33325298E-03 -1.30026031E-04
 -1.49234873E-05 -3.42099001E-05 -3.07394788E-05  2.90326639E-04 -2.35115747E-03
 -1.31026755E-04  1.53073830E-05 -3.42084264E-05  2.45484335E-09  5.51730416E-09
 -3.73362719E-08 -2.33187684E-07  5.18817105E-05 -8.88559437E-07 -5.83546131E-07
  9.21060218E-07 -2.05353036E-04  2.75922369E-06 -8.72971179E-07 -4.60529690E-06
  1.02973381E-03 -2.94231119E-08  3.31192535E-06 -3.27048131E-06  1.54690453E-08
 -3.52381398E-06  9.24198508E-09 -2.63893279E-08 -9.92369669E-08  1.60673449E-08
  9.50453376E-08 -2.13638314E-05  1.10757394E-06 -5.44431318E-07 -5.78674664E-07
  1.29933422E-04 -6.39475629E-07  3.06786272E-07  1.74913012E-06 -3.93483292E-04
  8.95999437E-09  1.93508936E-06 -2.08648270E-06  6.67092099E-08 -1.48594368E-05
  5.49504369E-09  6.59279487E-10  5.37335219E-09 -2.60985608E-09 -8.00930192E-05
 -3.60345280E-07 -3.13013679E-08  1.88167559E-08  3.14266537E-04  1.40788354E-06
 -1.06344780E-07  1.03195835E-07  3.96311000E-04  1.80745899E-06 -1.42703945E-09
  1.98057084E-07 -1.98657022E-07  1.15300136E-04  5.19399220E-07 -9.81377366E-05
 -9.23868928E-10  3.00711452E-09  1.37446039E-07  9.90831564E-01  4.45960883E-03
 -1.09243165E-09  5.76440686E-09  2.96060014E-02  1.33254245E-04  1.32237551E-08
  1.35934448E-08 -1.16387508E-02 -5.23880698E-05  1.33240381E-07  2.88911095E-08
  5.19832467E-03  2.34054689E-05  2.72743598E-09 -1.21438583E-08  1.02195756E-08
  3.03879309E-04  1.36814947E-06  5.62437069E-06  1.33598815E-07 -1.26762807E-06
  1.04840317E-05  5.79783673E-07 -2.55202378E-05 -1.91433898E-07 -5.31012456E-05
  5.01294603E-04 -4.06097915E-03 -2.26329289E-04 -5.16828804E-05 -1.53039085E-05
  5.29669890E-05 -4.99975560E-04  4.05056027E-03  2.25745152E-04 -5.16817433E-05
  1.49139447E-05 -2.21532960E-10 -1.06240514E-09  1.86186175E-09  5.18845168E-05