 Entering Gaussian System, Link 0=g16
 Initial command:
 /usr/local/g16_AVX//g16/l1.exe "/scratch/alanqf/0125-54567.ixchel.mda.cinvestav.mx/Gau-39420.inp" -scrdir="/scratch/alanqf/0125-54567.ixchel.mda.cinvestav.mx/"
 Entering Link 1 = /usr/local/g16_AVX//g16/l1.exe PID=     39422.
  
 Copyright (c) 1988-2017, Gaussian, Inc.  All Rights Reserved.
  
 This is part of the Gaussian(R) 16 program.  It is based on
 the Gaussian(R) 09 system (copyright 2009, Gaussian, Inc.),
 the Gaussian(R) 03 system (copyright 2003, Gaussian, Inc.),
 the Gaussian(R) 98 system (copyright 1998, Gaussian, Inc.),
 the Gaussian(R) 94 system (copyright 1995, Gaussian, Inc.),
 the Gaussian 92(TM) system (copyright 1992, Gaussian, Inc.),
 the Gaussian 90(TM) system (copyright 1990, Gaussian, Inc.),
 the Gaussian 88(TM) system (copyright 1988, Gaussian, Inc.),
 the Gaussian 86(TM) system (copyright 1986, Carnegie Mellon
 University), and the Gaussian 82(TM) system (copyright 1983,
 Carnegie Mellon University). Gaussian is a federally registered
 trademark of Gaussian, Inc.
  
 This software contains proprietary and confidential information,
 including trade secrets, belonging to Gaussian, Inc.
  
 This software is provided under written license and may be
 used, copied, transmitted, or stored only in accord with that
 written license.
  
 The following legend is applicable only to US Government
 contracts under FAR:
  
                    RESTRICTED RIGHTS LEGEND
  
 Use, reproduction and disclosure by the US Government is
 subject to restrictions as set forth in subparagraphs (a)
 and (c) of the Commercial Computer Software - Restricted
 Rights clause in FAR 52.227-19.
  
 Gaussian, Inc.
 340 Quinnipiac St., Bldg. 40, Wallingford CT 06492
  
  
 ---------------------------------------------------------------
 Warning -- This program may not be used in any manner that
 competes with the business of Gaussian, Inc. or will provide
 assistance to any competitor of Gaussian, Inc.  The licensee
 of this program is prohibited from giving any competitor of
 Gaussian, Inc. access to this program.  By using this program,
 the user acknowledges that Gaussian, Inc. is engaged in the
 business of creating and licensing software in the field of
 computational chemistry and represents and warrants to the
 licensee that it is not a competitor of Gaussian, Inc. and that
 it will not use this program in any manner prohibited above.
 ---------------------------------------------------------------
  

 Cite this work as:
 Gaussian 16, Revision B.01,
 M. J. Frisch, G. W. Trucks, H. B. Schlegel, G. E. Scuseria, 
 M. A. Robb, J. R. Cheeseman, G. Scalmani, V. Barone, 
 G. A. Petersson, H. Nakatsuji, X. Li, M. Caricato, A. V. Marenich, 
 J. Bloino, B. G. Janesko, R. Gomperts, B. Mennucci, H. P. Hratchian, 
 J. V. Ortiz, A. F. Izmaylov, J. L. Sonnenberg, D. Williams-Young, 
 F. Ding, F. Lipparini, F. Egidi, J. Goings, B. Peng, A. Petrone, 
 T. Henderson, D. Ranasinghe, V. G. Zakrzewski, J. Gao, N. Rega, 
 G. Zheng, W. Liang, M. Hada, M. Ehara, K. Toyota, R. Fukuda, 
 J. Hasegawa, M. Ishida, T. Nakajima, Y. Honda, O. Kitao, H. Nakai, 
 T. Vreven, K. Throssell, J. A. Montgomery, Jr., J. E. Peralta, 
 F. Ogliaro, M. J. Bearpark, J. J. Heyd, E. N. Brothers, K. N. Kudin, 
 V. N. Staroverov, T. A. Keith, R. Kobayashi, J. Normand, 
 K. Raghavachari, A. P. Rendell, J. C. Burant, S. S. Iyengar, 
 J. Tomasi, M. Cossi, J. M. Millam, M. Klene, C. Adamo, R. Cammi, 
 J. W. Ochterski, R. L. Martin, K. Morokuma, O. Farkas, 
 J. B. Foresman, and D. J. Fox, Gaussian, Inc., Wallingford CT, 2016.
 
 ******************************************
 Gaussian 16:  ES64L-G16RevB.01 20-Dec-2017
                13-Oct-2024 
 ******************************************
 %NProcShared=26
 Will use up to   26 processors via shared memory.
 %MEM=20GB
 %chk=CHKfiles/0125.chk
 ---------------------------------------------------------------------
 #p b3lyp 6-31++g(d,p) scf=verytight NoSymm freq=noraman int=ultrafine
 ---------------------------------------------------------------------
 1/10=4,30=1,38=1/1,3;
 2/12=2,15=1,17=6,18=5,40=1/2;
 3/5=1,6=6,7=1111,11=2,25=1,30=1,71=2,74=-5,75=-5,140=1/1,2,3;
 4//1;
 5/5=2,17=3,38=5,98=1/2;
 8/6=4,10=90,11=11/1;
 11/6=1,8=1,9=11,15=111,16=1,31=1/1,2,10;
 10/6=1,31=1/2;
 6/7=2,8=2,9=2,10=2,28=1/1;
 7/8=1,10=1,25=1,30=1/1,2,3,16;
 1/10=4,30=1/3;
 99//99;
 Leave Link    1 at Sun Oct 13 09:51:28 2024, MaxMem=  2684354560 cpu:               1.2 elap:               0.1
 (Enter /usr/local/g16_AVX//g16/l101.exe)
 ------------------------
 RxCoord=2.39930 DE=47.73
 ------------------------
 Symbolic Z-matrix:
 Charge = -1 Multiplicity = 1
 C                    -0.30666   0.       -0.00015 
 Cl                   -2.15925  0.         0.00005 
 H                     0.0118    0.00236  -1.03558 
 H                     0.01179   0.89552   0.51965 
 H                     0.0118   -0.89788   0.51555 
 C                     2.40895   0.00002  -0.00026 
 N                     3.58802  -0.00001   0.00026 
 
 ITRead=  0  0  0  0  0  0  0
 MicOpt= -1 -1 -1 -1 -1 -1 -1
 NAtoms=      7 NQM=        7 NQMF=       0 NMMI=      0 NMMIF=      0
                NMic=       0 NMicF=      0.
                    Isotopes and Nuclear Properties:
 (Nuclear quadrupole moments (NQMom) in fm**2, nuclear magnetic moments (NMagM)
  in nuclear magnetons)

  Atom         1           2           3           4           5           6           7
 IAtWgt=          12          35           1           1           1          12          14
 AtmWgt=  12.0000000  34.9688527   1.0078250   1.0078250   1.0078250  12.0000000  14.0030740
 NucSpn=           0           3           1           1           1           0           2
 AtZEff=  -0.0000000  -0.0000000  -0.0000000  -0.0000000  -0.0000000  -0.0000000  -0.0000000
 NQMom=    0.0000000  -8.1650000   0.0000000   0.0000000   0.0000000   0.0000000   2.0440000
 NMagM=    0.0000000   0.8218740   2.7928460   2.7928460   2.7928460   0.0000000   0.4037610
 AtZNuc=   6.0000000  17.0000000   1.0000000   1.0000000   1.0000000   6.0000000   7.0000000
 Leave Link  101 at Sun Oct 13 09:51:29 2024, MaxMem=  2684354560 cpu:               2.8 elap:               0.1
 (Enter /usr/local/g16_AVX//g16/l103.exe)

 GradGradGradGradGradGradGradGradGradGradGradGradGradGradGradGradGradGrad
 Berny optimization.
 Initialization pass.
 Trust Radius=3.00D-01 FncErr=1.00D-07 GrdErr=1.00D-07 EigMax=2.50D+02 EigMin=1.00D-04
 Number of steps in this run=      2 maximum allowed number of steps=      2.
 GradGradGradGradGradGradGradGradGradGradGradGradGradGradGradGradGradGrad

 Leave Link  103 at Sun Oct 13 09:51:29 2024, MaxMem=  2684354560 cpu:               0.5 elap:               0.1
 (Enter /usr/local/g16_AVX//g16/l202.exe)
                          Input orientation:                          
 ---------------------------------------------------------------------
 Center     Atomic      Atomic             Coordinates (Angstroms)
 Number     Number       Type             X           Y           Z
 ---------------------------------------------------------------------
      1          6           0       -0.306655    0.000001   -0.000150
      2         17           0       -2.159252   -0.000002    0.000050
      3          1           0        0.011803    0.002358   -1.035580
      4          1           0        0.011788    0.895522    0.519647
      5          1           0        0.011797   -0.897882    0.515553
      6          6           0        2.408950    0.000015   -0.000264
      7          7           0        3.588023   -0.000008    0.000258
 ---------------------------------------------------------------------
                    Distance matrix (angstroms):
                    1          2          3          4          5
     1  C    0.000000
     2  Cl   1.852597   0.000000
     3  H    1.083299   2.405414   0.000000
     4  H    1.083306   2.405277   1.793453   0.000000
     5  H    1.083308   2.405283   1.793445   1.793409   0.000000
     6  C    2.715605   4.568202   2.611168   2.611250   2.611250
     7  N    3.894678   5.747275   3.723213   3.723063   3.723050
                    6          7
     6  C    0.000000
     7  N    1.179073   0.000000
 Symmetry turned off by external request.
 This structure is nearly, but not quite of a higher symmetry.
 Consider Symm=Loose if the higher symmetry is desired.
 Stoichiometry    C2H3ClN(1-)
 Framework group  C1[X(C2H3ClN)]
 Deg. of freedom    15
 Full point group                 C1      NOp   1
 Rotational constants (GHZ):         155.9050618           1.2157357           1.2157354
 Leave Link  202 at Sun Oct 13 09:51:29 2024, MaxMem=  2684354560 cpu:               0.2 elap:               0.0
 (Enter /usr/local/g16_AVX//g16/l301.exe)
 Standard basis: 6-31++G(d,p) (6D, 7F)
 Ernie: Thresh=  0.10000D-02 Tol=  0.10000D-05 Strict=F.
    98 basis functions,   176 primitive gaussians,    98 cartesian basis functions
    20 alpha electrons       20 beta electrons
       nuclear repulsion energy       111.0101386874 Hartrees.
 IExCor=  402 DFT=T Ex+Corr=B3LYP ExCW=0 ScaHFX=  0.200000
 ScaDFX=  0.800000  0.720000  1.000000  0.810000 ScalE2=  1.000000  1.000000
 IRadAn=      5 IRanWt=     -1 IRanGd=            0 ICorTp=0 IEmpDi=  4
 NAtoms=    7 NActive=    7 NUniq=    7 SFac= 1.00D+00 NAtFMM=   60 NAOKFM=F Big=F
 Integral buffers will be    131072 words long.
 Raffenetti 2 integral format.
 Two-electron integral symmetry is turned off.
 Leave Link  301 at Sun Oct 13 09:51:29 2024, MaxMem=  2684354560 cpu:               1.4 elap:               0.1
 (Enter /usr/local/g16_AVX//g16/l302.exe)
 NPDir=0 NMtPBC=     1 NCelOv=     1 NCel=       1 NClECP=     1 NCelD=      1
         NCelK=      1 NCelE2=     1 NClLst=     1 CellRange=     0.0.
 One-electron integrals computed using PRISM.
 NBasis=    98 RedAO= T EigKep=  1.22D-04  NBF=    98
 NBsUse=    98 1.00D-06 EigRej= -1.00D+00 NBFU=    98
 Precomputing XC quadrature grid using
 IXCGrd= 4 IRadAn=           5 IRanWt=          -1 IRanGd=           0 AccXCQ= 0.00D+00.
 Generated NRdTot=       0 NPtTot=           0 NUsed=           0 NTot=          32
 NSgBfM=    98    98    98    98    98 MxSgAt=     7 MxSgA2=     7.
 Leave Link  302 at Sun Oct 13 09:51:29 2024, MaxMem=  2684354560 cpu:               3.8 elap:               0.2
 (Enter /usr/local/g16_AVX//g16/l303.exe)
 DipDrv:  MaxL=1.
 Leave Link  303 at Sun Oct 13 09:51:29 2024, MaxMem=  2684354560 cpu:               0.7 elap:               0.1
 (Enter /usr/local/g16_AVX//g16/l401.exe)
 ExpMin= 3.60D-02 ExpMax= 2.52D+04 ExpMxC= 3.78D+03 IAcc=3 IRadAn=         5 AccDes= 0.00D+00
 Harris functional with IExCor=  402 and IRadAn=       5 diagonalized for initial guess.
 HarFok:  IExCor=  402 AccDes= 0.00D+00 IRadAn=         5 IDoV= 1 UseB2=F ITyADJ=14
 ICtDFT=  3500011 ScaDFX=  1.000000  1.000000  1.000000  1.000000
 FoFCou: FMM=F IPFlag=           0 FMFlag=      100000 FMFlg1=           0
         NFxFlg=           0 DoJE=T BraDBF=F KetDBF=T FulRan=T
         wScrn=  0.000000 ICntrl=       500 IOpCl=  0 I1Cent=   200000004 NGrid=           0
         NMat0=    1 NMatS0=      1 NMatT0=    0 NMatD0=    1 NMtDS0=    0 NMtDT0=    0
 Symmetry not used in FoFCou.
 Harris En= -593.075246828960    
 JPrj=0 DoOrth=F DoCkMO=F.
 Leave Link  401 at Sun Oct 13 09:51:29 2024, MaxMem=  2684354560 cpu:               5.7 elap:               0.3
 (Enter /usr/local/g16_AVX//g16/l502.exe)
 Keep R1 ints in memory in canonical form, NReq=35752935.
 FoFCou: FMM=F IPFlag=           0 FMFlag=           0 FMFlg1=           0
         NFxFlg=           0 DoJE=F BraDBF=F KetDBF=F FulRan=T
         wScrn=  0.000000 ICntrl=       600 IOpCl=  0 I1Cent=           0 NGrid=           0
         NMat0=    1 NMatS0=   4851 NMatT0=    0 NMatD0=    1 NMtDS0=    0 NMtDT0=    0
 Symmetry not used in FoFCou.
 Two-electron integral symmetry not used.
 Closed shell SCF:
 Using DIIS extrapolation, IDIIS=  1040.
 NGot=  2684354560 LenX=  2672563405 LenY=  2672553360
 Requested convergence on RMS density matrix=1.00D-08 within 128 cycles.
 Requested convergence on MAX density matrix=1.00D-06.
 Requested convergence on             energy=1.00D-06.
 No special actions if energy rises.

 Cycle   1  Pass 1  IDiag  1:
 E= -592.838545598103    
 DIIS: error= 3.47D-02 at cycle   1 NSaved=   1.
 NSaved= 1 IEnMin= 1 EnMin= -592.838545598103     IErMin= 1 ErrMin= 3.47D-02
 ErrMax= 3.47D-02  0.00D+00 EMaxC= 1.00D-01 BMatC= 1.33D-01 BMatP= 1.33D-01
 IDIUse=3 WtCom= 6.53D-01 WtEn= 3.47D-01
 Coeff-Com:  0.100D+01
 Coeff-En:   0.100D+01
 Coeff:      0.100D+01
 Gap=     0.625 Goal=   None    Shift=    0.000
 GapD=    0.625 DampG=2.000 DampE=0.500 DampFc=1.0000 IDamp=-1.
 RMSDP=9.57D-02 MaxDP=3.39D+00              OVMax= 3.88D-01

 Cycle   2  Pass 1  IDiag  1:
 E= -592.628693069208     Delta-E=        0.209852528895 Rises=F Damp=F
 DIIS: error= 4.74D-02 at cycle   2 NSaved=   2.
 NSaved= 2 IEnMin= 1 EnMin= -592.838545598103     IErMin= 1 ErrMin= 3.47D-02
 ErrMax= 4.74D-02  0.00D+00 EMaxC= 1.00D-01 BMatC= 3.03D-01 BMatP= 1.33D-01
 IDIUse=2 WtCom= 0.00D+00 WtEn= 1.00D+00
 Coeff-En:   0.688D+00 0.312D+00
 Coeff:      0.688D+00 0.312D+00
 Gap=     0.156 Goal=   None    Shift=    0.000
 RMSDP=9.40D-02 MaxDP=3.40D+00 DE= 2.10D-01 OVMax= 2.55D-01

 Cycle   3  Pass 1  IDiag  1:
 E= -592.981531536319     Delta-E=       -0.352838467110 Rises=F Damp=F
 DIIS: error= 8.15D-03 at cycle   3 NSaved=   3.
 NSaved= 3 IEnMin= 3 EnMin= -592.981531536319     IErMin= 3 ErrMin= 8.15D-03
 ErrMax= 8.15D-03  0.00D+00 EMaxC= 1.00D-01 BMatC= 1.05D-02 BMatP= 1.33D-01
 IDIUse=3 WtCom= 9.18D-01 WtEn= 8.15D-02
 Coeff-Com:  0.265D+00 0.966D-01 0.638D+00
 Coeff-En:   0.000D+00 0.000D+00 0.100D+01
 Coeff:      0.243D+00 0.888D-01 0.668D+00
 Gap=     0.187 Goal=   None    Shift=    0.000
 RMSDP=2.93D-03 MaxDP=5.12D-02 DE=-3.53D-01 OVMax= 5.17D-02

 Cycle   4  Pass 1  IDiag  1:
 E= -592.986246854716     Delta-E=       -0.004715318397 Rises=F Damp=F
 DIIS: error= 1.16D-02 at cycle   4 NSaved=   4.
 NSaved= 4 IEnMin= 4 EnMin= -592.986246854716     IErMin= 3 ErrMin= 8.15D-03
 ErrMax= 1.16D-02  0.00D+00 EMaxC= 1.00D-01 BMatC= 7.13D-03 BMatP= 1.05D-02
 IDIUse=3 WtCom= 8.84D-01 WtEn= 1.16D-01
 Coeff-Com:  0.529D-01-0.262D-01 0.501D+00 0.473D+00
 Coeff-En:   0.000D+00 0.000D+00 0.381D+00 0.619D+00
 Coeff:      0.468D-01-0.231D-01 0.487D+00 0.490D+00
 Gap=     0.179 Goal=   None    Shift=    0.000
 RMSDP=1.04D-03 MaxDP=1.63D-02 DE=-4.72D-03 OVMax= 2.99D-02

 Cycle   5  Pass 1  IDiag  1:
 E= -592.992620715311     Delta-E=       -0.006373860595 Rises=F Damp=F
 DIIS: error= 2.82D-03 at cycle   5 NSaved=   5.
 NSaved= 5 IEnMin= 5 EnMin= -592.992620715311     IErMin= 5 ErrMin= 2.82D-03
 ErrMax= 2.82D-03  0.00D+00 EMaxC= 1.00D-01 BMatC= 3.56D-04 BMatP= 7.13D-03
 IDIUse=3 WtCom= 9.72D-01 WtEn= 2.82D-02
 Coeff-Com:  0.177D-01-0.135D-01 0.235D+00 0.282D+00 0.479D+00
 Coeff-En:   0.000D+00 0.000D+00 0.000D+00 0.000D+00 0.100D+01
 Coeff:      0.172D-01-0.131D-01 0.228D+00 0.274D+00 0.494D+00
 Gap=     0.182 Goal=   None    Shift=    0.000
 RMSDP=3.34D-04 MaxDP=5.32D-03 DE=-6.37D-03 OVMax= 7.40D-03

 Cycle   6  Pass 1  IDiag  1:
 E= -592.992943062445     Delta-E=       -0.000322347134 Rises=F Damp=F
 DIIS: error= 8.99D-04 at cycle   6 NSaved=   6.
 NSaved= 6 IEnMin= 6 EnMin= -592.992943062445     IErMin= 6 ErrMin= 8.99D-04
 ErrMax= 8.99D-04  0.00D+00 EMaxC= 1.00D-01 BMatC= 3.41D-05 BMatP= 3.56D-04
 IDIUse=3 WtCom= 9.91D-01 WtEn= 8.99D-03
 Coeff-Com:  0.330D-02-0.636D-02 0.622D-01 0.758D-01 0.260D+00 0.606D+00
 Coeff-En:   0.000D+00 0.000D+00 0.000D+00 0.000D+00 0.708D-01 0.929D+00
 Coeff:      0.328D-02-0.631D-02 0.616D-01 0.751D-01 0.258D+00 0.608D+00
 Gap=     0.182 Goal=   None    Shift=    0.000
 RMSDP=8.10D-05 MaxDP=1.58D-03 DE=-3.22D-04 OVMax= 1.80D-03

 Cycle   7  Pass 1  IDiag  1:
 E= -592.992975531543     Delta-E=       -0.000032469098 Rises=F Damp=F
 DIIS: error= 7.22D-05 at cycle   7 NSaved=   7.
 NSaved= 7 IEnMin= 7 EnMin= -592.992975531543     IErMin= 7 ErrMin= 7.22D-05
 ErrMax= 7.22D-05  0.00D+00 EMaxC= 1.00D-01 BMatC= 4.76D-07 BMatP= 3.41D-05
 IDIUse=1 WtCom= 1.00D+00 WtEn= 0.00D+00
 Coeff-Com:  0.361D-03-0.872D-03 0.284D-02 0.253D-02 0.465D-01 0.190D+00
 Coeff-Com:  0.759D+00
 Coeff:      0.361D-03-0.872D-03 0.284D-02 0.253D-02 0.465D-01 0.190D+00
 Coeff:      0.759D+00
 Gap=     0.182 Goal=   None    Shift=    0.000
 RMSDP=1.46D-05 MaxDP=2.95D-04 DE=-3.25D-05 OVMax= 2.97D-04

 Cycle   8  Pass 1  IDiag  1:
 E= -592.992976076744     Delta-E=       -0.000000545201 Rises=F Damp=F
 DIIS: error= 1.34D-05 at cycle   8 NSaved=   8.
 NSaved= 8 IEnMin= 8 EnMin= -592.992976076744     IErMin= 8 ErrMin= 1.34D-05
 ErrMax= 1.34D-05  0.00D+00 EMaxC= 1.00D-01 BMatC= 2.31D-08 BMatP= 4.76D-07
 IDIUse=1 WtCom= 1.00D+00 WtEn= 0.00D+00
 Coeff-Com:  0.103D-03-0.148D-03 0.811D-04 0.303D-03 0.121D-01 0.523D-01
 Coeff-Com:  0.260D+00 0.675D+00
 Coeff:      0.103D-03-0.148D-03 0.811D-04 0.303D-03 0.121D-01 0.523D-01
 Coeff:      0.260D+00 0.675D+00
 Gap=     0.182 Goal=   None    Shift=    0.000
 RMSDP=2.85D-06 MaxDP=8.34D-05 DE=-5.45D-07 OVMax= 5.41D-05

 Cycle   9  Pass 1  IDiag  1:
 E= -592.992976100615     Delta-E=       -0.000000023872 Rises=F Damp=F
 DIIS: error= 3.48D-06 at cycle   9 NSaved=   9.
 NSaved= 9 IEnMin= 9 EnMin= -592.992976100615     IErMin= 9 ErrMin= 3.48D-06
 ErrMax= 3.48D-06  0.00D+00 EMaxC= 1.00D-01 BMatC= 2.12D-09 BMatP= 2.31D-08
 IDIUse=1 WtCom= 1.00D+00 WtEn= 0.00D+00
 Coeff-Com: -0.147D-04 0.187D-04-0.152D-03 0.181D-03 0.142D-02 0.463D-02
 Coeff-Com:  0.331D-01 0.242D+00 0.719D+00
 Coeff:     -0.147D-04 0.187D-04-0.152D-03 0.181D-03 0.142D-02 0.463D-02
 Coeff:      0.331D-01 0.242D+00 0.719D+00
 Gap=     0.182 Goal=   None    Shift=    0.000
 RMSDP=8.96D-07 MaxDP=2.03D-05 DE=-2.39D-08 OVMax= 1.27D-05

 Cycle  10  Pass 1  IDiag  1:
 E= -592.992976102962     Delta-E=       -0.000000002346 Rises=F Damp=F
 DIIS: error= 3.55D-07 at cycle  10 NSaved=  10.
 NSaved=10 IEnMin=10 EnMin= -592.992976102962     IErMin=10 ErrMin= 3.55D-07
 ErrMax= 3.55D-07  0.00D+00 EMaxC= 1.00D-01 BMatC= 2.15D-11 BMatP= 2.12D-09
 IDIUse=1 WtCom= 1.00D+00 WtEn= 0.00D+00
 Coeff-Com: -0.908D-05 0.705D-05-0.202D-04 0.300D-04-0.526D-04-0.675D-03
 Coeff-Com: -0.189D-02 0.163D-01 0.125D+00 0.861D+00
 Coeff:     -0.908D-05 0.705D-05-0.202D-04 0.300D-04-0.526D-04-0.675D-03
 Coeff:     -0.189D-02 0.163D-01 0.125D+00 0.861D+00
 Gap=     0.182 Goal=   None    Shift=    0.000
 RMSDP=1.62D-07 MaxDP=3.43D-06 DE=-2.35D-09 OVMax= 2.29D-06

 Cycle  11  Pass 1  IDiag  1:
 E= -592.992976102989     Delta-E=       -0.000000000028 Rises=F Damp=F
 DIIS: error= 6.42D-08 at cycle  11 NSaved=  11.
 NSaved=11 IEnMin=11 EnMin= -592.992976102989     IErMin=11 ErrMin= 6.42D-08
 ErrMax= 6.42D-08  0.00D+00 EMaxC= 1.00D-01 BMatC= 4.16D-13 BMatP= 2.15D-11
 IDIUse=1 WtCom= 1.00D+00 WtEn= 0.00D+00
 Coeff-Com: -0.124D-05 0.658D-06-0.908D-05-0.126D-04-0.559D-04-0.163D-03
 Coeff-Com: -0.182D-03-0.233D-02 0.314D-02 0.949D-01 0.905D+00
 Coeff:     -0.124D-05 0.658D-06-0.908D-05-0.126D-04-0.559D-04-0.163D-03
 Coeff:     -0.182D-03-0.233D-02 0.314D-02 0.949D-01 0.905D+00
 Gap=     0.182 Goal=   None    Shift=    0.000
 RMSDP=4.28D-08 MaxDP=8.46D-07 DE=-2.77D-11 OVMax= 4.50D-07

 Cycle  12  Pass 1  IDiag  1:
 E= -592.992976102989     Delta-E=        0.000000000000 Rises=F Damp=F
 DIIS: error= 6.89D-09 at cycle  12 NSaved=  12.
 NSaved=12 IEnMin=11 EnMin= -592.992976102989     IErMin=12 ErrMin= 6.89D-09
 ErrMax= 6.89D-09  0.00D+00 EMaxC= 1.00D-01 BMatC= 4.93D-15 BMatP= 4.16D-13
 IDIUse=1 WtCom= 1.00D+00 WtEn= 0.00D+00
 Coeff-Com: -0.467D-07 0.759D-08-0.969D-06-0.243D-05-0.939D-05-0.217D-04
 Coeff-Com: -0.344D-04-0.732D-03-0.228D-02 0.105D-02 0.114D+00 0.888D+00
 Coeff:     -0.467D-07 0.759D-08-0.969D-06-0.243D-05-0.939D-05-0.217D-04
 Coeff:     -0.344D-04-0.732D-03-0.228D-02 0.105D-02 0.114D+00 0.888D+00
 Gap=     0.182 Goal=   None    Shift=    0.000
 RMSDP=2.23D-09 MaxDP=4.57D-08 DE= 2.27D-13 OVMax= 4.68D-08

 SCF Done:  E(RB3LYP) =  -592.992976103     A.U. after   12 cycles
            NFock= 12  Conv=0.22D-08     -V/T= 2.0045
 KE= 5.903363601581D+02 PE=-1.631826436114D+03 EE= 3.374869611657D+02
 Leave Link  502 at Sun Oct 13 09:51:31 2024, MaxMem=  2684354560 cpu:              35.6 elap:               1.7
 (Enter /usr/local/g16_AVX//g16/l801.exe)
 DoSCS=F DFT=T ScalE2(SS,OS)=  1.000000  1.000000
 Range of M.O.s used for correlation:     1    98
 NBasis=    98 NAE=    20 NBE=    20 NFC=     0 NFV=     0
 NROrb=     98 NOA=    20 NOB=    20 NVA=    78 NVB=    78

 **** Warning!!: The largest alpha MO coefficient is  0.35654031D+02

 Leave Link  801 at Sun Oct 13 09:51:31 2024, MaxMem=  2684354560 cpu:               0.7 elap:               0.1
 (Enter /usr/local/g16_AVX//g16/l1101.exe)
 Using compressed storage, NAtomX=     7.
 Will process      8 centers per pass.
 Leave Link 1101 at Sun Oct 13 09:51:31 2024, MaxMem=  2684354560 cpu:               3.2 elap:               0.2
 (Enter /usr/local/g16_AVX//g16/l1102.exe)
 Symmetrizing basis deriv contribution to polar:
 IMax=3 JMax=2 DiffMx= 0.00D+00
 Leave Link 1102 at Sun Oct 13 09:51:32 2024, MaxMem=  2684354560 cpu:               0.7 elap:               0.1
 (Enter /usr/local/g16_AVX//g16/l1110.exe)
 Forming Gx(P) for the SCF density, NAtomX=     7.
 Integral derivatives from FoFJK, PRISM(SPDF).
 Do as many integral derivatives as possible in FoFJK.
 G2DrvN: MDV=    2684353864.
 G2DrvN: will do     8 centers at a time, making    1 passes.
 Calling FoFCou, ICntrl=  3107 FMM=F I1Cent=   0 AccDes= 0.00D+00.
 FoFJK:  IHMeth= 1 ICntrl=    3107 DoSepK=F KAlg= 0 I1Cent=           0 FoldK=F
 IRaf=         0 NMat=       1 IRICut=       1 DoRegI=T DoRafI=F ISym2E= 0 IDoP0=0 IntGTp=1.
 FoFCou: FMM=F IPFlag=           0 FMFlag=      100000 FMFlg1=           0
         NFxFlg=           0 DoJE=F BraDBF=F KetDBF=F FulRan=T
         wScrn=  0.000000 ICntrl=      3107 IOpCl=  0 I1Cent=           0 NGrid=           0
         NMat0=    1 NMatS0=      1 NMatT0=    0 NMatD0=    1 NMtDS0=    0 NMtDT0=    0
 Symmetry not used in FoFCou.
 End of G2Drv F.D. properties file   721 does not exist.
 End of G2Drv F.D. properties file   722 does not exist.
 End of G2Drv F.D. properties file   788 does not exist.
 Leave Link 1110 at Sun Oct 13 09:51:33 2024, MaxMem=  2684354560 cpu:              37.6 elap:               1.5
 (Enter /usr/local/g16_AVX//g16/l1002.exe)
 Minotr:  Closed shell wavefunction.
          IDoAtm=1111111
          Direct CPHF calculation.
          Differentiating once with respect to electric field.
                with respect to dipole field.
          Differentiating once with respect to nuclear coordinates.
          Requested convergence is 1.0D-08 RMS, and 1.0D-07 maximum.
          Secondary convergence is 1.0D-12 RMS, and 1.0D-12 maximum.
          NewPWx=T KeepS1=F KeepF1=F KeepIn=T MapXYZ=F SortEE=F KeepMc=T.
         2136 words used for storage of precomputed grid.
 Keep R1 ints in memory in canonical form, NReq=35668397.
 FoFCou: FMM=F IPFlag=           0 FMFlag=           0 FMFlg1=           0
         NFxFlg=           0 DoJE=F BraDBF=F KetDBF=F FulRan=T
         wScrn=  0.000000 ICntrl=       600 IOpCl=  0 I1Cent=           0 NGrid=           0
         NMat0=    1 NMatS0=   4851 NMatT0=    0 NMatD0=    1 NMtDS0=    0 NMtDT0=    0
 Symmetry not used in FoFCou.
 Two-electron integral symmetry not used.
          MDV=    2684354560 using IRadAn=       1.
          Solving linear equations simultaneously, MaxMat=       0.
          There are    24 degrees of freedom in the 1st order CPHF.  IDoFFX=6 NUNeed=     3.
     21 vectors produced by pass  0 Test12= 6.50D-15 4.17D-09 XBig12= 8.73D+01 4.63D+00.
 AX will form    21 AO Fock derivatives at one time.
     21 vectors produced by pass  1 Test12= 6.50D-15 4.17D-09 XBig12= 4.42D+01 1.96D+00.
     21 vectors produced by pass  2 Test12= 6.50D-15 4.17D-09 XBig12= 1.18D+00 2.74D-01.
     21 vectors produced by pass  3 Test12= 6.50D-15 4.17D-09 XBig12= 2.30D-02 3.96D-02.
     21 vectors produced by pass  4 Test12= 6.50D-15 4.17D-09 XBig12= 7.56D-05 2.06D-03.
     16 vectors produced by pass  5 Test12= 6.50D-15 4.17D-09 XBig12= 1.89D-07 9.33D-05.
      6 vectors produced by pass  6 Test12= 6.50D-15 4.17D-09 XBig12= 2.25D-10 2.53D-06.
      1 vectors produced by pass  7 Test12= 6.50D-15 4.17D-09 XBig12= 2.31D-13 1.03D-07.
 InvSVY:  IOpt=1 It=  1 EMax= 1.78D-15
 Solved reduced A of dimension   128 with    24 vectors.
 FullF1:  Do perturbations      1 to       3.
 Isotropic polarizability for W=    0.000000       57.22 Bohr**3.
 End of Minotr F.D. properties file   721 does not exist.
 End of Minotr F.D. properties file   722 does not exist.
 End of Minotr F.D. properties file   788 does not exist.
 Leave Link 1002 at Sun Oct 13 09:51:35 2024, MaxMem=  2684354560 cpu:              51.0 elap:               2.0
 (Enter /usr/local/g16_AVX//g16/l601.exe)
 Copying SCF densities to generalized density rwf, IOpCl= 0 IROHF=0.

 **********************************************************************

            Population analysis using the SCF Density.

 **********************************************************************

 Alpha  occ. eigenvalues -- -101.40207 -14.09716 -10.09654  -9.96153  -9.31827
 Alpha  occ. eigenvalues --   -7.08108  -7.07303  -7.07303  -0.70539  -0.65092
 Alpha  occ. eigenvalues --   -0.53562  -0.30252  -0.30251  -0.26900  -0.18419
 Alpha  occ. eigenvalues --   -0.16969  -0.16968  -0.09982  -0.09982  -0.07093
 Alpha virt. eigenvalues --    0.11117   0.13082   0.14672   0.14672   0.17205
 Alpha virt. eigenvalues --    0.20489   0.20534   0.20534   0.22178   0.22180
 Alpha virt. eigenvalues --    0.24448   0.25094   0.25094   0.27163   0.27377
 Alpha virt. eigenvalues --    0.27378   0.31511   0.33954   0.33955   0.36434
 Alpha virt. eigenvalues --    0.38544   0.38628   0.38629   0.46731   0.48248
 Alpha virt. eigenvalues --    0.66881   0.74138   0.74925   0.74925   0.77873
 Alpha virt. eigenvalues --    0.77873   0.88632   0.89606   0.89607   0.98616
 Alpha virt. eigenvalues --    1.00157   1.00158   1.05182   1.05184   1.08361
 Alpha virt. eigenvalues --    1.09918   1.09921   1.12383   1.19048   1.19048
 Alpha virt. eigenvalues --    1.26638   1.27888   1.36485   1.48575   1.60681
 Alpha virt. eigenvalues --    1.60684   1.77901   1.77902   1.79250   1.80234
 Alpha virt. eigenvalues --    1.80234   2.15892   2.19973   2.19973   2.22022
 Alpha virt. eigenvalues --    2.22025   2.27992   2.50309   2.50314   2.66124
 Alpha virt. eigenvalues --    2.83290   2.83290   2.84821   2.96278   2.96281
 Alpha virt. eigenvalues --    3.26397   3.39649   3.56249   3.56250   4.21612
 Alpha virt. eigenvalues --    4.42754   4.46291   4.57163
          Condensed to atoms (all electrons):
               1          2          3          4          5          6
     1  C    5.485212  -0.121472   0.422371   0.422341   0.422341  -0.212091
     2  Cl  -0.121472  17.406214  -0.051406  -0.051384  -0.051384   0.083790
     3  H    0.422371  -0.051406   0.507668  -0.023394  -0.023396  -0.044058
     4  H    0.422341  -0.051384  -0.023394   0.507707  -0.023396  -0.044058
     5  H    0.422341  -0.051384  -0.023396  -0.023396   0.507707  -0.044056
     6  C   -0.212091   0.083790  -0.044058  -0.044058  -0.044056   6.085374
     7  N   -0.002566  -0.003226  -0.000012  -0.000013  -0.000013   0.668036
               7
     1  C   -0.002566
     2  Cl  -0.003226
     3  H   -0.000012
     4  H   -0.000013
     5  H   -0.000013
     6  C    0.668036
     7  N    6.854209
 Mulliken charges:
               1
     1  C   -0.416137
     2  Cl  -0.211133
     3  H    0.212227
     4  H    0.212197
     5  H    0.212197
     6  C   -0.492937
     7  N   -0.516413
 Sum of Mulliken charges =  -1.00000
 Mulliken charges with hydrogens summed into heavy atoms:
               1
     1  C    0.220484
     2  Cl  -0.211133
     6  C   -0.492937
     7  N   -0.516413
 APT charges:
               1
     1  C    0.693364
     2  Cl  -0.707033
     3  H    0.012897
     4  H    0.012858
     5  H    0.012857
     6  C   -0.397525
     7  N   -0.627418
 Sum of APT charges =  -1.00000
 APT charges with hydrogens summed into heavy atoms:
               1
     1  C    0.731976
     2  Cl  -0.707033
     6  C   -0.397525
     7  N   -0.627418
 Electronic spatial extent (au):  <R**2>=            861.3349
 Charge=             -1.0000 electrons
 Dipole moment (field-independent basis, Debye):
    X=             -9.4039    Y=             -0.0000    Z=             -0.0001  Tot=              9.4039
 Quadrupole moment (field-independent basis, Debye-Ang):
   XX=            -88.7384   YY=            -35.4155   ZZ=            -35.4153
   XY=              0.0000   XZ=             -0.0015   YZ=              0.0000
 Traceless Quadrupole moment (field-independent basis, Debye-Ang):
   XX=            -35.5486   YY=             17.7742   ZZ=             17.7744
   XY=              0.0000   XZ=             -0.0015   YZ=              0.0000
 Octapole moment (field-independent basis, Debye-Ang**2):
  XXX=           -176.7578  YYY=             -0.0062  ZZZ=             -0.8848  XYY=            -11.3576
  XXY=              0.0003  XXZ=             -0.0087  XZZ=            -11.3576  YZZ=              0.0060
  YYZ=              0.8873  XYZ=             -0.0000
 Hexadecapole moment (field-independent basis, Debye-Ang**3):
 XXXX=          -1847.7167 YYYY=            -55.9745 ZZZZ=            -55.9738 XXXY=              0.0011
 XXXZ=             -0.0493 YYYX=             -0.0010 YYYZ=              0.0000 ZZZX=             -0.0912
 ZZZY=              0.0000 XXYY=           -222.1204 XXZZ=           -222.1201 YYZZ=            -18.6583
 XXYZ=             -0.0000 YYXZ=              0.0898 ZZXY=              0.0005
 N-N= 1.110101386874D+02 E-N=-1.631826436016D+03  KE= 5.903363601581D+02
  Exact polarizability:  92.544  -0.000  39.558   0.004   0.000  39.559
 Approx polarizability: 114.211  -0.000  49.544   0.008   0.000  49.544
 No NMR shielding tensors so no spin-rotation constants.
 Leave Link  601 at Sun Oct 13 09:51:35 2024, MaxMem=  2684354560 cpu:               2.6 elap:               0.1
 (Enter /usr/local/g16_AVX//g16/l701.exe)
 ... and contract with generalized density number  0.
 Compute integral second derivatives.
 Leave Link  701 at Sun Oct 13 09:51:36 2024, MaxMem=  2684354560 cpu:               4.4 elap:               0.2
 (Enter /usr/local/g16_AVX//g16/l702.exe)
 L702 exits ... SP integral derivatives will be done elsewhere.
 Leave Link  702 at Sun Oct 13 09:51:36 2024, MaxMem=  2684354560 cpu:               0.6 elap:               0.1
 (Enter /usr/local/g16_AVX//g16/l703.exe)
 Integral derivatives from FoFJK, PRISM(SPDF).
 Compute integral second derivatives, UseDBF=F ICtDFT=           0.
 Calling FoFJK, ICntrl=    100127 FMM=F ISym2X=0 I1Cent= 0 IOpClX= 0 NMat=1 NMatS=1 NMatT=0.
 FoFJK:  IHMeth= 1 ICntrl=  100127 DoSepK=F KAlg= 0 I1Cent=           0 FoldK=F
 IRaf=         0 NMat=       1 IRICut=       1 DoRegI=T DoRafI=F ISym2E= 0 IDoP0=0 IntGTp=1.
 FoFCou: FMM=F IPFlag=           0 FMFlag=      100000 FMFlg1=         800
         NFxFlg=           0 DoJE=F BraDBF=F KetDBF=F FulRan=T
         wScrn=  0.000000 ICntrl=    100127 IOpCl=  0 I1Cent=           0 NGrid=           0
         NMat0=    1 NMatS0=      1 NMatT0=    0 NMatD0=    1 NMtDS0=    0 NMtDT0=    0
 Symmetry not used in FoFCou.
 Leave Link  703 at Sun Oct 13 09:51:38 2024, MaxMem=  2684354560 cpu:              65.8 elap:               2.6
 (Enter /usr/local/g16_AVX//g16/l716.exe)
 Dipole        =-3.69978388D+00-5.84400444D-06-5.21208966D-05
 Polarizability= 9.25440264D+01-1.84937786D-04 3.95580309D+01
                 4.08958830D-03 3.30755530D-06 3.95585760D+01
 Full mass-weighted force constant matrix:
 Low frequencies ---  -97.2174  -97.2131  -41.6581  -41.6530   -0.0048   -0.0045
 Low frequencies ---    0.0031  105.0708  135.9538
 ******    2 imaginary frequencies (negative Signs) ****** 
 Diagonal vibrational polarizability:
       89.2993543      17.2245859      17.2269135
 Harmonic frequencies (cm**-1), IR intensities (KM/Mole), Raman scattering
 activities (A**4/AMU), depolarization ratios for plane and unpolarized
 incident light, reduced masses (AMU), force constants (mDyne/A),
 and normal coordinates:
                      1                      2                      3
                      A                      A                      A
 Frequencies --    -97.1863               -97.1821               135.8983
 Red. masses --      9.8832                 9.8839                 3.7297
 Frc consts  --      0.0550                 0.0550                 0.0406
 IR Inten    --      0.0111                 0.0111                11.7359
  Atom  AN      X      Y      Z        X      Y      Z        X      Y      Z
     1   6    -0.00  -0.00   0.21     0.00   0.21   0.00    -0.00  -0.05   0.40
     2  17    -0.00   0.00  -0.11     0.00  -0.11  -0.00    -0.00   0.01  -0.10
     3   1     0.17  -0.01   0.27     0.00   0.27   0.01     0.25  -0.06   0.48
     4   1    -0.08  -0.01   0.27    -0.15   0.27   0.00    -0.10  -0.05   0.46
     5   1    -0.09  -0.00   0.27     0.15   0.27   0.01    -0.15  -0.07   0.47
     6   6    -0.00  -0.01   0.64     0.00   0.64   0.01     0.00   0.03  -0.24
     7   7     0.00   0.01  -0.52    -0.00  -0.52  -0.01     0.00  -0.00   0.01
                      4                      5                      6
                      A                      A                      A
 Frequencies --    135.9062               177.4310               556.3480
 Red. masses --      3.7297                12.1776                10.2399
 Frc consts  --      0.0406                 0.2259                 1.8674
 IR Inten    --     11.7356                70.6884               325.8174
  Atom  AN      X      Y      Z        X      Y      Z        X      Y      Z
     1   6    -0.00   0.40   0.05    -0.33   0.00  -0.00     0.75  -0.00  -0.00
     2  17    -0.00  -0.10  -0.01    -0.28  -0.00   0.00    -0.30   0.00   0.00
     3   1     0.03   0.46   0.06    -0.26  -0.00   0.01     0.32   0.00  -0.11
     4   1    -0.23   0.48   0.07    -0.26  -0.01  -0.01     0.32   0.10   0.06
     5   1     0.20   0.48   0.05    -0.26   0.01  -0.01     0.32  -0.10   0.06
     6   6     0.00  -0.24  -0.03     0.55   0.00  -0.00     0.02   0.00  -0.00
     7   7     0.00   0.01   0.00     0.56  -0.00   0.00     0.02  -0.00   0.00
                      7                      8                      9
                      A                      A                      A
 Frequencies --   1014.7953              1014.8401              1288.6183
 Red. masses --      1.1316                 1.1316                 1.0823
 Frc consts  --      0.6866                 0.6867                 1.0589
 IR Inten    --      0.1512                 0.1516                26.4743
  Atom  AN      X      Y      Z        X      Y      Z        X      Y      Z
     1   6    -0.00   0.00  -0.10     0.00   0.10   0.00    -0.08  -0.00   0.00
     2  17     0.00  -0.00   0.02    -0.00  -0.02  -0.00    -0.02   0.00   0.00
     3   1     0.77  -0.01   0.13    -0.03  -0.22  -0.01     0.55  -0.00   0.17
     4   1    -0.36  -0.05   0.20     0.68  -0.15   0.03     0.55  -0.15  -0.08
     5   1    -0.41   0.03   0.20    -0.65  -0.15  -0.05     0.55   0.15  -0.08
     6   6    -0.00   0.00  -0.00     0.00   0.00   0.00    -0.00  -0.00   0.00
     7   7    -0.00   0.00  -0.00     0.00   0.00   0.00    -0.01   0.00  -0.00
                     10                     11                     12
                      A                      A                      A
 Frequencies --   1452.8948              1452.9156              2161.4821
 Red. masses --      1.0644                 1.0644                12.8156
 Frc consts  --      1.3238                 1.3239                35.2771
 IR Inten    --      7.0772                 7.0731                15.0135
  Atom  AN      X      Y      Z        X      Y      Z        X      Y      Z
     1   6     0.00  -0.07   0.01    -0.00  -0.01  -0.07    -0.00  -0.00   0.00
     2  17     0.00  -0.00   0.00    -0.00  -0.00  -0.00     0.00  -0.00  -0.00
     3   1     0.02   0.75   0.01    -0.27   0.07  -0.13    -0.02   0.00  -0.01
     4   1     0.22   0.13  -0.43     0.15  -0.38   0.50    -0.02   0.01   0.00
     5   1    -0.24   0.06   0.33     0.11   0.39   0.57    -0.02  -0.01   0.00
     6   6    -0.00  -0.00   0.00     0.00  -0.00  -0.00     0.76  -0.00   0.00
     7   7    -0.00   0.00  -0.00     0.00   0.00   0.00    -0.65   0.00  -0.00
                     13                     14                     15
                      A                      A                      A
 Frequencies --   3140.1230              3273.7701              3273.9050
 Red. masses --      1.0232                 1.1128                 1.1128
 Frc consts  --      5.9445                 7.0271                 7.0277
 IR Inten    --     11.0345                 0.0888                 0.0882
  Atom  AN      X      Y      Z        X      Y      Z        X      Y      Z
     1   6     0.04  -0.00   0.00    -0.00  -0.10   0.00     0.00  -0.00  -0.10
     2  17    -0.00   0.00  -0.00     0.00   0.00  -0.00    -0.00   0.00   0.00
     3   1    -0.15  -0.00   0.56     0.01  -0.02  -0.03    -0.23  -0.00   0.78
     4   1    -0.15  -0.48  -0.28     0.19   0.57   0.34     0.12   0.37   0.19
     5   1    -0.15   0.48  -0.28    -0.20   0.59  -0.35     0.11  -0.32   0.17
     6   6     0.00   0.00  -0.00    -0.00   0.00  -0.00     0.00   0.00   0.00
     7   7     0.00  -0.00   0.00    -0.00  -0.00   0.00     0.00  -0.00  -0.00

 -------------------
 - Thermochemistry -
 -------------------
 Temperature   298.150 Kelvin.  Pressure   1.00000 Atm.
 Atom     1 has atomic number  6 and mass  12.00000
 Atom     2 has atomic number 17 and mass  34.96885
 Atom     3 has atomic number  1 and mass   1.00783
 Atom     4 has atomic number  1 and mass   1.00783
 Atom     5 has atomic number  1 and mass   1.00783
 Atom     6 has atomic number  6 and mass  12.00000
 Atom     7 has atomic number  7 and mass  14.00307
 Molecular mass:    75.99540 amu.
 Principal axes and moments of inertia in atomic units:
                           1         2         3
     Eigenvalues --    11.575901484.484841484.48520
           X            1.00000  -0.00001  -0.00000
           Y            0.00000   0.07620   0.99709
           Z            0.00001   0.99709  -0.07620
 This molecule is an asymmetric top.
 Rotational symmetry number  1.
 Rotational temperatures (Kelvin)      7.48226     0.05835     0.05835
 Rotational constants (GHZ):         155.90506     1.21574     1.21574
    2 imaginary frequencies ignored.
 Zero-point vibrational energy     114117.3 (Joules/Mol)
                                   27.27470 (Kcal/Mol)
 Warning -- explicit consideration of   4 degrees of freedom as
           vibrations may cause significant error
 Vibrational temperatures:    195.53   195.54   255.28   800.46  1460.06
          (Kelvin)           1460.13  1854.03  2090.39  2090.42  3109.89
                             4517.94  4710.23  4710.42
 
 Zero-point correction=                           0.043465 (Hartree/Particle)
 Thermal correction to Energy=                    0.048510
 Thermal correction to Enthalpy=                  0.049454
 Thermal correction to Gibbs Free Energy=         0.015012
 Sum of electronic and zero-point Energies=           -592.949511
 Sum of electronic and thermal Energies=              -592.944466
 Sum of electronic and thermal Enthalpies=            -592.943522
 Sum of electronic and thermal Free Energies=         -592.977964
 
                     E (Thermal)             CV                S
                      KCal/Mol        Cal/Mol-Kelvin    Cal/Mol-Kelvin
 Total                   30.441             13.852             72.490
 Electronic               0.000              0.000              0.000
 Translational            0.889              2.981             38.900
 Rotational               0.889              2.981             24.748
 Vibrational             28.663              7.890              8.842
 Vibration     1          0.614              1.917              2.861
 Vibration     2          0.614              1.917              2.861
 Vibration     3          0.628              1.870              2.355
 Vibration     4          0.912              1.126              0.531
                       Q            Log10(Q)             Ln(Q)
 Total Bot       0.124480D-06         -6.904900        -15.899119
 Total V=0       0.122347D+14         13.087593         30.135296
 Vib (Bot)       0.836116D-19        -19.077733        -43.928105
 Vib (Bot)    1  0.149786D+01          0.175472          0.404040
 Vib (Bot)    2  0.149777D+01          0.175446          0.403980
 Vib (Bot)    3  0.113299D+01          0.054226          0.124859
 Vib (Bot)    4  0.280354D+00         -0.552293         -1.271702
 Vib (V=0)       0.821787D+01          0.914759          2.106311
 Vib (V=0)    1  0.207911D+01          0.317878          0.731941
 Vib (V=0)    2  0.207903D+01          0.317860          0.731900
 Vib (V=0)    3  0.173841D+01          0.240153          0.552972
 Vib (V=0)    4  0.107324D+01          0.030695          0.070678
 Electronic      0.100000D+01          0.000000          0.000000
 Translational   0.260396D+08          7.415635         17.075130
 Rotational      0.571740D+05          4.757199         10.953855
 
                                                       RxCoord=2.39930 DE=47.73
                                                             IR Spectrum
 
      3    3                                     2                          1      1         1                                       
      2    1                                     1                          4      2         0                 5              11     
      7    4                                     6                          5      8         1                 5              73     
      4    0                                     1                          3      9         5                 6              76     
 
      X    X                                     X                          X      X         X                 X              XX     
                                                                                   X                           X              X      
                                                                                                               X              X      
                                                                                                               X              X      
                                                                                                               X                     
                                                                                                               X                     
                                                                                                               X                     
                                                                                                               X                     
                                                                                                               X                     
                                                                                                               X                     
                                                                                                               X                     
                                                                                                               X                     
                                                                                                               X                     
                                                                                                               X                     
                                                                                                               X                     
                                                                                                               X                     
                                                                                                               X                     
                                                                                                               X                     
                                                                                                               X                     
                                                                                                               X                     
 
 -------------------------------------------------------------------
 Center     Atomic                   Forces (Hartrees/Bohr)
 Number     Number              X              Y              Z
 -------------------------------------------------------------------
      1        6           0.000858935   -0.000000984    0.000021775
      2       17          -0.011792607   -0.000000266   -0.000006189
      3        1           0.000744752   -0.000001159    0.000821520
      4        1           0.000754628   -0.000714697   -0.000420192
      5        1           0.000753819    0.000717132   -0.000416427
      6        6           0.003162124    0.000000056   -0.000002735
      7        7           0.005518350   -0.000000082    0.000002248
 -------------------------------------------------------------------
 Cartesian Forces:  Max     0.011792607 RMS     0.002960030
 Z-matrix is all fixed cartesians, so copy forces.
 Force constants in Cartesian coordinates: 
                1             2             3             4             5 
      1  0.214352D+00
      2 -0.145277D-05  0.610591D+00
      3 -0.490900D-05  0.287365D-05  0.610656D+00
      4 -0.706388D-01  0.000000D+00  0.132087D-05  0.160940D+00
      5  0.000000D+00 -0.334375D-01  0.000000D+00  0.000000D+00  0.177588D-01
      6  0.274251D-05  0.000000D+00 -0.334408D-01 -0.693957D-05  0.000000D+00
      7 -0.503526D-01 -0.190891D-03  0.837615D-01 -0.245914D-01 -0.426776D-04
      8 -0.186641D-03 -0.494776D-01  0.644669D-03  0.142783D-04  0.599889D-03
      9  0.819208D-01  0.644737D-03 -0.332497D+00 -0.629180D-02 -0.174585D-04
     10 -0.503438D-01 -0.724289D-01 -0.420428D-01 -0.246026D-01 -0.161718D-01
     11 -0.708418D-01 -0.261152D+00 -0.122862D+00  0.544266D-02  0.634219D-02
     12 -0.411201D-01 -0.122864D+00 -0.120789D+00  0.316020D-02  0.333223D-02
     13 -0.503455D-01  0.726211D-01 -0.417124D-01 -0.246021D-01  0.162143D-01
     14  0.710299D-01 -0.262267D+00  0.122214D+00 -0.545714D-02  0.637262D-02
     15 -0.407969D-01  0.122217D+00 -0.119669D+00  0.313536D-02 -0.331473D-02
     16 -0.930169D-03  0.000000D+00  0.000000D+00 -0.863495D-02  0.000000D+00
     17  0.000000D+00 -0.557562D-02  0.000000D+00  0.000000D+00  0.285865D-02
     18 -0.713551D-05  0.000000D+00 -0.557773D-02  0.736798D-05  0.000000D+00
     19  0.825875D-02  0.000000D+00 -0.194546D-05 -0.787046D-02  0.000000D+00
     20  0.000000D+00  0.131730D-02  0.000000D+00  0.000000D+00 -0.494628D-03
     21  0.547416D-05  0.000000D+00  0.131791D-02 -0.550182D-05  0.000000D+00
                6             7             8             9            10 
      6  0.177567D-01
      7  0.186968D-01  0.718626D-01
      8 -0.173489D-04  0.194141D-03  0.458516D-01
      9  0.827713D-02 -0.852099D-01 -0.678716D-03  0.343615D+00
     10 -0.938455D-02  0.359511D-02  0.674364D-02  0.428802D-02  0.718596D-01
     11  0.333108D-02 -0.303752D-03  0.222855D-02  0.259579D-02  0.736828D-01
     12  0.253655D-02 -0.798513D-02 -0.249391D-01 -0.108074D-01  0.427679D-01
     13 -0.931067D-02  0.359534D-02 -0.676306D-02  0.425738D-02  0.359438D-02
     14 -0.331372D-02  0.340276D-03  0.212612D-02 -0.253649D-02  0.706766D-02
     15  0.250622D-02 -0.798379D-02  0.249983D-01 -0.107057D-01  0.372897D-02
     16  0.112628D-05 -0.407702D-02  0.000000D+00  0.311798D-03 -0.406997D-02
     17  0.000000D+00  0.306667D-05 -0.171015D-02 -0.101323D-04  0.116704D-02
     18  0.285880D-02 -0.134926D-02 -0.101530D-04  0.274927D-02  0.677656D-03
     19  0.148167D-05 -0.320932D-04 -0.162773D-05  0.723692D-03 -0.327928D-04
     20  0.000000D+00  0.000000D+00  0.381593D-03  0.227421D-05 -0.604425D-04
     21 -0.494619D-03  0.697995D-04  0.229568D-05 -0.630802D-03 -0.352699D-04
               11            12            13            14            15 
     11  0.268558D+00
     12  0.129265D+00  0.120873D+00
     13 -0.708449D-02  0.369661D-02  0.718606D-01
     14 -0.172280D-01  0.137092D-01 -0.738784D-01  0.269731D+00
     15 -0.138271D-01  0.864533D-02  0.424317D-01 -0.128584D+00  0.119696D+00
     16 -0.270457D-03 -0.156325D-03 -0.406986D-02  0.271084D-03 -0.155036D-03
     17  0.162693D-02  0.193682D-02 -0.117014D-02  0.164463D-02 -0.192666D-02
     18  0.193723D-02 -0.584324D-03  0.672349D-03 -0.192705D-02 -0.601876D-03
     19 -0.624967D-03 -0.363215D-03 -0.327951D-04  0.626584D-03 -0.360315D-03
     20 -0.376100D-03 -0.439796D-03  0.606140D-04 -0.380159D-03  0.437499D-03
     21 -0.440084D-03  0.125673D-03 -0.350002D-04  0.437762D-03  0.129678D-03
               16            17            18            19            20 
     16  0.115792D+01
     17 -0.220804D-04 -0.610746D-03
     18  0.502089D-03  0.000000D+00 -0.610395D-03
     19 -0.113614D+01  0.221180D-04 -0.503062D-03  0.113585D+01
     20  0.221498D-04  0.176631D-02  0.000000D+00 -0.221569D-04 -0.221432D-02
     21 -0.502866D-03  0.000000D+00  0.176626D-02  0.503364D-03  0.000000D+00
               21 
     21 -0.221410D-02
 Leave Link  716 at Sun Oct 13 09:51:38 2024, MaxMem=  2684354560 cpu:               0.9 elap:               0.1
 (Enter /usr/local/g16_AVX//g16/l103.exe)

 GradGradGradGradGradGradGradGradGradGradGradGradGradGradGradGradGradGrad
 Berny optimization.
 Search for a local minimum.
 Step number   1 out of a maximum of    2
 All quantities printed in internal units (Hartrees-Bohrs-Radians)
 Second derivative matrix not updated -- analytic derivatives used.
 ITU=  0
     Eigenvalues ---   -0.00421  -0.00421   0.00345   0.00345   0.01373
     Eigenvalues ---    0.06026   0.06026   0.10884   0.10885   0.10968
     Eigenvalues ---    0.18503   0.47298   0.90233   0.90242   2.28210
 Eigenvalue     1 is  -4.21D-03 should be greater than     0.000000 Eigenvector:
                          Z6        Z7        Z2        Z4        Z5
   1                    0.69263  -0.61754  -0.18283   0.14891   0.14878
                          Z3        X3        Z1        X5        X4
   1                    0.14191   0.14125   0.10268  -0.07319  -0.06835
 Eigenvalue     2 is  -4.21D-03 should be greater than     0.000000 Eigenvector:
                          Y6        Y7        Y2        Y3        Y5
   1                    0.69265  -0.61754  -0.18282   0.15081   0.14443
                          Y4        X4        X5        Y1        Z6
   1                    0.14429  -0.12379   0.12100   0.10266   0.01526
 Quadratic step=4.782D-01 exceeds max=3.000D-01 adjusted using Lamda=-8.508D-03.
 Angle between NR and scaled steps=   4.57 degrees.
 Angle between quadratic step and forces=  49.37 degrees.
 Linear search not attempted -- first point.
 B after Tr=     0.005992   -0.000002   -0.000010
         Rot=    1.000000   -0.000000    0.000002   -0.000000 Ang=   0.00 deg.
 Variable       Old X    -DE/DX   Delta X   Delta X   Delta X     New X
                                 (Linear)    (Quad)   (Total)
    X1       -0.57949   0.00086   0.00000  -0.08692  -0.08093  -0.66043
    Y1        0.00000  -0.00000   0.00000   0.00000  -0.00000   0.00000
    Z1       -0.00028   0.00002   0.00000   0.00009   0.00007  -0.00021
    X2       -4.08039  -0.01179   0.00000  -0.11530  -0.10931  -4.18970
    Y2       -0.00000  -0.00000   0.00000  -0.00000  -0.00001  -0.00001
    Z2        0.00009  -0.00001   0.00000  -0.00004  -0.00007   0.00003
    X3        0.02230   0.00074   0.00000  -0.06034  -0.05434  -0.03203
    Y3        0.00446  -0.00000   0.00000  -0.00001  -0.00001   0.00445
    Z3       -1.95696   0.00082   0.00000   0.00681   0.00680  -1.95016
    X4        0.02228   0.00075   0.00000  -0.06017  -0.05419  -0.03191
    Y4        1.69229  -0.00071   0.00000  -0.00583  -0.00583   1.68646
    Z4        0.98199  -0.00042   0.00000  -0.00341  -0.00342   0.97857
    X5        0.02229   0.00075   0.00000  -0.06018  -0.05419  -0.03190
    Y5       -1.69675   0.00072   0.00000   0.00585   0.00585  -1.69090
    Z5        0.97425  -0.00042   0.00000  -0.00337  -0.00338   0.97087
    X6        4.55226   0.00316   0.00000   0.16880   0.17479   4.72705
    Y6        0.00003   0.00000   0.00000   0.00000  -0.00000   0.00003
    Z6       -0.00050  -0.00000   0.00000  -0.00009  -0.00008  -0.00057
    X7        6.78038   0.00552   0.00000   0.17217   0.17816   6.95855
    Y7       -0.00002  -0.00000   0.00000  -0.00000  -0.00000  -0.00002
    Z7        0.00049   0.00000   0.00000   0.00005   0.00007   0.00055
         Item               Value     Threshold  Converged?
 Maximum Force            0.011793     0.000450     NO 
 RMS     Force            0.002960     0.000300     NO 
 Maximum Displacement     0.178164     0.001800     NO 
 RMS     Displacement     0.065377     0.001200     NO 
 Predicted change in Energy=-1.707878D-03
 GradGradGradGradGradGradGradGradGradGradGradGradGradGradGradGradGradGrad

 Leave Link  103 at Sun Oct 13 09:51:38 2024, MaxMem=  2684354560 cpu:               0.6 elap:               0.1
 (Enter /usr/local/g16_AVX//g16/l9999.exe)

 ----------------------------------------------------------------------

 Electric dipole moment (input orientation):
 (Debye = 10**-18 statcoulomb cm , SI units = C m)
                  (au)            (Debye)         (10**-30 SI)
   Tot        0.369978D+01      0.940391D+01      0.313681D+02
   x         -0.369978D+01     -0.940391D+01     -0.313681D+02
   y          0.000000D+00      0.000000D+00      0.000000D+00
   z         -0.521209D-04     -0.132478D-03     -0.441899D-03

 Dipole polarizability, Alpha (input orientation).
 (esu units = cm**3 , SI units = C**2 m**2 J**-1)
 Alpha(0;0):
               (au)            (10**-24 esu)      (10**-40 SI)
   iso        0.572202D+02      0.847916D+01      0.943434D+01
   aniso      0.529857D+02      0.785167D+01      0.873617D+01
   xx         0.925440D+02      0.137136D+02      0.152584D+02
   yx        -0.184938D-03     -0.274050D-04     -0.304921D-04
   yy         0.395580D+02      0.586190D+01      0.652224D+01
   zx         0.408959D-02      0.606014D-03      0.674282D-03
   zy         0.000000D+00      0.000000D+00      0.000000D+00
   zz         0.395586D+02      0.586198D+01      0.652233D+01

 ----------------------------------------------------------------------

 Dipole orientation:
     6         -0.00027530          0.00000280          0.57949397
    17          0.00015197          0.00000267          4.08039491
     1         -1.95696290          0.00445285         -0.02227688
     1          0.98198752          1.69229283         -0.02229260
     1          0.97425634         -1.69674957         -0.02230414
     6         -0.00056302          0.00002115         -4.55225574
     7          0.00039203         -0.00002583         -6.78038080

 Electric dipole moment (dipole orientation):
 (Debye = 10**-18 statcoulomb cm , SI units = C m)
                  (au)            (Debye)         (10**-30 SI)
   Tot        0.369978D+01      0.940391D+01      0.313681D+02
   x          0.000000D+00      0.000000D+00      0.000000D+00
   y          0.000000D+00      0.000000D+00      0.000000D+00
   z          0.369978D+01      0.940391D+01      0.313681D+02

 Dipole polarizability, Alpha (dipole orientation).
 (esu units = cm**3 , SI units = C**2 m**2 J**-1)
 Alpha(0;0):
               (au)            (10**-24 esu)      (10**-40 SI)
   iso        0.572202D+02      0.847916D+01      0.943434D+01
   aniso      0.529857D+02      0.785167D+01      0.873617D+01
   xx         0.395586D+02      0.586198D+01      0.652233D+01
   yx         0.000000D+00      0.000000D+00      0.000000D+00
   yy         0.395580D+02      0.586190D+01      0.652224D+01
   zx        -0.334315D-02     -0.495404D-03     -0.551212D-03
   zy         0.268627D-03      0.398064D-04      0.442906D-04
   zz         0.925440D+02      0.137136D+02      0.152584D+02

 ----------------------------------------------------------------------
 1\1\GINC-NODO6\Freq\RB3LYP\6-31++G(d,p)\C2H3Cl1N1(1-)\ALANQF\13-Oct-20
 24\0\\#p b3lyp 6-31++g(d,p) scf=verytight NoSymm freq=noraman int=ultr
 afine\\RxCoord=2.39930 DE=47.73\\-1,1\C,-0.306655,0.000001,-0.00015\Cl
 ,-2.159252,-0.000002,0.00005\H,0.011803,0.002358,-1.03558\H,0.011788,0
 .895522,0.519647\H,0.011797,-0.897882,0.515553\C,2.40895,0.000015,-0.0
 00264\N,3.588023,-0.000008,0.000258\\Version=ES64L-G16RevB.01\HF=-592.
 9929761\RMSD=2.228e-09\RMSF=2.960e-03\ZeroPoint=0.043465\Thermal=0.048
 5101\Dipole=-3.6485173,-0.0000057,-0.0000622\DipoleDeriv=1.9585385,0.0
 000045,-0.0001498,0.0000061,0.0607765,-0.0000013,-0.0001225,-0.0000013
 ,0.0607786,-1.5097618,-0.0000026,0.0000685,-0.0000023,-0.3056644,0.,0.
 0001484,0.,-0.3056734,-0.0392105,0.0000024,-0.0013305,-0.0000232,0.079
 3448,0.0001838,0.0099935,0.0001846,-0.0014431,-0.0392834,0.0011567,0.0
 006926,-0.0087049,0.0188907,-0.0350788,-0.0050448,-0.035089,0.0589657,
 -0.0392815,-0.0011588,0.0006859,0.0087287,0.0185688,0.0348964,-0.00500
 6,0.0349059,0.0592841,-0.2936818,-0.0000076,0.0001539,-0.0000198,-0.44
 94489,0.,0.0003604,0.,-0.4494442,-1.0373194,0.0000053,-0.0001206,0.000
 0153,-0.4224674,0.,-0.0003291,0.,-0.4224676\Polar=92.5440264,-0.000184
 9,39.5580309,0.0040896,0.0000033,39.558576\Quadrupole=-26.4295319,13.2
 146786,13.2148533,0.0000021,-0.0011321,0.0000113\PG=C01 [X(C2H3Cl1N1)]
 \NImag=2\\0.21435211,-0.00000145,0.61059146,-0.00000491,0.00000287,0.6
 1065564,-0.07063878,-0.00000009,0.00000132,0.16094024,-0.00000013,-0.0
 3343747,-0.00000007,0.00000043,0.01775876,0.00000274,-0.00000004,-0.03
 344080,-0.00000694,0.00000003,0.01775672,-0.05035260,-0.00019089,0.083
 76146,-0.02459137,-0.00004268,0.01869681,0.07186263,-0.00018664,-0.049
 47756,0.00064467,0.00001428,0.00059989,-0.00001735,0.00019414,0.045851
 56,0.08192080,0.00064474,-0.33249707,-0.00629180,-0.00001746,0.0082771
 3,-0.08520989,-0.00067872,0.34361460,-0.05034377,-0.07242888,-0.042042
 76,-0.02460257,-0.01617184,-0.00938455,0.00359511,0.00674364,0.0042880
 2,0.07185962,-0.07084182,-0.26115155,-0.12286173,0.00544266,0.00634219
 ,0.00333108,-0.00030375,0.00222855,0.00259579,0.07368283,0.26855800,-0
 .04112007,-0.12286427,-0.12078864,0.00316020,0.00333223,0.00253655,-0.
 00798513,-0.02493906,-0.01080741,0.04276793,0.12926486,0.12087282,-0.0
 5034555,0.07262115,-0.04171238,-0.02460211,0.01621430,-0.00931067,0.00
 359534,-0.00676306,0.00425738,0.00359438,-0.00708449,0.00369661,0.0718
 6059,0.07102992,-0.26226657,0.12221431,-0.00545714,0.00637262,-0.00331
 372,0.00034028,0.00212612,-0.00253649,0.00706766,-0.01722801,0.0137092
 2,-0.07387838,0.26973136,-0.04079690,0.12221675,-0.11966930,0.00313536
 ,-0.00331473,0.00250622,-0.00798379,0.02499832,-0.01070572,0.00372897,
 -0.01382714,0.00864533,0.04243171,-0.12858403,0.11969567,-0.00093017,0
 .00000007,-0.00000079,-0.00863495,-0.00000004,0.00000113,-0.00407702,-
 0.00000073,0.00031180,-0.00406997,-0.00027046,-0.00015633,-0.00406986,
 0.00027108,-0.00015504,1.15792453,0.00000038,-0.00557562,-0.00000007,-
 0.00000038,0.00285865,0.,0.00000307,-0.00171015,-0.00001013,0.00116704
 ,0.00162693,0.00193682,-0.00117014,0.00164463,-0.00192666,-0.00002208,
 -0.00061075,-0.00000714,-0.00000007,-0.00557773,0.00000737,0.,0.002858
 80,-0.00134926,-0.00001015,0.00274927,0.00067766,0.00193723,-0.0005843
 2,0.00067235,-0.00192705,-0.00060188,0.00050209,0.00000002,-0.00061040
 ,0.00825875,0.00000009,-0.00000195,-0.00787046,-0.00000004,0.00000148,
 -0.00003209,-0.00000163,0.00072369,-0.00003279,-0.00062497,-0.00036321
 ,-0.00003280,0.00062658,-0.00036032,-1.13614255,0.00002212,-0.00050306
 ,1.13585194,-0.00000025,0.00131730,0.00000002,0.00000025,-0.00049463,0
 .,-0.00000016,0.00038159,0.00000227,-0.00006044,-0.00037610,-0.0004398
 0,0.00006061,-0.00038016,0.00043750,0.00002215,0.00176631,0.00000002,-
 0.00002216,-0.00221432,0.00000547,0.00000002,0.00131791,-0.00000550,0.
 ,-0.00049462,0.00006980,0.00000230,-0.00063080,-0.00003527,-0.00044008
 ,0.00012567,-0.00003500,0.00043776,0.00012968,-0.00050287,0.00000002,0
 .00176626,0.00050336,-0.00000001,-0.00221410\\-0.00085894,0.00000098,-
 0.00002178,0.01179261,0.00000027,0.00000619,-0.00074475,0.00000116,-0.
 00082152,-0.00075463,0.00071470,0.00042019,-0.00075382,-0.00071713,0.0
 0041643,-0.00316212,-0.00000006,0.00000274,-0.00551835,0.00000008,-0.0
 0000225\\\@


 ERWIN WITH HIS PSI CAN DO
 CALCULATIONS QUITE A FEW.
 BUT ONE THING HAS NOT BEEN SEEN
 JUST WHAT DOES PSI REALLY MEAN.
 -- WALTER HUCKEL, TRANS. BY FELIX BLOCH
 Job cpu time:       0 days  0 hours  3 minutes 41.5 seconds.
 Elapsed time:       0 days  0 hours  0 minutes  9.6 seconds.
 File lengths (MBytes):  RWF=     88 Int=      0 D2E=      0 Chk=      2 Scr=      2
 Normal termination of Gaussian 16 at Sun Oct 13 09:51:38 2024.
