 Entering Gaussian System, Link 0=g16
 Initial command:
 /usr/local/g16_AVX//g16/l1.exe "/scratch/alanqf/0126-54568.ixchel.mda.cinvestav.mx/Gau-48013.inp" -scrdir="/scratch/alanqf/0126-54568.ixchel.mda.cinvestav.mx/"
 Entering Link 1 = /usr/local/g16_AVX//g16/l1.exe PID=     48014.
  
 Copyright (c) 1988-2017, Gaussian, Inc.  All Rights Reserved.
  
 This is part of the Gaussian(R) 16 program.  It is based on
 the Gaussian(R) 09 system (copyright 2009, Gaussian, Inc.),
 the Gaussian(R) 03 system (copyright 2003, Gaussian, Inc.),
 the Gaussian(R) 98 system (copyright 1998, Gaussian, Inc.),
 the Gaussian(R) 94 system (copyright 1995, Gaussian, Inc.),
 the Gaussian 92(TM) system (copyright 1992, Gaussian, Inc.),
 the Gaussian 90(TM) system (copyright 1990, Gaussian, Inc.),
 the Gaussian 88(TM) system (copyright 1988, Gaussian, Inc.),
 the Gaussian 86(TM) system (copyright 1986, Carnegie Mellon
 University), and the Gaussian 82(TM) system (copyright 1983,
 Carnegie Mellon University). Gaussian is a federally registered
 trademark of Gaussian, Inc.
  
 This software contains proprietary and confidential information,
 including trade secrets, belonging to Gaussian, Inc.
  
 This software is provided under written license and may be
 used, copied, transmitted, or stored only in accord with that
 written license.
  
 The following legend is applicable only to US Government
 contracts under FAR:
  
                    RESTRICTED RIGHTS LEGEND
  
 Use, reproduction and disclosure by the US Government is
 subject to restrictions as set forth in subparagraphs (a)
 and (c) of the Commercial Computer Software - Restricted
 Rights clause in FAR 52.227-19.
  
 Gaussian, Inc.
 340 Quinnipiac St., Bldg. 40, Wallingford CT 06492
  
  
 ---------------------------------------------------------------
 Warning -- This program may not be used in any manner that
 competes with the business of Gaussian, Inc. or will provide
 assistance to any competitor of Gaussian, Inc.  The licensee
 of this program is prohibited from giving any competitor of
 Gaussian, Inc. access to this program.  By using this program,
 the user acknowledges that Gaussian, Inc. is engaged in the
 business of creating and licensing software in the field of
 computational chemistry and represents and warrants to the
 licensee that it is not a competitor of Gaussian, Inc. and that
 it will not use this program in any manner prohibited above.
 ---------------------------------------------------------------
  

 Cite this work as:
 Gaussian 16, Revision B.01,
 M. J. Frisch, G. W. Trucks, H. B. Schlegel, G. E. Scuseria, 
 M. A. Robb, J. R. Cheeseman, G. Scalmani, V. Barone, 
 G. A. Petersson, H. Nakatsuji, X. Li, M. Caricato, A. V. Marenich, 
 J. Bloino, B. G. Janesko, R. Gomperts, B. Mennucci, H. P. Hratchian, 
 J. V. Ortiz, A. F. Izmaylov, J. L. Sonnenberg, D. Williams-Young, 
 F. Ding, F. Lipparini, F. Egidi, J. Goings, B. Peng, A. Petrone, 
 T. Henderson, D. Ranasinghe, V. G. Zakrzewski, J. Gao, N. Rega, 
 G. Zheng, W. Liang, M. Hada, M. Ehara, K. Toyota, R. Fukuda, 
 J. Hasegawa, M. Ishida, T. Nakajima, Y. Honda, O. Kitao, H. Nakai, 
 T. Vreven, K. Throssell, J. A. Montgomery, Jr., J. E. Peralta, 
 F. Ogliaro, M. J. Bearpark, J. J. Heyd, E. N. Brothers, K. N. Kudin, 
 V. N. Staroverov, T. A. Keith, R. Kobayashi, J. Normand, 
 K. Raghavachari, A. P. Rendell, J. C. Burant, S. S. Iyengar, 
 J. Tomasi, M. Cossi, J. M. Millam, M. Klene, C. Adamo, R. Cammi, 
 J. W. Ochterski, R. L. Martin, K. Morokuma, O. Farkas, 
 J. B. Foresman, and D. J. Fox, Gaussian, Inc., Wallingford CT, 2016.
 
 ******************************************
 Gaussian 16:  ES64L-G16RevB.01 20-Dec-2017
                13-Oct-2024 
 ******************************************
 %NProcShared=26
 Will use up to   26 processors via shared memory.
 %MEM=20GB
 %chk=CHKfiles/0126.chk
 ---------------------------------------------------------------------
 #p b3lyp 6-31++g(d,p) scf=verytight NoSymm freq=noraman int=ultrafine
 ---------------------------------------------------------------------
 1/10=4,30=1,38=1/1,3;
 2/12=2,15=1,17=6,18=5,40=1/2;
 3/5=1,6=6,7=1111,11=2,25=1,30=1,71=2,74=-5,75=-5,140=1/1,2,3;
 4//1;
 5/5=2,17=3,38=5,98=1/2;
 8/6=4,10=90,11=11/1;
 11/6=1,8=1,9=11,15=111,16=1,31=1/1,2,10;
 10/6=1,31=1/2;
 6/7=2,8=2,9=2,10=2,28=1/1;
 7/8=1,10=1,25=1,30=1/1,2,3,16;
 1/10=4,30=1/3;
 99//99;
 Leave Link    1 at Sun Oct 13 09:51:34 2024, MaxMem=  2684354560 cpu:               1.2 elap:               0.1
 (Enter /usr/local/g16_AVX//g16/l101.exe)
 ------------------------
 RxCoord=2.49921 DE=47.53
 ------------------------
 Symbolic Z-matrix:
 Charge = -1 Multiplicity = 1
 C                    -0.31589  0.        -0.00011 
 Cl                   -2.16126  0.         0.00005 
 H                     0.00601   0.00235  -1.03468 
 H                     0.00585   0.8948    0.51931 
 H                     0.00585  -0.89716   0.51522 
 C                     2.41653   0.00002  -0.00032 
 N                     3.59574  -0.00001   0.00026 
 
 ITRead=  0  0  0  0  0  0  0
 MicOpt= -1 -1 -1 -1 -1 -1 -1
 NAtoms=      7 NQM=        7 NQMF=       0 NMMI=      0 NMMIF=      0
                NMic=       0 NMicF=      0.
                    Isotopes and Nuclear Properties:
 (Nuclear quadrupole moments (NQMom) in fm**2, nuclear magnetic moments (NMagM)
  in nuclear magnetons)

  Atom         1           2           3           4           5           6           7
 IAtWgt=          12          35           1           1           1          12          14
 AtmWgt=  12.0000000  34.9688527   1.0078250   1.0078250   1.0078250  12.0000000  14.0030740
 NucSpn=           0           3           1           1           1           0           2
 AtZEff=  -0.0000000  -0.0000000  -0.0000000  -0.0000000  -0.0000000  -0.0000000  -0.0000000
 NQMom=    0.0000000  -8.1650000   0.0000000   0.0000000   0.0000000   0.0000000   2.0440000
 NMagM=    0.0000000   0.8218740   2.7928460   2.7928460   2.7928460   0.0000000   0.4037610
 AtZNuc=   6.0000000  17.0000000   1.0000000   1.0000000   1.0000000   6.0000000   7.0000000
 Leave Link  101 at Sun Oct 13 09:51:34 2024, MaxMem=  2684354560 cpu:               2.0 elap:               0.1
 (Enter /usr/local/g16_AVX//g16/l103.exe)

 GradGradGradGradGradGradGradGradGradGradGradGradGradGradGradGradGradGrad
 Berny optimization.
 Initialization pass.
 Trust Radius=3.00D-01 FncErr=1.00D-07 GrdErr=1.00D-07 EigMax=2.50D+02 EigMin=1.00D-04
 Number of steps in this run=      2 maximum allowed number of steps=      2.
 GradGradGradGradGradGradGradGradGradGradGradGradGradGradGradGradGradGrad

 Leave Link  103 at Sun Oct 13 09:51:34 2024, MaxMem=  2684354560 cpu:               1.4 elap:               0.1
 (Enter /usr/local/g16_AVX//g16/l202.exe)
                          Input orientation:                          
 ---------------------------------------------------------------------
 Center     Atomic      Atomic             Coordinates (Angstroms)
 Number     Number       Type             X           Y           Z
 ---------------------------------------------------------------------
      1          6           0       -0.315894   -0.000001   -0.000111
      2         17           0       -2.161261   -0.000002    0.000045
      3          1           0        0.006009    0.002354   -1.034681
      4          1           0        0.005845    0.894799    0.519309
      5          1           0        0.005852   -0.897160    0.515221
      6          6           0        2.416527    0.000017   -0.000315
      7          7           0        3.595738   -0.000008    0.000264
 ---------------------------------------------------------------------
                    Distance matrix (angstroms):
                    1          2          3          4          5
     1  C    0.000000
     2  Cl   1.845367   0.000000
     3  H    1.083495   2.401608   0.000000
     4  H    1.083504   2.401386   1.792022   0.000000
     5  H    1.083504   2.401391   1.792016   1.791964   0.000000
     6  C    2.732421   4.577788   2.623074   2.623363   2.623368
     7  N    3.911632   5.756999   3.735943   3.735963   3.735953
                    6          7
     6  C    0.000000
     7  N    1.179211   0.000000
 Symmetry turned off by external request.
 This structure is nearly, but not quite of a higher symmetry.
 Consider Symm=Loose if the higher symmetry is desired.
 Stoichiometry    C2H3ClN(1-)
 Framework group  C1[X(C2H3ClN)]
 Deg. of freedom    15
 Full point group                 C1      NOp   1
 Rotational constants (GHZ):         156.1548348           1.2111194           1.2111190
 Leave Link  202 at Sun Oct 13 09:51:35 2024, MaxMem=  2684354560 cpu:               2.0 elap:               0.1
 (Enter /usr/local/g16_AVX//g16/l301.exe)
 Standard basis: 6-31++G(d,p) (6D, 7F)
 Ernie: Thresh=  0.10000D-02 Tol=  0.10000D-05 Strict=F.
    98 basis functions,   176 primitive gaussians,    98 cartesian basis functions
    20 alpha electrons       20 beta electrons
       nuclear repulsion energy       111.0010748440 Hartrees.
 IExCor=  402 DFT=T Ex+Corr=B3LYP ExCW=0 ScaHFX=  0.200000
 ScaDFX=  0.800000  0.720000  1.000000  0.810000 ScalE2=  1.000000  1.000000
 IRadAn=      5 IRanWt=     -1 IRanGd=            0 ICorTp=0 IEmpDi=  4
 NAtoms=    7 NActive=    7 NUniq=    7 SFac= 1.00D+00 NAtFMM=   60 NAOKFM=F Big=F
 Integral buffers will be    131072 words long.
 Raffenetti 2 integral format.
 Two-electron integral symmetry is turned off.
 Leave Link  301 at Sun Oct 13 09:51:35 2024, MaxMem=  2684354560 cpu:               1.3 elap:               0.1
 (Enter /usr/local/g16_AVX//g16/l302.exe)
 NPDir=0 NMtPBC=     1 NCelOv=     1 NCel=       1 NClECP=     1 NCelD=      1
         NCelK=      1 NCelE2=     1 NClLst=     1 CellRange=     0.0.
 One-electron integrals computed using PRISM.
 NBasis=    98 RedAO= T EigKep=  1.22D-04  NBF=    98
 NBsUse=    98 1.00D-06 EigRej= -1.00D+00 NBFU=    98
 Precomputing XC quadrature grid using
 IXCGrd= 4 IRadAn=           5 IRanWt=          -1 IRanGd=           0 AccXCQ= 0.00D+00.
 Generated NRdTot=       0 NPtTot=           0 NUsed=           0 NTot=          32
 NSgBfM=    98    98    98    98    98 MxSgAt=     7 MxSgA2=     7.
 Leave Link  302 at Sun Oct 13 09:51:35 2024, MaxMem=  2684354560 cpu:               9.6 elap:               0.5
 (Enter /usr/local/g16_AVX//g16/l303.exe)
 DipDrv:  MaxL=1.
 Leave Link  303 at Sun Oct 13 09:51:35 2024, MaxMem=  2684354560 cpu:               1.3 elap:               0.1
 (Enter /usr/local/g16_AVX//g16/l401.exe)
 ExpMin= 3.60D-02 ExpMax= 2.52D+04 ExpMxC= 3.78D+03 IAcc=3 IRadAn=         5 AccDes= 0.00D+00
 Harris functional with IExCor=  402 and IRadAn=       5 diagonalized for initial guess.
 HarFok:  IExCor=  402 AccDes= 0.00D+00 IRadAn=         5 IDoV= 1 UseB2=F ITyADJ=14
 ICtDFT=  3500011 ScaDFX=  1.000000  1.000000  1.000000  1.000000
 FoFCou: FMM=F IPFlag=           0 FMFlag=      100000 FMFlg1=           0
         NFxFlg=           0 DoJE=T BraDBF=F KetDBF=T FulRan=T
         wScrn=  0.000000 ICntrl=       500 IOpCl=  0 I1Cent=   200000004 NGrid=           0
         NMat0=    1 NMatS0=      1 NMatT0=    0 NMatD0=    1 NMtDS0=    0 NMtDT0=    0
 Symmetry not used in FoFCou.
 Harris En= -593.075737504035    
 JPrj=0 DoOrth=F DoCkMO=F.
 Leave Link  401 at Sun Oct 13 09:51:36 2024, MaxMem=  2684354560 cpu:               7.2 elap:               0.4
 (Enter /usr/local/g16_AVX//g16/l502.exe)
 Keep R1 ints in memory in canonical form, NReq=35752935.
 FoFCou: FMM=F IPFlag=           0 FMFlag=           0 FMFlg1=           0
         NFxFlg=           0 DoJE=F BraDBF=F KetDBF=F FulRan=T
         wScrn=  0.000000 ICntrl=       600 IOpCl=  0 I1Cent=           0 NGrid=           0
         NMat0=    1 NMatS0=   4851 NMatT0=    0 NMatD0=    1 NMtDS0=    0 NMtDT0=    0
 Symmetry not used in FoFCou.
 Two-electron integral symmetry not used.
 Closed shell SCF:
 Using DIIS extrapolation, IDIIS=  1040.
 NGot=  2684354560 LenX=  2672563405 LenY=  2672553360
 Requested convergence on RMS density matrix=1.00D-08 within 128 cycles.
 Requested convergence on MAX density matrix=1.00D-06.
 Requested convergence on             energy=1.00D-06.
 No special actions if energy rises.

 Cycle   1  Pass 1  IDiag  1:
 E= -592.838818799464    
 DIIS: error= 3.47D-02 at cycle   1 NSaved=   1.
 NSaved= 1 IEnMin= 1 EnMin= -592.838818799464     IErMin= 1 ErrMin= 3.47D-02
 ErrMax= 3.47D-02  0.00D+00 EMaxC= 1.00D-01 BMatC= 1.33D-01 BMatP= 1.33D-01
 IDIUse=3 WtCom= 6.53D-01 WtEn= 3.47D-01
 Coeff-Com:  0.100D+01
 Coeff-En:   0.100D+01
 Coeff:      0.100D+01
 Gap=     0.626 Goal=   None    Shift=    0.000
 GapD=    0.626 DampG=2.000 DampE=0.500 DampFc=1.0000 IDamp=-1.
 RMSDP=9.52D-02 MaxDP=3.37D+00              OVMax= 3.87D-01

 Cycle   2  Pass 1  IDiag  1:
 E= -592.630130093740     Delta-E=        0.208688705724 Rises=F Damp=F
 DIIS: error= 4.76D-02 at cycle   2 NSaved=   2.
 NSaved= 2 IEnMin= 1 EnMin= -592.838818799464     IErMin= 1 ErrMin= 3.47D-02
 ErrMax= 4.76D-02  0.00D+00 EMaxC= 1.00D-01 BMatC= 3.03D-01 BMatP= 1.33D-01
 IDIUse=2 WtCom= 0.00D+00 WtEn= 1.00D+00
 Coeff-En:   0.687D+00 0.313D+00
 Coeff:      0.687D+00 0.313D+00
 Gap=     0.156 Goal=   None    Shift=    0.000
 RMSDP=9.35D-02 MaxDP=3.38D+00 DE= 2.09D-01 OVMax= 2.53D-01

 Cycle   3  Pass 1  IDiag  1:
 E= -592.981704056363     Delta-E=       -0.351573962623 Rises=F Damp=F
 DIIS: error= 8.12D-03 at cycle   3 NSaved=   3.
 NSaved= 3 IEnMin= 3 EnMin= -592.981704056363     IErMin= 3 ErrMin= 8.12D-03
 ErrMax= 8.12D-03  0.00D+00 EMaxC= 1.00D-01 BMatC= 1.05D-02 BMatP= 1.33D-01
 IDIUse=3 WtCom= 9.19D-01 WtEn= 8.12D-02
 Coeff-Com:  0.266D+00 0.983D-01 0.636D+00
 Coeff-En:   0.000D+00 0.000D+00 0.100D+01
 Coeff:      0.244D+00 0.903D-01 0.666D+00
 Gap=     0.187 Goal=   None    Shift=    0.000
 RMSDP=2.91D-03 MaxDP=5.10D-02 DE=-3.52D-01 OVMax= 5.12D-02

 Cycle   4  Pass 1  IDiag  1:
 E= -592.986381966676     Delta-E=       -0.004677910313 Rises=F Damp=F
 DIIS: error= 1.17D-02 at cycle   4 NSaved=   4.
 NSaved= 4 IEnMin= 4 EnMin= -592.986381966676     IErMin= 3 ErrMin= 8.12D-03
 ErrMax= 1.17D-02  0.00D+00 EMaxC= 1.00D-01 BMatC= 7.12D-03 BMatP= 1.05D-02
 IDIUse=3 WtCom= 8.83D-01 WtEn= 1.17D-01
 Coeff-Com:  0.526D-01-0.258D-01 0.499D+00 0.474D+00
 Coeff-En:   0.000D+00 0.000D+00 0.382D+00 0.618D+00
 Coeff:      0.464D-01-0.227D-01 0.486D+00 0.491D+00
 Gap=     0.178 Goal=   None    Shift=    0.000
 RMSDP=1.03D-03 MaxDP=1.60D-02 DE=-4.68D-03 OVMax= 2.99D-02

 Cycle   5  Pass 1  IDiag  1:
 E= -592.992754002399     Delta-E=       -0.006372035723 Rises=F Damp=F
 DIIS: error= 2.77D-03 at cycle   5 NSaved=   5.
 NSaved= 5 IEnMin= 5 EnMin= -592.992754002399     IErMin= 5 ErrMin= 2.77D-03
 ErrMax= 2.77D-03  0.00D+00 EMaxC= 1.00D-01 BMatC= 3.44D-04 BMatP= 7.12D-03
 IDIUse=3 WtCom= 9.72D-01 WtEn= 2.77D-02
 Coeff-Com:  0.175D-01-0.132D-01 0.233D+00 0.281D+00 0.482D+00
 Coeff-En:   0.000D+00 0.000D+00 0.000D+00 0.000D+00 0.100D+01
 Coeff:      0.170D-01-0.128D-01 0.227D+00 0.273D+00 0.496D+00
 Gap=     0.181 Goal=   None    Shift=    0.000
 RMSDP=3.26D-04 MaxDP=5.21D-03 DE=-6.37D-03 OVMax= 7.27D-03

 Cycle   6  Pass 1  IDiag  1:
 E= -592.993064784440     Delta-E=       -0.000310782042 Rises=F Damp=F
 DIIS: error= 8.85D-04 at cycle   6 NSaved=   6.
 NSaved= 6 IEnMin= 6 EnMin= -592.993064784440     IErMin= 6 ErrMin= 8.85D-04
 ErrMax= 8.85D-04  0.00D+00 EMaxC= 1.00D-01 BMatC= 3.30D-05 BMatP= 3.44D-04
 IDIUse=3 WtCom= 9.91D-01 WtEn= 8.85D-03
 Coeff-Com:  0.324D-02-0.626D-02 0.617D-01 0.753D-01 0.260D+00 0.606D+00
 Coeff-En:   0.000D+00 0.000D+00 0.000D+00 0.000D+00 0.710D-01 0.929D+00
 Coeff:      0.321D-02-0.620D-02 0.611D-01 0.747D-01 0.258D+00 0.609D+00
 Gap=     0.181 Goal=   None    Shift=    0.000
 RMSDP=7.99D-05 MaxDP=1.56D-03 DE=-3.11D-04 OVMax= 1.76D-03

 Cycle   7  Pass 1  IDiag  1:
 E= -592.993096284065     Delta-E=       -0.000031499625 Rises=F Damp=F
 DIIS: error= 7.11D-05 at cycle   7 NSaved=   7.
 NSaved= 7 IEnMin= 7 EnMin= -592.993096284065     IErMin= 7 ErrMin= 7.11D-05
 ErrMax= 7.11D-05  0.00D+00 EMaxC= 1.00D-01 BMatC= 4.55D-07 BMatP= 3.30D-05
 IDIUse=1 WtCom= 1.00D+00 WtEn= 0.00D+00
 Coeff-Com:  0.355D-03-0.855D-03 0.277D-02 0.236D-02 0.455D-01 0.188D+00
 Coeff-Com:  0.762D+00
 Coeff:      0.355D-03-0.855D-03 0.277D-02 0.236D-02 0.455D-01 0.188D+00
 Coeff:      0.762D+00
 Gap=     0.181 Goal=   None    Shift=    0.000
 RMSDP=1.44D-05 MaxDP=2.76D-04 DE=-3.15D-05 OVMax= 2.87D-04

 Cycle   8  Pass 1  IDiag  1:
 E= -592.993096806749     Delta-E=       -0.000000522684 Rises=F Damp=F
 DIIS: error= 1.26D-05 at cycle   8 NSaved=   8.
 NSaved= 8 IEnMin= 8 EnMin= -592.993096806749     IErMin= 8 ErrMin= 1.26D-05
 ErrMax= 1.26D-05  0.00D+00 EMaxC= 1.00D-01 BMatC= 2.09D-08 BMatP= 4.55D-07
 IDIUse=1 WtCom= 1.00D+00 WtEn= 0.00D+00
 Coeff-Com:  0.101D-03-0.142D-03 0.865D-04 0.290D-03 0.116D-01 0.505D-01
 Coeff-Com:  0.255D+00 0.682D+00
 Coeff:      0.101D-03-0.142D-03 0.865D-04 0.290D-03 0.116D-01 0.505D-01
 Coeff:      0.255D+00 0.682D+00
 Gap=     0.181 Goal=   None    Shift=    0.000
 RMSDP=2.71D-06 MaxDP=7.91D-05 DE=-5.23D-07 OVMax= 5.16D-05

 Cycle   9  Pass 1  IDiag  1:
 E= -592.993096828303     Delta-E=       -0.000000021553 Rises=F Damp=F
 DIIS: error= 3.40D-06 at cycle   9 NSaved=   9.
 NSaved= 9 IEnMin= 9 EnMin= -592.993096828303     IErMin= 9 ErrMin= 3.40D-06
 ErrMax= 3.40D-06  0.00D+00 EMaxC= 1.00D-01 BMatC= 2.01D-09 BMatP= 2.09D-08
 IDIUse=1 WtCom= 1.00D+00 WtEn= 0.00D+00
 Coeff-Com: -0.137D-04 0.173D-04-0.149D-03 0.168D-03 0.139D-02 0.469D-02
 Coeff-Com:  0.340D-01 0.250D+00 0.710D+00
 Coeff:     -0.137D-04 0.173D-04-0.149D-03 0.168D-03 0.139D-02 0.469D-02
 Coeff:      0.340D-01 0.250D+00 0.710D+00
 Gap=     0.181 Goal=   None    Shift=    0.000
 RMSDP=8.63D-07 MaxDP=2.04D-05 DE=-2.16D-08 OVMax= 1.26D-05

 Cycle  10  Pass 1  IDiag  1:
 E= -592.993096830521     Delta-E=       -0.000000002218 Rises=F Damp=F
 DIIS: error= 3.66D-07 at cycle  10 NSaved=  10.
 NSaved=10 IEnMin=10 EnMin= -592.993096830521     IErMin=10 ErrMin= 3.66D-07
 ErrMax= 3.66D-07  0.00D+00 EMaxC= 1.00D-01 BMatC= 2.18D-11 BMatP= 2.01D-09
 IDIUse=1 WtCom= 1.00D+00 WtEn= 0.00D+00
 Coeff-Com: -0.886D-05 0.696D-05-0.193D-04 0.313D-04-0.460D-04-0.658D-03
 Coeff-Com: -0.185D-02 0.178D-01 0.128D+00 0.856D+00
 Coeff:     -0.886D-05 0.696D-05-0.193D-04 0.313D-04-0.460D-04-0.658D-03
 Coeff:     -0.185D-02 0.178D-01 0.128D+00 0.856D+00
 Gap=     0.181 Goal=   None    Shift=    0.000
 RMSDP=1.62D-07 MaxDP=3.47D-06 DE=-2.22D-09 OVMax= 2.23D-06

 Cycle  11  Pass 1  IDiag  1:
 E= -592.993096830552     Delta-E=       -0.000000000031 Rises=F Damp=F
 DIIS: error= 6.10D-08 at cycle  11 NSaved=  11.
 NSaved=11 IEnMin=11 EnMin= -592.993096830552     IErMin=11 ErrMin= 6.10D-08
 ErrMax= 6.10D-08  0.00D+00 EMaxC= 1.00D-01 BMatC= 3.85D-13 BMatP= 2.18D-11
 IDIUse=1 WtCom= 1.00D+00 WtEn= 0.00D+00
 Coeff-Com: -0.121D-05 0.652D-06-0.885D-05-0.122D-04-0.545D-04-0.159D-03
 Coeff-Com: -0.190D-03-0.233D-02 0.360D-02 0.920D-01 0.907D+00
 Coeff:     -0.121D-05 0.652D-06-0.885D-05-0.122D-04-0.545D-04-0.159D-03
 Coeff:     -0.190D-03-0.233D-02 0.360D-02 0.920D-01 0.907D+00
 Gap=     0.181 Goal=   None    Shift=    0.000
 RMSDP=4.14D-08 MaxDP=8.12D-07 DE=-3.10D-11 OVMax= 4.33D-07

 Cycle  12  Pass 1  IDiag  1:
 E= -592.993096830551     Delta-E=        0.000000000001 Rises=F Damp=F
 DIIS: error= 6.69D-09 at cycle  12 NSaved=  12.
 NSaved=12 IEnMin=11 EnMin= -592.993096830552     IErMin=12 ErrMin= 6.69D-09
 ErrMax= 6.69D-09  0.00D+00 EMaxC= 1.00D-01 BMatC= 4.72D-15 BMatP= 3.85D-13
 IDIUse=1 WtCom= 1.00D+00 WtEn= 0.00D+00
 Coeff-Com: -0.488D-07 0.872D-08-0.969D-06-0.240D-05-0.932D-05-0.213D-04
 Coeff-Com: -0.350D-04-0.762D-03-0.223D-02 0.838D-03 0.116D+00 0.887D+00
 Coeff:     -0.488D-07 0.872D-08-0.969D-06-0.240D-05-0.932D-05-0.213D-04
 Coeff:     -0.350D-04-0.762D-03-0.223D-02 0.838D-03 0.116D+00 0.887D+00
 Gap=     0.181 Goal=   None    Shift=    0.000
 RMSDP=2.18D-09 MaxDP=4.46D-08 DE= 1.25D-12 OVMax= 4.56D-08

 SCF Done:  E(RB3LYP) =  -592.993096831     A.U. after   12 cycles
            NFock= 12  Conv=0.22D-08     -V/T= 2.0045
 KE= 5.903386678852D+02 PE=-1.631792782341D+03 EE= 3.374599427809D+02
 Leave Link  502 at Sun Oct 13 09:51:37 2024, MaxMem=  2684354560 cpu:              35.4 elap:               1.6
 (Enter /usr/local/g16_AVX//g16/l801.exe)
 DoSCS=F DFT=T ScalE2(SS,OS)=  1.000000  1.000000
 Range of M.O.s used for correlation:     1    98
 NBasis=    98 NAE=    20 NBE=    20 NFC=     0 NFV=     0
 NROrb=     98 NOA=    20 NOB=    20 NVA=    78 NVB=    78

 **** Warning!!: The largest alpha MO coefficient is  0.35723559D+02

 Leave Link  801 at Sun Oct 13 09:51:37 2024, MaxMem=  2684354560 cpu:               1.4 elap:               0.1
 (Enter /usr/local/g16_AVX//g16/l1101.exe)
 Using compressed storage, NAtomX=     7.
 Will process      8 centers per pass.
 Leave Link 1101 at Sun Oct 13 09:51:38 2024, MaxMem=  2684354560 cpu:               9.7 elap:               0.5
 (Enter /usr/local/g16_AVX//g16/l1102.exe)
 Symmetrizing basis deriv contribution to polar:
 IMax=3 JMax=2 DiffMx= 0.00D+00
 Leave Link 1102 at Sun Oct 13 09:51:38 2024, MaxMem=  2684354560 cpu:               1.8 elap:               0.1
 (Enter /usr/local/g16_AVX//g16/l1110.exe)
 Forming Gx(P) for the SCF density, NAtomX=     7.
 Integral derivatives from FoFJK, PRISM(SPDF).
 Do as many integral derivatives as possible in FoFJK.
 G2DrvN: MDV=    2684353864.
 G2DrvN: will do     8 centers at a time, making    1 passes.
 Calling FoFCou, ICntrl=  3107 FMM=F I1Cent=   0 AccDes= 0.00D+00.
 FoFJK:  IHMeth= 1 ICntrl=    3107 DoSepK=F KAlg= 0 I1Cent=           0 FoldK=F
 IRaf=         0 NMat=       1 IRICut=       1 DoRegI=T DoRafI=F ISym2E= 0 IDoP0=0 IntGTp=1.
 FoFCou: FMM=F IPFlag=           0 FMFlag=      100000 FMFlg1=           0
         NFxFlg=           0 DoJE=F BraDBF=F KetDBF=F FulRan=T
         wScrn=  0.000000 ICntrl=      3107 IOpCl=  0 I1Cent=           0 NGrid=           0
         NMat0=    1 NMatS0=      1 NMatT0=    0 NMatD0=    1 NMtDS0=    0 NMtDT0=    0
 Symmetry not used in FoFCou.
 End of G2Drv F.D. properties file   721 does not exist.
 End of G2Drv F.D. properties file   722 does not exist.
 End of G2Drv F.D. properties file   788 does not exist.
 Leave Link 1110 at Sun Oct 13 09:51:40 2024, MaxMem=  2684354560 cpu:              42.9 elap:               1.8
 (Enter /usr/local/g16_AVX//g16/l1002.exe)
 Minotr:  Closed shell wavefunction.
          IDoAtm=1111111
          Direct CPHF calculation.
          Differentiating once with respect to electric field.
                with respect to dipole field.
          Differentiating once with respect to nuclear coordinates.
          Requested convergence is 1.0D-08 RMS, and 1.0D-07 maximum.
          Secondary convergence is 1.0D-12 RMS, and 1.0D-12 maximum.
          NewPWx=T KeepS1=F KeepF1=F KeepIn=T MapXYZ=F SortEE=F KeepMc=T.
         2136 words used for storage of precomputed grid.
 Keep R1 ints in memory in canonical form, NReq=35668397.
 FoFCou: FMM=F IPFlag=           0 FMFlag=           0 FMFlg1=           0
         NFxFlg=           0 DoJE=F BraDBF=F KetDBF=F FulRan=T
         wScrn=  0.000000 ICntrl=       600 IOpCl=  0 I1Cent=           0 NGrid=           0
         NMat0=    1 NMatS0=   4851 NMatT0=    0 NMatD0=    1 NMtDS0=    0 NMtDT0=    0
 Symmetry not used in FoFCou.
 Two-electron integral symmetry not used.
          MDV=    2684354560 using IRadAn=       1.
          Solving linear equations simultaneously, MaxMat=       0.
          There are    24 degrees of freedom in the 1st order CPHF.  IDoFFX=6 NUNeed=     3.
     21 vectors produced by pass  0 Test12= 6.50D-15 4.17D-09 XBig12= 8.58D+01 4.53D+00.
 AX will form    21 AO Fock derivatives at one time.
     21 vectors produced by pass  1 Test12= 6.50D-15 4.17D-09 XBig12= 4.44D+01 1.98D+00.
     21 vectors produced by pass  2 Test12= 6.50D-15 4.17D-09 XBig12= 1.23D+00 2.78D-01.
     21 vectors produced by pass  3 Test12= 6.50D-15 4.17D-09 XBig12= 2.45D-02 4.17D-02.
     21 vectors produced by pass  4 Test12= 6.50D-15 4.17D-09 XBig12= 7.84D-05 2.11D-03.
     16 vectors produced by pass  5 Test12= 6.50D-15 4.17D-09 XBig12= 1.93D-07 9.40D-05.
      6 vectors produced by pass  6 Test12= 6.50D-15 4.17D-09 XBig12= 2.33D-10 2.59D-06.
      1 vectors produced by pass  7 Test12= 6.50D-15 4.17D-09 XBig12= 2.49D-13 1.10D-07.
 InvSVY:  IOpt=1 It=  1 EMax= 2.66D-15
 Solved reduced A of dimension   128 with    24 vectors.
 FullF1:  Do perturbations      1 to       3.
 Isotropic polarizability for W=    0.000000       56.93 Bohr**3.
 End of Minotr F.D. properties file   721 does not exist.
 End of Minotr F.D. properties file   722 does not exist.
 End of Minotr F.D. properties file   788 does not exist.
 Leave Link 1002 at Sun Oct 13 09:51:42 2024, MaxMem=  2684354560 cpu:              57.8 elap:               2.4
 (Enter /usr/local/g16_AVX//g16/l601.exe)
 Copying SCF densities to generalized density rwf, IOpCl= 0 IROHF=0.

 **********************************************************************

            Population analysis using the SCF Density.

 **********************************************************************

 Alpha  occ. eigenvalues -- -101.40332 -14.09660 -10.09644  -9.96100  -9.31957
 Alpha  occ. eigenvalues --   -7.08241  -7.07431  -7.07431  -0.70762  -0.65029
 Alpha  occ. eigenvalues --   -0.53567  -0.30299  -0.30298  -0.27064  -0.18380
 Alpha  occ. eigenvalues --   -0.17037  -0.17036  -0.09923  -0.09923  -0.07044
 Alpha virt. eigenvalues --    0.11095   0.13074   0.14652   0.14653   0.17246
 Alpha virt. eigenvalues --    0.20515   0.20515   0.20554   0.22173   0.22175
 Alpha virt. eigenvalues --    0.24418   0.25088   0.25088   0.27179   0.27417
 Alpha virt. eigenvalues --    0.27418   0.31512   0.33907   0.33909   0.36387
 Alpha virt. eigenvalues --    0.38568   0.38642   0.38643   0.46722   0.48262
 Alpha virt. eigenvalues --    0.66595   0.74021   0.74863   0.74863   0.77809
 Alpha virt. eigenvalues --    0.77809   0.88604   0.89643   0.89643   0.98536
 Alpha virt. eigenvalues --    1.00020   1.00022   1.05052   1.05055   1.08517
 Alpha virt. eigenvalues --    1.09921   1.09924   1.12452   1.19073   1.19073
 Alpha virt. eigenvalues --    1.26651   1.27447   1.36569   1.48410   1.60714
 Alpha virt. eigenvalues --    1.60718   1.77963   1.77963   1.78853   1.80287
 Alpha virt. eigenvalues --    1.80287   2.15941   2.20024   2.20025   2.22125
 Alpha virt. eigenvalues --    2.22129   2.28484   2.50070   2.50076   2.66358
 Alpha virt. eigenvalues --    2.83339   2.83340   2.84744   2.96219   2.96223
 Alpha virt. eigenvalues --    3.26368   3.39496   3.56219   3.56220   4.21598
 Alpha virt. eigenvalues --    4.42522   4.46242   4.57277
          Condensed to atoms (all electrons):
               1          2          3          4          5          6
     1  C    5.478622  -0.114328   0.421584   0.421544   0.421544  -0.206950
     2  Cl  -0.114328  17.395567  -0.051285  -0.051290  -0.051290   0.080301
     3  H    0.421584  -0.051285   0.507971  -0.023443  -0.023444  -0.043906
     4  H    0.421544  -0.051290  -0.023443   0.508043  -0.023449  -0.043866
     5  H    0.421544  -0.051290  -0.023444  -0.023449   0.508043  -0.043862
     6  C   -0.206950   0.080301  -0.043906  -0.043866  -0.043862   6.090537
     7  N   -0.002134  -0.003080   0.000079   0.000076   0.000075   0.666154
               7
     1  C   -0.002134
     2  Cl  -0.003080
     3  H    0.000079
     4  H    0.000076
     5  H    0.000075
     6  C    0.666154
     7  N    6.853161
 Mulliken charges:
               1
     1  C   -0.419882
     2  Cl  -0.204594
     3  H    0.212444
     4  H    0.212385
     5  H    0.212384
     6  C   -0.498407
     7  N   -0.514330
 Sum of Mulliken charges =  -1.00000
 Mulliken charges with hydrogens summed into heavy atoms:
               1
     1  C    0.217331
     2  Cl  -0.204594
     6  C   -0.498407
     7  N   -0.514330
 APT charges:
               1
     1  C    0.676040
     2  Cl  -0.694305
     3  H    0.013572
     4  H    0.013500
     5  H    0.013499
     6  C   -0.396227
     7  N   -0.626077
 Sum of APT charges =  -1.00000
 APT charges with hydrogens summed into heavy atoms:
               1
     1  C    0.716610
     2  Cl  -0.694305
     6  C   -0.396227
     7  N   -0.626077
 Electronic spatial extent (au):  <R**2>=            864.2683
 Charge=             -1.0000 electrons
 Dipole moment (field-independent basis, Debye):
    X=             -9.5208    Y=             -0.0000    Z=              0.0000  Tot=              9.5208
 Quadrupole moment (field-independent basis, Debye-Ang):
   XX=            -88.9119   YY=            -35.4189   ZZ=            -35.4185
   XY=             -0.0000   XZ=             -0.0016   YZ=              0.0000
 Traceless Quadrupole moment (field-independent basis, Debye-Ang):
   XX=            -35.6621   YY=             17.8309   ZZ=             17.8312
   XY=             -0.0000   XZ=             -0.0016   YZ=              0.0000
 Octapole moment (field-independent basis, Debye-Ang**2):
  XXX=           -178.5278  YYY=             -0.0062  ZZZ=             -0.8807  XYY=            -11.4807
  XXY=              0.0003  XXZ=             -0.0087  XZZ=            -11.4804  YZZ=              0.0060
  YYZ=              0.8836  XYZ=             -0.0000
 Hexadecapole moment (field-independent basis, Debye-Ang**3):
 XXXX=          -1857.6694 YYYY=            -55.9937 ZZZZ=            -55.9930 XXXY=              0.0009
 XXXZ=             -0.0486 YYYX=             -0.0011 YYYZ=              0.0000 ZZZX=             -0.0830
 ZZZY=              0.0000 XXYY=           -222.9461 XXZZ=           -222.9457 YYZZ=            -18.6646
 XXYZ=             -0.0000 YYXZ=              0.0846 ZZXY=              0.0004
 N-N= 1.110010748440D+02 E-N=-1.631792782230D+03  KE= 5.903386678852D+02
  Exact polarizability:  91.599  -0.000  39.598   0.004   0.000  39.598
 Approx polarizability: 113.016  -0.000  49.573   0.009   0.000  49.573
 No NMR shielding tensors so no spin-rotation constants.
 Leave Link  601 at Sun Oct 13 09:51:43 2024, MaxMem=  2684354560 cpu:              10.4 elap:               0.5
 (Enter /usr/local/g16_AVX//g16/l701.exe)
 ... and contract with generalized density number  0.
 Compute integral second derivatives.
 Leave Link  701 at Sun Oct 13 09:51:43 2024, MaxMem=  2684354560 cpu:              11.9 elap:               0.6
 (Enter /usr/local/g16_AVX//g16/l702.exe)
 L702 exits ... SP integral derivatives will be done elsewhere.
 Leave Link  702 at Sun Oct 13 09:51:44 2024, MaxMem=  2684354560 cpu:               1.2 elap:               0.1
 (Enter /usr/local/g16_AVX//g16/l703.exe)
 Integral derivatives from FoFJK, PRISM(SPDF).
 Compute integral second derivatives, UseDBF=F ICtDFT=           0.
 Calling FoFJK, ICntrl=    100127 FMM=F ISym2X=0 I1Cent= 0 IOpClX= 0 NMat=1 NMatS=1 NMatT=0.
 FoFJK:  IHMeth= 1 ICntrl=  100127 DoSepK=F KAlg= 0 I1Cent=           0 FoldK=F
 IRaf=         0 NMat=       1 IRICut=       1 DoRegI=T DoRafI=F ISym2E= 0 IDoP0=0 IntGTp=1.
 FoFCou: FMM=F IPFlag=           0 FMFlag=      100000 FMFlg1=         800
         NFxFlg=           0 DoJE=F BraDBF=F KetDBF=F FulRan=T
         wScrn=  0.000000 ICntrl=    100127 IOpCl=  0 I1Cent=           0 NGrid=           0
         NMat0=    1 NMatS0=      1 NMatT0=    0 NMatD0=    1 NMtDS0=    0 NMtDT0=    0
 Symmetry not used in FoFCou.
 Leave Link  703 at Sun Oct 13 09:51:46 2024, MaxMem=  2684354560 cpu:              63.5 elap:               2.5
 (Enter /usr/local/g16_AVX//g16/l716.exe)
 Dipole        =-3.74575857D+00-8.12548265D-06 1.41713305D-05
 Polarizability= 9.15988816D+01-2.00818231D-04 3.95979076D+01
                 4.49056551D-03 1.57498381D-07 3.95983325D+01
 Full mass-weighted force constant matrix:
 Low frequencies ---  -96.3046  -96.2993  -42.2384  -42.2339    0.0031    0.0032
 Low frequencies ---    0.0039  104.5754  128.9010
 ******    2 imaginary frequencies (negative Signs) ****** 
 Diagonal vibrational polarizability:
       84.3649449      19.0750151      19.0763487
 Harmonic frequencies (cm**-1), IR intensities (KM/Mole), Raman scattering
 activities (A**4/AMU), depolarization ratios for plane and unpolarized
 incident light, reduced masses (AMU), force constants (mDyne/A),
 and normal coordinates:
                      1                      2                      3
                      A                      A                      A
 Frequencies --    -96.2309               -96.2258               128.7503
 Red. masses --      9.7573                 9.7573                 3.7255
 Frc consts  --      0.0532                 0.0532                 0.0364
 IR Inten    --      0.0122                 0.0122                11.6698
  Atom  AN      X      Y      Z        X      Y      Z        X      Y      Z
     1   6    -0.00  -0.00   0.22     0.00   0.22   0.00    -0.00  -0.13   0.38
     2  17    -0.00   0.00  -0.11     0.00  -0.11  -0.00    -0.00   0.03  -0.09
     3   1     0.18  -0.00   0.27     0.00   0.28   0.00     0.24  -0.15   0.46
     4   1    -0.09  -0.01   0.28    -0.15   0.28  -0.00    -0.05  -0.14   0.44
     5   1    -0.09  -0.00   0.28     0.15   0.28   0.01    -0.19  -0.17   0.45
     6   6    -0.00  -0.01   0.63     0.00   0.63   0.01     0.00   0.08  -0.23
     7   7     0.00   0.01  -0.52    -0.00  -0.52  -0.01     0.00  -0.00   0.01
                      4                      5                      6
                      A                      A                      A
 Frequencies --    128.7537               175.2151               572.5358
 Red. masses --      3.7257                12.1734                10.0478
 Frc consts  --      0.0364                 0.2202                 1.9406
 IR Inten    --     11.6694                66.5279               310.9887
  Atom  AN      X      Y      Z        X      Y      Z        X      Y      Z
     1   6    -0.00   0.38   0.13    -0.32   0.00  -0.00     0.74  -0.00  -0.00
     2  17    -0.00  -0.09  -0.03    -0.28  -0.00   0.00    -0.30   0.00   0.00
     3   1     0.08   0.44   0.16    -0.26  -0.00   0.01     0.33   0.00  -0.11
     4   1    -0.25   0.46   0.16    -0.26  -0.01  -0.01     0.33   0.10   0.06
     5   1     0.17   0.45   0.14    -0.26   0.01  -0.01     0.33  -0.10   0.06
     6   6     0.00  -0.23  -0.08     0.55   0.00   0.00     0.02   0.00  -0.00
     7   7     0.00   0.01   0.00     0.56  -0.00   0.00     0.02  -0.00   0.00
                      7                      8                      9
                      A                      A                      A
 Frequencies --   1015.9817              1016.0468              1294.2194
 Red. masses --      1.1350                 1.1350                 1.0841
 Frc consts  --      0.6903                 0.6903                 1.0699
 IR Inten    --      0.1672                 0.1677                24.6917
  Atom  AN      X      Y      Z        X      Y      Z        X      Y      Z
     1   6    -0.00   0.00  -0.10     0.00   0.10   0.00    -0.08  -0.00   0.00
     2  17     0.00  -0.00   0.02    -0.00  -0.02  -0.00    -0.02  -0.00  -0.00
     3   1     0.77  -0.00   0.13    -0.02  -0.22  -0.00     0.55  -0.00   0.17
     4   1    -0.37  -0.04   0.20     0.67  -0.15   0.04     0.55  -0.15  -0.09
     5   1    -0.40   0.04   0.20    -0.66  -0.16  -0.04     0.55   0.15  -0.08
     6   6    -0.00   0.00  -0.00     0.00   0.00   0.00    -0.00  -0.00   0.00
     7   7    -0.00   0.00  -0.00     0.00   0.00   0.00    -0.01   0.00  -0.00
                     10                     11                     12
                      A                      A                      A
 Frequencies --   1454.1424              1454.1772              2160.3298
 Red. masses --      1.0636                 1.0636                12.8176
 Frc consts  --      1.3251                 1.3252                35.2451
 IR Inten    --      7.1645                 7.1589                15.3429
  Atom  AN      X      Y      Z        X      Y      Z        X      Y      Z
     1   6     0.00  -0.07   0.00    -0.00  -0.00  -0.07    -0.00  -0.00   0.00
     2  17     0.00  -0.00   0.00    -0.00  -0.00  -0.00     0.00  -0.00  -0.00
     3   1     0.01   0.76   0.01    -0.27   0.03  -0.13    -0.02   0.00  -0.01
     4   1     0.23   0.11  -0.40     0.14  -0.38   0.52    -0.02   0.01   0.00
     5   1    -0.24   0.08   0.37     0.13   0.39   0.55    -0.02  -0.01   0.00
     6   6    -0.00  -0.00   0.00     0.00  -0.00  -0.00     0.76  -0.00   0.00
     7   7    -0.00   0.00  -0.00     0.00   0.00   0.00    -0.65   0.00  -0.00
                     13                     14                     15
                      A                      A                      A
 Frequencies --   3138.7206              3270.5849              3270.7383
 Red. masses --      1.0236                 1.1126                 1.1126
 Frc consts  --      5.9415                 7.0117                 7.0124
 IR Inten    --     11.5416                 0.1172                 0.1159
  Atom  AN      X      Y      Z        X      Y      Z        X      Y      Z
     1   6     0.04  -0.00   0.00    -0.00  -0.10   0.00     0.00  -0.00  -0.10
     2  17    -0.00   0.00  -0.00     0.00   0.00  -0.00    -0.00   0.00   0.00
     3   1    -0.15  -0.00   0.56     0.01  -0.02  -0.02    -0.23  -0.00   0.78
     4   1    -0.15  -0.48  -0.28     0.20   0.57   0.34     0.12   0.36   0.19
     5   1    -0.15   0.48  -0.28    -0.20   0.59  -0.35     0.11  -0.33   0.17
     6   6     0.00   0.00  -0.00    -0.00   0.00  -0.00     0.00   0.00   0.00
     7   7     0.00  -0.00   0.00    -0.00  -0.00   0.00    -0.00  -0.00  -0.00

 -------------------
 - Thermochemistry -
 -------------------
 Temperature   298.150 Kelvin.  Pressure   1.00000 Atm.
 Atom     1 has atomic number  6 and mass  12.00000
 Atom     2 has atomic number 17 and mass  34.96885
 Atom     3 has atomic number  1 and mass   1.00783
 Atom     4 has atomic number  1 and mass   1.00783
 Atom     5 has atomic number  1 and mass   1.00783
 Atom     6 has atomic number  6 and mass  12.00000
 Atom     7 has atomic number  7 and mass  14.00307
 Molecular mass:    75.99540 amu.
 Principal axes and moments of inertia in atomic units:
                           1         2         3
     Eigenvalues --    11.557381490.143051490.14354
           X            1.00000  -0.00000  -0.00000
           Y            0.00000   0.04267   0.99909
           Z            0.00000   0.99909  -0.04267
 This molecule is an asymmetric top.
 Rotational symmetry number  1.
 Rotational temperatures (Kelvin)      7.49425     0.05812     0.05812
 Rotational constants (GHZ):         156.15483     1.21112     1.21112
    2 imaginary frequencies ignored.
 Zero-point vibrational energy     114124.9 (Joules/Mol)
                                   27.27651 (Kcal/Mol)
 Warning -- explicit consideration of   4 degrees of freedom as
           vibrations may cause significant error
 Vibrational temperatures:    185.24   185.25   252.10   823.75  1461.77
          (Kelvin)           1461.86  1862.09  2092.19  2092.24  3108.23
                             4515.92  4705.64  4705.86
 
 Zero-point correction=                           0.043468 (Hartree/Particle)
 Thermal correction to Energy=                    0.048532
 Thermal correction to Enthalpy=                  0.049476
 Thermal correction to Gibbs Free Energy=         0.014937
 Sum of electronic and zero-point Energies=           -592.949629
 Sum of electronic and thermal Energies=              -592.944565
 Sum of electronic and thermal Enthalpies=            -592.943621
 Sum of electronic and thermal Free Energies=         -592.978160
 
                     E (Thermal)             CV                S
                      KCal/Mol        Cal/Mol-Kelvin    Cal/Mol-Kelvin
 Total                   30.454             13.827             72.694
 Electronic               0.000              0.000              0.000
 Translational            0.889              2.981             38.900
 Rotational               0.889              2.981             24.754
 Vibrational             28.677              7.866              9.040
 Vibration     1          0.611              1.924              2.965
 Vibration     2          0.611              1.924              2.965
 Vibration     3          0.627              1.873              2.379
 Vibration     4          0.929              1.091              0.499
                       Q            Log10(Q)             Ln(Q)
 Total Bot       0.134782D-06         -6.870367        -15.819605
 Total V=0       0.132878D+14         13.123454         30.217870
 Vib (Bot)       0.902599D-19        -19.044505        -43.851594
 Vib (Bot)    1  0.158391D+01          0.199730          0.459896
 Vib (Bot)    2  0.158387D+01          0.199718          0.459868
 Vib (Bot)    3  0.114818D+01          0.060009          0.138176
 Vib (Bot)    4  0.268139D+00         -0.571639         -1.316248
 Vib (V=0)       0.889848D+01          0.949316          2.185881
 Vib (V=0)    1  0.216095D+01          0.334645          0.770550
 Vib (V=0)    2  0.216091D+01          0.334637          0.770531
 Vib (V=0)    3  0.175232D+01          0.243614          0.560942
 Vib (V=0)    4  0.106736D+01          0.028311          0.065189
 Electronic      0.100000D+01          0.000000          0.000000
 Translational   0.260396D+08          7.415635         17.075130
 Rotational      0.573460D+05          4.758503         10.956859
 
                                                       RxCoord=2.49921 DE=47.53
                                                             IR Spectrum
 
      3    3                                     2                          1     1          1                                       
      2    1                                     1                          4     2          0                5               1 1    
      7    3                                     6                          5     9          1                7               7 2    
      1    9                                     0                          4     4          6                3               5 9    
 
      X    X                                     X                          X     X          X                X               X X    
                                                                                  X                           X               X X    
                                                                                                              X               X      
                                                                                                              X               X      
                                                                                                              X                      
                                                                                                              X                      
                                                                                                              X                      
                                                                                                              X                      
                                                                                                              X                      
                                                                                                              X                      
                                                                                                              X                      
                                                                                                              X                      
                                                                                                              X                      
                                                                                                              X                      
                                                                                                              X                      
                                                                                                              X                      
                                                                                                              X                      
                                                                                                              X                      
                                                                                                              X                      
                                                                                                              X                      
 
 -------------------------------------------------------------------
 Center     Atomic                   Forces (Hartrees/Bohr)
 Number     Number              X              Y              Z
 -------------------------------------------------------------------
      1        6           0.002216102   -0.000000580    0.000030022
      2       17          -0.013015145   -0.000000277   -0.000010468
      3        1           0.000821247   -0.000001283    0.000812496
      4        1           0.000838940   -0.000706666   -0.000417949
      5        1           0.000838271    0.000708847   -0.000414251
      6        6           0.002967214    0.000000043   -0.000002139
      7        7           0.005333372   -0.000000083    0.000002290
 -------------------------------------------------------------------
 Cartesian Forces:  Max     0.013015145 RMS     0.003204495
 Z-matrix is all fixed cartesians, so copy forces.
 Force constants in Cartesian coordinates: 
                1             2             3             4             5 
      1  0.223633D+00
      2 -0.121734D-05  0.608575D+00
      3 -0.367685D-04  0.194318D-05  0.608659D+00
      4 -0.764703D-01  0.000000D+00 -0.127568D-05  0.166564D+00
      5  0.000000D+00 -0.334408D-01  0.000000D+00  0.000000D+00  0.176694D-01
      6  0.000000D+00  0.000000D+00 -0.334462D-01  0.000000D+00  0.000000D+00
      7 -0.513158D-01 -0.191792D-03  0.841869D-01 -0.247096D-01 -0.432071D-04
      8 -0.187870D-03 -0.494172D-01  0.642109D-03  0.142528D-04  0.617558D-03
      9  0.824842D-01  0.642145D-03 -0.331315D+00 -0.627323D-02 -0.176034D-04
     10 -0.512851D-01 -0.727612D-01 -0.422383D-01 -0.247262D-01 -0.163910D-01
     11 -0.712957D-01 -0.260258D+00 -0.122386D+00  0.542357D-02  0.640871D-02
     12 -0.413847D-01 -0.122390D+00 -0.120459D+00  0.314776D-02  0.335907D-02
     13 -0.512866D-01  0.729541D-01 -0.419064D-01 -0.247257D-01  0.164341D-01
     14  0.714847D-01 -0.261369D+00  0.121742D+00 -0.543792D-02  0.643934D-02
     15 -0.410595D-01  0.121746D+00 -0.119345D+00  0.312301D-02 -0.334143D-02
     16 -0.115221D-02  0.000000D+00 -0.190545D-05 -0.826474D-02  0.000000D+00
     17  0.000000D+00 -0.535213D-02  0.000000D+00  0.000000D+00  0.278729D-02
     18 -0.101218D-04  0.000000D+00 -0.535590D-02  0.879975D-05  0.000000D+00
     19  0.787721D-02  0.000000D+00 -0.224527D-05 -0.766749D-02  0.000000D+00
     20  0.000000D+00  0.126132D-02  0.000000D+00  0.000000D+00 -0.481527D-03
     21  0.621529D-05  0.000000D+00  0.126234D-02 -0.604940D-05  0.000000D+00
                6             7             8             9            10 
      6  0.176667D-01
      7  0.189455D-01  0.725759D-01
      8 -0.175213D-04  0.195576D-03  0.458648D-01
      9  0.836176D-02 -0.858594D-01 -0.676210D-03  0.342570D+00
     10 -0.951259D-02  0.366342D-02  0.682802D-02  0.430670D-02  0.725522D-01
     11  0.335912D-02 -0.277341D-03  0.218094D-02  0.255647D-02  0.742109D-01
     12  0.257104D-02 -0.806444D-02 -0.249759D-01 -0.109004D-01  0.430769D-01
     13 -0.943775D-02  0.366361D-02 -0.684756D-02  0.427566D-02  0.366204D-02
     14 -0.334159D-02  0.314175D-03  0.207826D-02 -0.249704D-02  0.712293D-02
     15  0.254047D-02 -0.806322D-02  0.250353D-01 -0.107983D-01  0.379225D-02
     16  0.154245D-05 -0.388285D-02  0.000000D+00  0.337661D-03 -0.387096D-02
     17  0.000000D+00  0.270144D-05 -0.170085D-02 -0.998404D-05  0.103210D-02
     18  0.278781D-02 -0.119349D-02 -0.100050D-04  0.269739D-02  0.599452D-03
     19  0.163137D-05  0.533667D-05 -0.163190D-05  0.728466D-03  0.457633D-05
     20  0.000000D+00  0.000000D+00  0.376509D-03  0.222483D-05 -0.417222D-04
     21 -0.481569D-03  0.481211D-04  0.224688D-05 -0.615630D-03 -0.243726D-04
               11            12            13            14            15 
     11  0.267788D+00
     12  0.128818D+00  0.120632D+00
     13 -0.714007D-02  0.375967D-02  0.725529D-01
     14 -0.173440D-01  0.137088D-01 -0.744075D-01  0.268957D+00
     15 -0.138271D-01  0.862042D-02  0.427383D-01 -0.128141D+00  0.119460D+00
     16 -0.292733D-03 -0.169559D-03 -0.387078D-02  0.293423D-03 -0.168168D-03
     17  0.159061D-02  0.191045D-02 -0.103485D-02  0.160808D-02 -0.190044D-02
     18  0.191077D-02 -0.589515D-03  0.594758D-03 -0.190073D-02 -0.606818D-03
     19 -0.628637D-03 -0.365613D-03  0.456829D-05  0.630257D-03 -0.362687D-03
     20 -0.366043D-03 -0.431023D-03  0.418432D-04 -0.370026D-03  0.428772D-03
     21 -0.431293D-03  0.125440D-03 -0.241878D-04  0.429017D-03  0.129361D-03
               16            17            18            19            20 
     16  0.115618D+01
     17 -0.240040D-04 -0.652827D-03
     18  0.557889D-03  0.000000D+00 -0.652874D-03
     19 -0.113514D+01  0.240160D-04 -0.557286D-03  0.113491D+01
     20  0.240563D-04  0.171982D-02  0.000000D+00 -0.240593D-04 -0.214006D-02
     21 -0.557460D-03  0.000000D+00  0.171990D-02  0.557734D-03  0.000000D+00
               21 
     21 -0.213985D-02
 Leave Link  716 at Sun Oct 13 09:51:46 2024, MaxMem=  2684354560 cpu:               1.1 elap:               0.1
 (Enter /usr/local/g16_AVX//g16/l103.exe)

 GradGradGradGradGradGradGradGradGradGradGradGradGradGradGradGradGradGrad
 Berny optimization.
 Search for a local minimum.
 Step number   1 out of a maximum of    2
 All quantities printed in internal units (Hartrees-Bohrs-Radians)
 Second derivative matrix not updated -- analytic derivatives used.
 ITU=  0
     Eigenvalues ---   -0.00412  -0.00412   0.00308   0.00308   0.01341
     Eigenvalues ---    0.06078   0.06079   0.10890   0.10890   0.11077
     Eigenvalues ---    0.19329   0.47791   0.89966   0.89977   2.27974
 Eigenvalue     1 is  -4.12D-03 should be greater than     0.000000 Eigenvector:
                          Z6        Z7        Z2        Z4        Z5
   1                    0.69096  -0.61741  -0.18415   0.15084   0.15082
                          Z3        X3        Z1        X5        X4
   1                    0.14409   0.14198   0.10391  -0.07202  -0.07030
 Eigenvalue     2 is  -4.12D-03 should be greater than     0.000000 Eigenvector:
                          Y6        Y7        Y2        Y3        Y5
   1                    0.69096  -0.61741  -0.18415   0.15277   0.14652
                          Y4        X4        X5        Y1        Z6
   1                    0.14648  -0.12356   0.12257   0.10391   0.00640
 Quadratic step=4.625D-01 exceeds max=3.000D-01 adjusted using Lamda=-7.569D-03.
 Angle between NR and scaled steps=   4.56 degrees.
 Angle between quadratic step and forces=  52.77 degrees.
 Linear search not attempted -- first point.
 B after Tr=     0.005437   -0.000002   -0.000013
         Rot=    1.000000    0.000000    0.000003   -0.000000 Ang=   0.00 deg.
 Variable       Old X    -DE/DX   Delta X   Delta X   Delta X     New X
                                 (Linear)    (Quad)   (Total)
    X1       -0.59695   0.00222   0.00000  -0.08100  -0.07556  -0.67252
    Y1       -0.00000  -0.00000   0.00000   0.00000  -0.00000  -0.00000
    Z1       -0.00021   0.00003   0.00000   0.00012   0.00010  -0.00011
    X2       -4.08419  -0.01302   0.00000  -0.12001  -0.11457  -4.19877
    Y2       -0.00000  -0.00000   0.00000  -0.00000  -0.00001  -0.00001
    Z2        0.00009  -0.00001   0.00000  -0.00006  -0.00010  -0.00001
    X3        0.01136   0.00082   0.00000  -0.06002  -0.05457  -0.04321
    Y3        0.00445  -0.00000   0.00000  -0.00000  -0.00001   0.00444
    Z3       -1.95526   0.00081   0.00000   0.00549   0.00548  -1.94979
    X4        0.01105   0.00084   0.00000  -0.05973  -0.05430  -0.04325
    Y4        1.69093  -0.00071   0.00000  -0.00466  -0.00466   1.68626
    Z4        0.98135  -0.00042   0.00000  -0.00275  -0.00276   0.97859
    X5        0.01106   0.00084   0.00000  -0.05973  -0.05430  -0.04324
    Y5       -1.69539   0.00071   0.00000   0.00468   0.00468  -1.69071
    Z5        0.97363  -0.00041   0.00000  -0.00272  -0.00274   0.97089
    X6        4.56657   0.00297   0.00000   0.16958   0.17502   4.74159
    Y6        0.00003   0.00000   0.00000  -0.00000  -0.00000   0.00003
    Z6       -0.00060  -0.00000   0.00000  -0.00006  -0.00004  -0.00063
    X7        6.79496   0.00533   0.00000   0.17286   0.17829   6.97325
    Y7       -0.00002  -0.00000   0.00000  -0.00000  -0.00000  -0.00002
    Z7        0.00050   0.00000   0.00000   0.00002   0.00005   0.00055
         Item               Value     Threshold  Converged?
 Maximum Force            0.013015     0.000450     NO 
 RMS     Force            0.003204     0.000300     NO 
 Maximum Displacement     0.178293     0.001800     NO 
 RMS     Displacement     0.065545     0.001200     NO 
 Predicted change in Energy=-1.677916D-03
 GradGradGradGradGradGradGradGradGradGradGradGradGradGradGradGradGradGrad

 Leave Link  103 at Sun Oct 13 09:51:46 2024, MaxMem=  2684354560 cpu:               0.7 elap:               0.1
 (Enter /usr/local/g16_AVX//g16/l9999.exe)

 ----------------------------------------------------------------------

 Electric dipole moment (input orientation):
 (Debye = 10**-18 statcoulomb cm , SI units = C m)
                  (au)            (Debye)         (10**-30 SI)
   Tot        0.374576D+01      0.952077D+01      0.317579D+02
   x         -0.374576D+01     -0.952077D+01     -0.317579D+02
   y          0.000000D+00      0.000000D+00      0.000000D+00
   z          0.141713D-04      0.360199D-04      0.120150D-03

 Dipole polarizability, Alpha (input orientation).
 (esu units = cm**3 , SI units = C**2 m**2 J**-1)
 Alpha(0;0):
               (au)            (10**-24 esu)      (10**-40 SI)
   iso        0.569317D+02      0.843641D+01      0.938677D+01
   aniso      0.520008D+02      0.770572D+01      0.857377D+01
   xx         0.915989D+02      0.135736D+02      0.151026D+02
   yx        -0.200818D-03     -0.297582D-04     -0.331105D-04
   yy         0.395979D+02      0.586780D+01      0.652881D+01
   zx         0.449057D-02      0.665433D-03      0.740394D-03
   zy         0.000000D+00      0.000000D+00      0.000000D+00
   zz         0.395983D+02      0.586787D+01      0.652888D+01

 ----------------------------------------------------------------------

 Dipole orientation:
     6         -0.00021202         -0.00000060          0.59695314
    17          0.00006959          0.00000508          4.08419137
     1         -1.95526368          0.00444415         -0.01136277
     1          0.98134816          1.69092715         -0.01104540
     1          0.97363030         -1.69538460         -0.01105132
     6         -0.00057799          0.00002222         -4.56657420
     7          0.00052460         -0.00002986         -6.79496003

 Electric dipole moment (dipole orientation):
 (Debye = 10**-18 statcoulomb cm , SI units = C m)
                  (au)            (Debye)         (10**-30 SI)
   Tot        0.374576D+01      0.952077D+01      0.317579D+02
   x          0.000000D+00      0.000000D+00      0.000000D+00
   y          0.000000D+00      0.000000D+00      0.000000D+00
   z          0.374576D+01      0.952077D+01      0.317579D+02

 Dipole polarizability, Alpha (dipole orientation).
 (esu units = cm**3 , SI units = C**2 m**2 J**-1)
 Alpha(0;0):
               (au)            (10**-24 esu)      (10**-40 SI)
   iso        0.569317D+02      0.843641D+01      0.938677D+01
   aniso      0.520008D+02      0.770572D+01      0.857377D+01
   xx         0.395983D+02      0.586787D+01      0.652888D+01
   yx         0.000000D+00      0.000000D+00      0.000000D+00
   yy         0.395979D+02      0.586780D+01      0.652881D+01
   zx        -0.468730D-02     -0.694586D-03     -0.772831D-03
   zy         0.313611D-03      0.464724D-04      0.517075D-04
   zz         0.915989D+02      0.135736D+02      0.151026D+02

 ----------------------------------------------------------------------
 1\1\GINC-NODO8\Freq\RB3LYP\6-31++G(d,p)\C2H3Cl1N1(1-)\ALANQF\13-Oct-20
 24\0\\#p b3lyp 6-31++g(d,p) scf=verytight NoSymm freq=noraman int=ultr
 afine\\RxCoord=2.49921 DE=47.53\\-1,1\C,-0.315894,-0.000001,-0.000111\
 Cl,-2.161261,-0.000002,0.000045\H,0.006009,0.002354,-1.034681\H,0.0058
 45,0.894799,0.519309\H,0.005852,-0.89716,0.515221\C,2.416527,0.000017,
 -0.000315\N,3.595738,-0.000008,0.000264\\Version=ES64L-G16RevB.01\HF=-
 592.9930968\RMSD=2.184e-09\RMSF=3.204e-03\ZeroPoint=0.0434679\Thermal=
 0.0485318\Dipole=-3.69487,-0.0000082,0.0000096\DipoleDeriv=1.9074575,0
 .0000039,-0.0001429,0.0000048,0.0603429,-0.0000014,-0.0000519,-0.00000
 15,0.0603205,-1.4809609,-0.0000024,0.0000605,-0.0000014,-0.3009724,0.,
 0.0001443,0.,-0.3009829,-0.0365028,0.0000015,-0.0008288,-0.0000289,0.0
 797917,0.0001874,0.0126523,0.000188,-0.0025743,-0.036633,0.0007206,0.0
 004365,-0.0110457,0.0181309,-0.0357775,-0.0064202,-0.0357901,0.0590009
 ,-0.0366325,-0.0007211,0.0004319,0.0110763,0.0178028,0.0355915,-0.0063
 707,0.0356035,0.0593256,-0.2836474,-0.0000082,0.0001707,-0.0000216,-0.
 4525213,0.,0.0004088,0.,-0.4525131,-1.0330808,0.0000057,-0.000128,0.00
 00165,-0.4225745,0.,-0.0003626,0.,-0.4225767\Polar=91.5988816,-0.00020
 08,39.5979076,0.0044906,0.0000002,39.5983325\Quadrupole=-26.5139008,13
 .2568163,13.2570844,-0.0000031,-0.0011691,0.000009\PG=C01 [X(C2H3Cl1N1
 )]\NImag=2\\0.22363282,-0.00000122,0.60857516,-0.00003677,0.00000194,0
 .60865885,-0.07647030,-0.00000003,-0.00000128,0.16656406,-0.00000008,-
 0.03344076,-0.00000006,0.00000029,0.01766939,0.00000065,-0.00000003,-0
 .03344616,0.00000099,0.00000002,0.01766665,-0.05131579,-0.00019179,0.0
 8418694,-0.02470959,-0.00004321,0.01894552,0.07257586,-0.00018787,-0.0
 4941723,0.00064211,0.00001425,0.00061756,-0.00001752,0.00019558,0.0458
 6482,0.08248419,0.00064214,-0.33131485,-0.00627323,-0.00001760,0.00836
 176,-0.08585944,-0.00067621,0.34257011,-0.05128508,-0.07276122,-0.0422
 3832,-0.02472621,-0.01639102,-0.00951259,0.00366342,0.00682802,0.00430
 670,0.07255222,-0.07129570,-0.26025780,-0.12238618,0.00542357,0.006408
 71,0.00335912,-0.00027734,0.00218094,0.00255647,0.07421091,0.26778761,
 -0.04138469,-0.12238963,-0.12045922,0.00314776,0.00335907,0.00257104,-
 0.00806444,-0.02497588,-0.01090044,0.04307687,0.12881821,0.12063227,-0
 .05128664,0.07295407,-0.04190643,-0.02472574,0.01643411,-0.00943775,0.
 00366361,-0.00684756,0.00427566,0.00366204,-0.00714007,0.00375967,0.07
 255295,0.07148467,-0.26136856,0.12174224,-0.00543792,0.00643934,-0.003
 34159,0.00031417,0.00207826,-0.00249704,0.00712293,-0.01734403,0.01370
 881,-0.07440754,0.26895695,-0.04105947,0.12174563,-0.11934507,0.003123
 01,-0.00334143,0.00254047,-0.00806322,0.02503526,-0.01079834,0.0037922
 5,-0.01382709,0.00862042,0.04273828,-0.12814070,0.11945997,-0.00115221
 ,0.00000009,-0.00000191,-0.00826474,-0.00000005,0.00000154,-0.00388285
 ,-0.00000079,0.00033766,-0.00387096,-0.00029273,-0.00016956,-0.0038707
 8,0.00029342,-0.00016817,1.15617799,0.00000046,-0.00535213,-0.00000008
 ,-0.00000043,0.00278729,0.00000001,0.00000270,-0.00170085,-0.00000998,
 0.00103210,0.00159061,0.00191045,-0.00103485,0.00160808,-0.00190044,-0
 .00002400,-0.00065283,-0.00001012,-0.00000008,-0.00535590,0.00000880,0
 .00000001,0.00278781,-0.00119349,-0.00001001,0.00269739,0.00059945,0.0
 0191077,-0.00058951,0.00059476,-0.00190073,-0.00060682,0.00055789,0.00
 000002,-0.00065287,0.00787721,0.00000010,-0.00000225,-0.00766749,-0.00
 000004,0.00000163,0.00000534,-0.00000163,0.00072847,0.00000458,-0.0006
 2864,-0.00036561,0.00000457,0.00063026,-0.00036269,-1.13513644,0.00002
 402,-0.00055729,1.13491224,-0.00000027,0.00126132,0.00000002,0.0000002
 7,-0.00048153,0.,-0.00000011,0.00037651,0.00000222,-0.00004172,-0.0003
 6604,-0.00043102,0.00004184,-0.00037003,0.00042877,0.00002406,0.001719
 82,0.00000002,-0.00002406,-0.00214006,0.00000622,0.00000003,0.00126234
 ,-0.00000605,0.,-0.00048157,0.00004812,0.00000225,-0.00061563,-0.00002
 437,-0.00043129,0.00012544,-0.00002419,0.00042902,0.00012936,-0.000557
 46,0.00000002,0.00171990,0.00055773,-0.00000002,-0.00213985\\-0.002216
 10,0.00000058,-0.00003002,0.01301515,0.00000028,0.00001047,-0.00082125
 ,0.00000128,-0.00081250,-0.00083894,0.00070667,0.00041795,-0.00083827,
 -0.00070885,0.00041425,-0.00296721,-0.00000004,0.00000214,-0.00533337,
 0.00000008,-0.00000229\\\@


 The earth never tires,
 The earth is rude, silent, incomprehensible at first,
 Nature is rude and incomprehensible at first,
 Be not discouraged, keep on,
 There are divine things well envelop'd,
 I swear to you there are divine things more beautiful than words can tell.
                                 -- Walt Whitman
 Job cpu time:       0 days  0 hours  4 minutes 25.6 seconds.
 Elapsed time:       0 days  0 hours  0 minutes 11.9 seconds.
 File lengths (MBytes):  RWF=     88 Int=      0 D2E=      0 Chk=      2 Scr=      2
 Normal termination of Gaussian 16 at Sun Oct 13 09:51:46 2024.
