RxCoord=2.49921 DE=47.53                                                
Freq      RB3LYP                                                      6-31++G(d,p)        
Number of atoms                            I                7
Info1-9                                    I   N=           9
          16          16           0           0           0         100
           6          18        -502
Full Title                                 C   N=           2
RxCoord=2.49921 DE=47.53
Route                                      C   N=           6
#p b3lyp 6-31++g(d,p) scf=verytight NoSymm freq=noraman int=
ultrafine   
Charge                                     I               -1
Multiplicity                               I                1
Number of electrons                        I               40
Number of alpha electrons                  I               20
Number of beta electrons                   I               20
Number of basis functions                  I               98
Number of independent functions            I               98
Number of point charges in /Mol/           I                0
Number of translation vectors              I                0
Atomic numbers                             I   N=           7
           6          17           1           1           1           6
           7
Nuclear charges                            R   N=           7
  6.00000000E+00  1.70000000E+01  1.00000000E+00  1.00000000E+00  1.00000000E+00
  6.00000000E+00  7.00000000E+00
Current cartesian coordinates              R   N=          21
 -5.96953144E-01 -1.88972612E-06 -2.09759600E-04 -4.08419137E+00 -3.77945225E-06
  8.50376756E-05  1.13553643E-02  4.44841530E-03 -1.95526372E+00  1.10454492E-02
  1.69092505E+00  9.81351784E-01  1.10586773E-02 -1.69538669E+00  9.73626584E-01
  4.56657420E+00  3.21253441E-05 -5.95263729E-04  6.79496004E+00 -1.51178090E-05
  4.98887697E-04
Number of symbols in /Mol/                 I                0
Force Field                                I                0
Atom Types                                 C   N=           7
                                                            
                        
Int Atom Types                             I   N=           7
           0           0           0           0           0           0
           0
MM charges                                 R   N=           7
  0.00000000E+00  0.00000000E+00  0.00000000E+00  0.00000000E+00  0.00000000E+00
  0.00000000E+00  0.00000000E+00
Integer atomic weights                     I   N=           7
          12          35           1           1           1          12
          14
Real atomic weights                        R   N=           7
  1.20000000E+01  3.49688527E+01  1.00782504E+00  1.00782504E+00  1.00782504E+00
  1.20000000E+01  1.40030740E+01
Atom fragment info                         I   N=           7
           0           0           0           0           0           0
           0
Atom residue num                           I   N=           7
           0           0           0           0           0           0
           0
Nuclear spins                              I   N=           7
           0           3           1           1           1           0
           2
Nuclear ZEff                               R   N=           7
 -3.60000000E+00 -1.42400000E+01 -1.00000000E+00 -1.00000000E+00 -1.00000000E+00
 -3.60000000E+00 -4.55000000E+00
Nuclear ZNuc                               R   N=           7
  6.00000000E+00  1.70000000E+01  1.00000000E+00  1.00000000E+00  1.00000000E+00
  6.00000000E+00  7.00000000E+00
Nuclear QMom                               R   N=           7
  0.00000000E+00 -8.16500000E+00  0.00000000E+00  0.00000000E+00  0.00000000E+00
  0.00000000E+00  2.04400000E+00
Nuclear GFac                               R   N=           7
  0.00000000E+00  8.21874000E-01  2.79284600E+00  2.79284600E+00  2.79284600E+00
  0.00000000E+00  4.03761000E-01
MicOpt                                     I   N=           7
          -1          -1          -1          -1          -1          -1
          -1
Number of residues                         I                0
Number of secondary structures             I                0
Number of contracted shells                I               33
Number of primitive shells                 I               72
Pure/Cartesian d shells                    I                1
Pure/Cartesian f shells                    I                0
Highest angular momentum                   I                2
Largest degree of contraction              I                6
Shell types                                I   N=          33
           0          -1          -1          -1           2           0
          -1          -1          -1          -1           2           0
           0           0           1           0           0           0
           1           0           0           0           1           0
          -1          -1          -1           2           0          -1
          -1          -1           2
Number of primitives per shell             I   N=          33
           6           3           1           1           1           6
           6           3           1           1           1           3
           1           1           1           3           1           1
           1           3           1           1           1           6
           3           1           1           1           6           3
           1           1           1
Shell to atom map                          I   N=          33
           1           1           1           1           1           2
           2           2           2           2           2           3
           3           3           3           4           4           4
           4           5           5           5           5           6
           6           6           6           6           7           7
           7           7           7
Primitive exponents                        R   N=          72
  3.04752488E+03  4.57369518E+02  1.03948685E+02  2.92101553E+01  9.28666296E+00
  3.16392696E+00  7.86827235E+00  1.88128854E+00  5.44249258E-01  1.68714478E-01
  4.38000000E-02  8.00000000E-01  2.51801000E+04  3.78035000E+03  8.60474000E+02
  2.42145000E+02  7.73349000E+01  2.62470000E+01  4.91765000E+02  1.16984000E+02
  3.74153000E+01  1.37834000E+01  5.45215000E+00  2.22588000E+00  3.18649000E+00
  1.14427000E+00  4.20377000E-01  1.42657000E-01  4.83000000E-02  7.50000000E-01
  1.87311370E+01  2.82539436E+00  6.40121692E-01  1.61277759E-01  3.60000000E-02
  1.10000000E+00  1.87311370E+01  2.82539436E+00  6.40121692E-01  1.61277759E-01
  3.60000000E-02  1.10000000E+00  1.87311370E+01  2.82539436E+00  6.40121692E-01
  1.61277759E-01  3.60000000E-02  1.10000000E+00  3.04752488E+03  4.57369518E+02
  1.03948685E+02  2.92101553E+01  9.28666296E+00  3.16392696E+00  7.86827235E+00
  1.88128854E+00  5.44249258E-01  1.68714478E-01  4.38000000E-02  8.00000000E-01
  4.17351146E+03  6.27457911E+02  1.42902093E+02  4.02343293E+01  1.28202129E+01
  4.39043701E+00  1.16263619E+01  2.71627981E+00  7.72218397E-01  2.12031498E-01
  6.39000000E-02  8.00000000E-01
Contraction coefficients                   R   N=          72
  1.83473713E-03  1.40373228E-02  6.88426223E-02  2.32184443E-01  4.67941348E-01
  3.62311985E-01 -1.19332420E-01 -1.60854152E-01  1.14345644E+00  1.00000000E+00
  1.00000000E+00  1.00000000E+00  1.83295985E-03  1.40341988E-02  6.90973943E-02
  2.37451980E-01  4.83033960E-01  3.39855972E-01 -2.29739142E-03 -3.07137189E-02
 -1.12528069E-01  4.50163278E-02  5.89353363E-01  4.65206287E-01 -2.51828028E-01
  6.15892514E-02  1.06018433E+00  1.00000000E+00  1.00000000E+00  1.00000000E+00
  3.34946043E-02  2.34726953E-01  8.13757326E-01  1.00000000E+00  1.00000000E+00
  1.00000000E+00  3.34946043E-02  2.34726953E-01  8.13757326E-01  1.00000000E+00
  1.00000000E+00  1.00000000E+00  3.34946043E-02  2.34726953E-01  8.13757326E-01
  1.00000000E+00  1.00000000E+00  1.00000000E+00  1.83473713E-03  1.40373228E-02
  6.88426223E-02  2.32184443E-01  4.67941348E-01  3.62311985E-01 -1.19332420E-01
 -1.60854152E-01  1.14345644E+00  1.00000000E+00  1.00000000E+00  1.00000000E+00
  1.83477216E-03  1.39946270E-02  6.85865518E-02  2.32240873E-01  4.69069948E-01
  3.60455199E-01 -1.14961182E-01 -1.69117479E-01  1.14585195E+00  1.00000000E+00
  1.00000000E+00  1.00000000E+00
P(S=P) Contraction coefficients            R   N=          72
  0.00000000E+00  0.00000000E+00  0.00000000E+00  0.00000000E+00  0.00000000E+00
  0.00000000E+00  6.89990666E-02  3.16423961E-01  7.44308291E-01  1.00000000E+00
  1.00000000E+00  0.00000000E+00  0.00000000E+00  0.00000000E+00  0.00000000E+00
  0.00000000E+00  0.00000000E+00  0.00000000E+00  3.98940088E-03  3.03177067E-02
  1.29880029E-01  3.27951072E-01  4.53527100E-01  2.52154056E-01 -1.42993147E-02
  3.23572333E-01  7.43507765E-01  1.00000000E+00  1.00000000E+00  0.00000000E+00
  0.00000000E+00  0.00000000E+00  0.00000000E+00  0.00000000E+00  0.00000000E+00
  0.00000000E+00  0.00000000E+00  0.00000000E+00  0.00000000E+00  0.00000000E+00
  0.00000000E+00  0.00000000E+00  0.00000000E+00  0.00000000E+00  0.00000000E+00
  0.00000000E+00  0.00000000E+00  0.00000000E+00  0.00000000E+00  0.00000000E+00
  0.00000000E+00  0.00000000E+00  0.00000000E+00  0.00000000E+00  6.89990666E-02
  3.16423961E-01  7.44308291E-01  1.00000000E+00  1.00000000E+00  0.00000000E+00
  0.00000000E+00  0.00000000E+00  0.00000000E+00  0.00000000E+00  0.00000000E+00
  0.00000000E+00  6.75797439E-02  3.23907296E-01  7.40895140E-01  1.00000000E+00
  1.00000000E+00  0.00000000E+00
Coordinates of each shell                  R   N=          99
 -5.96953144E-01 -1.88972612E-06 -2.09759600E-04 -5.96953144E-01 -1.88972612E-06
 -2.09759600E-04 -5.96953144E-01 -1.88972612E-06 -2.09759600E-04 -5.96953144E-01
 -1.88972612E-06 -2.09759600E-04 -5.96953144E-01 -1.88972612E-06 -2.09759600E-04
 -4.08419137E+00 -3.77945225E-06  8.50376756E-05 -4.08419137E+00 -3.77945225E-06
  8.50376756E-05 -4.08419137E+00 -3.77945225E-06  8.50376756E-05 -4.08419137E+00
 -3.77945225E-06  8.50376756E-05 -4.08419137E+00 -3.77945225E-06  8.50376756E-05
 -4.08419137E+00 -3.77945225E-06  8.50376756E-05  1.13553643E-02  4.44841530E-03
 -1.95526372E+00  1.13553643E-02  4.44841530E-03 -1.95526372E+00  1.13553643E-02
  4.44841530E-03 -1.95526372E+00  1.13553643E-02  4.44841530E-03 -1.95526372E+00
  1.10454492E-02  1.69092505E+00  9.81351784E-01  1.10454492E-02  1.69092505E+00
  9.81351784E-01  1.10454492E-02  1.69092505E+00  9.81351784E-01  1.10454492E-02
  1.69092505E+00  9.81351784E-01  1.10586773E-02 -1.69538669E+00  9.73626584E-01
  1.10586773E-02 -1.69538669E+00  9.73626584E-01  1.10586773E-02 -1.69538669E+00
  9.73626584E-01  1.10586773E-02 -1.69538669E+00  9.73626584E-01  4.56657420E+00
  3.21253441E-05 -5.95263729E-04  4.56657420E+00  3.21253441E-05 -5.95263729E-04
  4.56657420E+00  3.21253441E-05 -5.95263729E-04  4.56657420E+00  3.21253441E-05
 -5.95263729E-04  4.56657420E+00  3.21253441E-05 -5.95263729E-04  6.79496004E+00
 -1.51178090E-05  4.98887697E-04  6.79496004E+00 -1.51178090E-05  4.98887697E-04
  6.79496004E+00 -1.51178090E-05  4.98887697E-04  6.79496004E+00 -1.51178090E-05
  4.98887697E-04  6.79496004E+00 -1.51178090E-05  4.98887697E-04
Num ILSW                                   I              100
ILSW                                       I   N=         100
           0           1           0           0           2           0
           0           0           0           0         402          -1
           5           0           0           0           2           0
           0           0           0           0           1           0
           1           1           0           0           0           0
           0           0      100000           0          -1           0
           0           0           0           0           0           0
           0           0           0           1           0           0
           0 -2000000000           1           0           0           0
           0           0           4          52           0           0
           0           0           5           0           0           0
           0           0           0           7           0           1
           0           0           0           0           0           0
           0           0           0           0           0           0
           0           0           0           0           0           0
           0           0           0           0           0           0
           0           0           0           0
Num RLSW                                   I               52
RLSW                                       R   N=          52
  8.00000000E-01  7.20000000E-01  1.00000000E+00  8.10000000E-01  2.00000000E-01
  0.00000000E+00  0.00000000E+00  1.00000000E+00  0.00000000E+00  0.00000000E+00
  0.00000000E+00  0.00000000E+00  1.00000000E+00  0.00000000E+00  0.00000000E+00
  0.00000000E+00  0.00000000E+00  1.00000000E+00  0.00000000E+00  0.00000000E+00
  0.00000000E+00  0.00000000E+00  1.00000000E+00  0.00000000E+00  0.00000000E+00
  0.00000000E+00  0.00000000E+00  1.00000000E+00  0.00000000E+00  0.00000000E+00
  0.00000000E+00  0.00000000E+00  1.00000000E+00  0.00000000E+00  0.00000000E+00
  0.00000000E+00  0.00000000E+00  0.00000000E+00  1.00000000E+00  1.00000000E+00
  0.00000000E+00  1.00000000E+00  0.00000000E+00  0.00000000E+00  0.00000000E+00
  0.00000000E+00  0.00000000E+00  0.00000000E+00  0.00000000E+00  0.00000000E+00
  0.00000000E+00  0.00000000E+00
MxBond                                     I                4
NBond                                      I   N=           7
           4           1           1           1           1           1
           1
IBond                                      I   N=          28
           2           3           4           5           1           0
           0           0           1           0           0           0
           1           0           0           0           1           0
           0           0           7           0           0           0
           6           0           0           0
RBond                                      R   N=          28
  1.00000000E+00  1.00000000E+00  1.00000000E+00  1.00000000E+00  1.00000000E+00
  0.00000000E+00  0.00000000E+00  0.00000000E+00  1.00000000E+00  0.00000000E+00
  0.00000000E+00  0.00000000E+00  1.00000000E+00  0.00000000E+00  0.00000000E+00
  0.00000000E+00  1.00000000E+00  0.00000000E+00  0.00000000E+00  0.00000000E+00
  2.00000000E+00  0.00000000E+00  0.00000000E+00  0.00000000E+00  2.00000000E+00
  0.00000000E+00  0.00000000E+00  0.00000000E+00
Virial Ratio                               R      2.004496451087793E+00
SCF Energy                                 R     -5.929930968305508E+02
Total Energy                               R     -5.929930968305508E+02
RMS Force                                  R      3.204495319676275E-03
RMS Density                                R      2.183730065985677E-09
NImag                                      I                2
Job Status                                 I                1
Nuclear derivative order                   I                2
External E-field                           R   N=          35
  0.00000000E+00  0.00000000E+00  0.00000000E+00  0.00000000E+00  0.00000000E+00
  0.00000000E+00  0.00000000E+00  0.00000000E+00  0.00000000E+00  0.00000000E+00
  0.00000000E+00  0.00000000E+00  0.00000000E+00  0.00000000E+00  0.00000000E+00
  0.00000000E+00  0.00000000E+00  0.00000000E+00  0.00000000E+00  0.00000000E+00
  0.00000000E+00  0.00000000E+00  0.00000000E+00  0.00000000E+00  0.00000000E+00
  0.00000000E+00  0.00000000E+00  0.00000000E+00  0.00000000E+00  0.00000000E+00
  0.00000000E+00  0.00000000E+00  0.00000000E+00  0.00000000E+00  0.00000000E+00
IOpCl                                      I                0
IROHF                                      I                0
Alpha Orbital Energies                     R   N=          98
 -1.01403320E+02 -1.40966042E+01 -1.00964404E+01 -9.96099980E+00 -9.31957495E+00
 -7.08240995E+00 -7.07431390E+00 -7.07431376E+00 -7.07618358E-01 -6.50287744E-01
 -5.35670918E-01 -3.02990234E-01 -3.02983033E-01 -2.70636259E-01 -1.83802320E-01
 -1.70369616E-01 -1.70364320E-01 -9.92265381E-02 -9.92263933E-02 -7.04401157E-02
  1.10954907E-01  1.30744486E-01  1.46523289E-01  1.46527344E-01  1.72458517E-01
  2.05147559E-01  2.05148858E-01  2.05541981E-01  2.21725867E-01  2.21751900E-01
  2.44177114E-01  2.50877016E-01  2.50882302E-01  2.71785735E-01  2.74168461E-01
  2.74178950E-01  3.15121585E-01  3.39072240E-01  3.39090778E-01  3.63865888E-01
  3.85684732E-01  3.86417419E-01  3.86433209E-01  4.67220955E-01  4.82619000E-01
  6.65954914E-01  7.40205952E-01  7.48628562E-01  7.48630352E-01  7.78087340E-01
  7.78090715E-01  8.86041581E-01  8.96427220E-01  8.96432986E-01  9.85362941E-01
  1.00020025E+00  1.00021577E+00  1.05052313E+00  1.05054992E+00  1.08517165E+00
  1.09920742E+00  1.09924309E+00  1.12451799E+00  1.19072578E+00  1.19073256E+00
  1.26651044E+00  1.27446990E+00  1.36568980E+00  1.48410432E+00  1.60714108E+00
  1.60717714E+00  1.77963064E+00  1.77963225E+00  1.78853137E+00  1.80286550E+00
  1.80287004E+00  2.15941412E+00  2.20024370E+00  2.20024797E+00  2.22125002E+00
  2.22129158E+00  2.28483914E+00  2.50069816E+00  2.50076266E+00  2.66357525E+00
  2.83339409E+00  2.83339909E+00  2.84744299E+00  2.96218741E+00  2.96222712E+00
  3.26367676E+00  3.39495982E+00  3.56218852E+00  3.56220338E+00  4.21598096E+00
  4.42521667E+00  4.46241536E+00  4.57276756E+00
Alpha MO coefficients                      R   N=        9604
 -6.08305273E-06  1.97120037E-05 -5.03431099E-05 -9.15336625E-12  9.92882260E-10
  1.00917628E-04 -5.38763887E-05 -7.01152593E-12  1.60537973E-08 -4.43028160E-05
 -1.31907844E-04 -1.18348956E-09  6.73576278E-09 -1.00170480E-05  1.35706952E-05
  1.35798995E-05 -1.39573192E-10 -2.40376737E-09  1.80269114E-10  9.95996922E-01
  1.51509172E-02  3.85049065E-05 -4.55346210E-11 -5.18168075E-09 -2.10630527E-02
 -1.79571615E-05 -4.48816512E-11  1.86524740E-09  1.87763202E-03 -5.63787978E-05
  1.26433192E-10  3.28841919E-09 -4.54044780E-04 -3.05746638E-05  1.82947177E-10
  1.38680171E-09  7.50048031E-03  7.52512896E-03  7.52512892E-03  8.29829063E-12
  1.14961666E-09  5.51963313E-12 -2.51107834E-05 -2.73322902E-05  4.11589078E-05
  2.35931956E-05  2.66857026E-08 -1.17039054E-05 -2.51269970E-05 -2.73167075E-05
  4.11584505E-05  2.35783059E-05  1.01193769E-05  5.87005202E-06 -2.51268485E-05
 -2.73159501E-05  4.11560682E-05  2.35787624E-05 -1.01458556E-05  5.82376743E-06
 -9.34485990E-07  6.87268413E-07  1.06789357E-06  3.04163492E-10 -5.93557501E-09
 -1.27212395E-04 -1.15756299E-04  1.17311076E-09 -3.14910511E-08  3.41390351E-05
 -1.05655721E-04 -1.13275882E-09  1.16771488E-08 -1.27730412E-05 -2.67822051E-07
 -2.67576616E-07  3.57658426E-10 -7.79694652E-09  1.55165756E-12 -2.48771752E-06
 -9.88853017E-06 -1.34632583E-06 -1.68693673E-11  2.42816908E-10  1.44502592E-04
 -7.49570970E-05  1.86910932E-09 -4.26712948E-08  9.99127871E-05  1.63624439E-05
  1.67865417E-09 -2.99958212E-08  4.01416691E-06 -7.17126841E-06 -7.17129869E-06
 -3.91903753E-10  8.73661809E-09 -1.56869574E-12  2.83622645E-06  1.71813855E-05
 -4.22753168E-06  1.58889750E-10 -4.67826940E-09 -2.35409338E-05 -1.63174050E-05
 -4.77036382E-10  1.93269672E-08  1.18312895E-03  8.96919845E-05  6.70996510E-09
 -1.26616979E-07 -5.92921741E-06  7.78635697E-06  7.78502881E-06 -1.21589327E-10
  3.05059163E-10  6.43293379E-12  1.06768850E-07  2.06287098E-06 -3.57098751E-07
  2.73992421E-11 -3.20949700E-10  4.22944022E-06  2.08925004E-06 -1.57911257E-10
  1.89310125E-09 -5.01175659E-05 -2.17588481E-05  6.12736195E-10 -8.13234442E-09
 -2.03437024E-04 -8.60130931E-05 -4.42834966E-09  9.93783624E-08  4.56246216E-06
  3.76535089E-06  3.76483744E-06 -2.36049760E-11  9.36103513E-10  6.25280701E-12
  7.45563303E-06 -5.74233457E-05 -1.86809828E-04 -1.42463086E-06  9.15456671E-09
 -4.02362504E-06  7.44997752E-06 -5.74022256E-05 -1.87010262E-04 -1.41532044E-06
  3.47653732E-06  2.01729309E-06  7.44959013E-06 -5.74004996E-05 -1.87024502E-04
 -1.41490083E-06 -3.48550114E-06  2.00129141E-06  8.40685554E-05  2.06648990E-04
 -2.86690832E-04  5.89426138E-09 -1.36572426E-07 -2.51380961E-04 -4.23213068E-04
  1.00264924E-08 -2.30300152E-07  1.43818240E-03  1.04770695E-03 -2.13229108E-08
  4.74573788E-07 -7.62310592E-04 -1.26797413E-05 -1.26797325E-05  1.83995364E-08
 -4.25846951E-07  8.78359243E-12  9.92697040E-01  3.44490078E-02 -1.40499143E-03
  2.96920533E-08 -6.86560927E-07  5.22337808E-03  1.08556557E-04 -2.40821042E-09
  5.36350746E-08 -3.03094038E-03  5.34100946E-05 -1.89848502E-09  5.39276828E-08
 -7.70610264E-03 -8.42585810E-03 -8.42585822E-03 -1.75262153E-08  4.06133934E-07
 -1.68357310E-11  9.92999763E-01  4.96219594E-02 -6.67368633E-04 -9.26047396E-09
  2.08221654E-07 -1.64932190E-02  7.16685698E-04  1.63902540E-08 -7.68974048E-07
  6.30985680E-03 -2.58538276E-03  9.24954578E-09 -5.81646734E-08 -9.28249356E-03
 -8.83998084E-03 -8.83993108E-03 -2.01410533E-09 -2.02452442E-08  1.65975570E-09
 -8.64111648E-06 -4.90743718E-05 -4.41531292E-06 -1.14576544E-10 -6.34927368E-09
 -3.01611124E-05  1.88725898E-04  8.96650855E-10  2.48818275E-08  3.03906649E-03
  1.78412109E-03 -4.64336278E-09 -2.25044739E-07 -4.85065031E-03 -1.68203246E-03
  2.66522115E-10  2.73071740E-07 -1.10687789E-04 -1.67558390E-04 -1.67537844E-04
 -1.19410521E-09 -1.07698525E-08 -3.49852015E-10 -1.49337876E-04  3.03495923E-03
 -8.72996632E-04  3.57710626E-05  2.28843041E-07 -1.00068992E-04 -1.49291619E-04
  3.03559823E-03 -8.73069404E-04  3.58057646E-05  8.65653508E-05  5.02833876E-05
 -1.49293554E-04  3.03561716E-03 -8.73034760E-04  3.58054615E-05 -8.67945375E-05
  4.98895900E-05 -1.62273721E-05 -8.10752120E-05  4.37540060E-05  7.24255474E-10
 -3.94213415E-08 -5.04930060E-04 -1.01038358E-03  8.29767675E-09 -1.22915816E-07
  1.18645304E-03  8.93149958E-04  6.84026581E-09  1.09404094E-07 -4.91140570E-06
 -3.75442647E-05 -3.75555969E-05  2.47801221E-09 -5.61331136E-08 -1.05653059E-10
 -3.46687756E-05 -1.33564577E-04  3.12220592E-06 -2.36364522E-09  5.43561749E-08
  1.36255569E-03 -4.16890136E-04  1.87740216E-08 -4.36944315E-07 -9.32548575E-04
 -2.85110964E-04 -1.96877214E-08  2.38930961E-07 -4.03727054E-05 -8.10039896E-05
 -8.10025662E-05 -6.80925149E-10  2.52963854E-08  3.46501559E-11 -2.25506090E-05
 -1.09634494E-04 -9.91231579E-05  5.09549121E-10 -1.60500142E-08  4.44759841E-04
  6.57250936E-04 -6.14698784E-09  1.34751439E-07 -2.39671876E-03  5.23598145E-03
  9.88211847E-09 -3.65992611E-07  9.28727249E-07 -3.13581968E-05 -3.13607674E-05
 -1.76438475E-10  1.05637327E-08 -1.66483680E-10  1.70730570E-07  6.86916492E-06
  4.85115778E-06  2.79881753E-11 -4.53124046E-10  1.59921606E-05 -3.23407832E-05
 -2.19193667E-10  3.24387307E-09 -1.52316750E-04  3.87579514E-04  2.00620961E-09
 -5.11360613E-08  6.53140385E-03  1.54297699E-03 -2.76720636E-09 -1.79655976E-07
  5.08556323E-05 -2.05645507E-06 -2.05880453E-06  2.98546794E-10 -1.04652813E-08
  4.72680246E-11 -3.92968162E-05 -4.68758447E-04 -1.68670539E-05 -3.12252115E-05
  2.56225557E-08 -1.10554355E-05 -3.93091848E-05 -4.68883450E-04 -1.63537177E-05
 -3.12722087E-05  9.58395927E-06  5.55335597E-06 -3.93111194E-05 -4.68891596E-04
 -1.63385663E-05 -3.12728494E-05 -9.60972643E-06  5.51041102E-06  9.92838695E-01
  4.93579183E-02  1.88393192E-03 -4.38192167E-08  1.00371115E-06 -1.09077095E-02
 -7.03203439E-04  3.13563299E-08 -6.86520703E-07 -7.88124265E-03 -6.70290933E-05
  6.96022293E-08 -1.23670196E-06 -8.45318402E-03 -9.71507190E-03 -9.71506746E-03
 -3.09825450E-08  7.17714485E-07  3.53662918E-11 -4.90925875E-04  5.48764227E-05
  4.39283318E-04 -8.95742441E-09  2.03287098E-07 -1.19534631E-03  5.82029099E-04
 -1.60968232E-08  3.85957775E-07  8.99432139E-03 -3.40445085E-03  4.76449412E-08
 -1.28720127E-06 -2.75609759E-04  1.76484119E-04  1.76483901E-04  1.21962665E-08
 -2.78897734E-07  4.74822189E-12 -1.02395506E-04  1.35324429E-04  3.45321350E-04
  1.07402261E-09 -4.81183249E-08  2.89927185E-03 -1.52736183E-03 -1.87488923E-08
  7.86488204E-08 -3.61401238E-02  3.84038873E-02  8.85810889E-08 -2.74789341E-06
 -7.42586145E-04 -1.17505509E-04 -1.17431184E-04 -9.78546641E-10  7.84527638E-08
 -1.75235944E-09 -2.84604679E-01  1.02274687E+00  4.66865370E-03 -7.37211541E-09
 -6.10112977E-07  7.60521462E-02  5.75499938E-04  6.19240388E-10 -5.17964455E-08
 -2.65499870E-02 -1.64312148E-03 -4.98254571E-10  1.74139081E-07  6.49216388E-02
  1.79459865E-02 -7.23657871E-09 -1.73885769E-06 -1.52068414E-02 -1.55725345E-02
 -1.55725314E-02  1.60925759E-10 -4.06027932E-08  1.39026771E-11 -4.09216682E-05
 -7.75710941E-04  1.19179642E-03 -7.00038953E-05 -1.86276471E-08  8.56180692E-06
 -4.08823652E-05 -7.75501667E-04  1.19160326E-03 -7.01838857E-05 -7.40173459E-06
 -4.29220433E-06 -4.08836272E-05 -7.75532759E-04  1.19168204E-03 -7.01803889E-05
  7.41966038E-06 -4.25649482E-06  1.74614923E-05  7.77998776E-05  4.55632415E-05
 -8.66289850E-09  1.80636912E-07  1.31904775E-04  4.91968782E-04  1.98208962E-08
 -4.16741804E-07 -2.28232975E-02  1.14891415E-02  2.30697954E-07 -2.31413028E-06
  8.98014213E-05  1.23128649E-05  1.23169891E-05 -1.78632810E-09  3.11691643E-08
  1.03469402E-11  9.49388758E-06  5.27445457E-05 -1.83007821E-05 -4.56029110E-09
  5.97889338E-08 -6.84347925E-04  5.33334428E-04  7.93818504E-09  4.08097250E-08
  1.11280034E-03 -3.02516220E-03 -1.24407865E-07  1.41418446E-06 -4.89932360E-05
  2.57820986E-05  2.57813350E-05  3.72696498E-09 -8.21881048E-08  2.77841571E-11
  6.46331469E-05  1.52633027E-03  2.81590458E-04 -2.92285471E-09  8.96653800E-09
 -4.95084270E-04  1.77934800E-03  8.89183945E-09 -8.11224485E-07  4.60672926E-02
 -5.86026760E-02 -1.33346028E-07  4.62241999E-06 -1.90323890E-03  2.00588954E-04
  2.00770941E-04 -3.04606239E-10  2.25785530E-07 -2.25243902E-09  1.37559294E-03
 -5.25832388E-03  9.90335409E-01 -6.58852883E-07 -1.23702587E-04 -4.09806806E-04
  3.14765486E-02 -1.92813210E-08 -3.83393259E-06  5.29837003E-03 -1.29602155E-02
  6.07058970E-09  1.51653511E-06 -7.55685767E-02 -1.50309831E-02  1.65024932E-08
  1.78371263E-06  6.90221473E-04 -4.66645486E-04 -4.66644786E-04  5.13477372E-11
 -8.20798197E-08 -1.27015539E-10 -1.99908094E-04  1.38431941E-03 -5.92860519E-03
 -3.23978761E-04  8.03767648E-08 -3.54370712E-05 -1.99397232E-04  1.38444323E-03
 -5.93022205E-03 -3.24296912E-04  3.06584172E-05  1.78530407E-05 -1.99401006E-04
  1.38443800E-03 -5.93027985E-03 -3.24292528E-04 -3.07409065E-05  1.77134483E-05
 -2.43630520E-05 -1.61598477E-04 -1.04080696E-04  9.30861969E-09 -1.73492234E-07
  3.35401139E-03  2.20506314E-03 -7.64133470E-08  1.67148869E-06  4.69662255E-02
 -1.85022438E-02 -4.34151740E-07  4.97580386E-06  1.39475757E-04 -4.72429579E-05
 -4.72482880E-05 -6.64803637E-09  1.65677363E-07 -7.05589420E-11 -2.98035699E-08
  2.82018550E-05  3.86873935E-05  7.54527796E-09 -1.02224853E-07 -1.52371337E-03
  1.14620441E-03 -5.83057805E-08  9.93730466E-07 -9.34262084E-03  6.18488248E-03
  1.70159007E-07 -1.46683740E-06 -1.35006807E-04  2.48267898E-05  2.48268833E-05
  2.22798184E-09 -6.26119269E-08 -5.22975239E-12  4.61819127E-08  2.97493235E-07
  3.85335461E-08  4.76407049E-07 -8.15616726E-05 -1.31703303E-06 -1.63147734E-07
 -1.83936627E-06  3.14205713E-04  3.46561574E-06 -7.93688111E-06 -2.33822786E-06
  4.04439774E-04  2.17778639E-08 -8.51221021E-05  8.51163387E-05 -7.29902602E-07
  1.25050576E-04 -9.86261816E-08 -3.06454800E-09 -5.23194202E-09  1.23713460E-04
 -5.78533449E-03  9.90824155E-01 -1.26308707E-08  3.80998963E-06 -1.72874473E-04
  2.96075537E-02  5.19204521E-07 -1.56961911E-06  6.79647499E-05 -1.16406796E-02
 -8.85810702E-06 -1.60147848E-06 -3.03489300E-05  5.19948654E-03  8.23866390E-08
  4.89300306E-06 -5.00999270E-06 -1.80399699E-06  3.09024653E-04  5.64294225E-09
  6.07757564E-05 -5.78324482E-04  4.69867092E-03  2.63343026E-04  2.22278908E-07
 -5.80152336E-05 -3.00789366E-05  2.88398279E-04 -2.33559215E-03 -1.30970268E-04
 -1.39763252E-05 -3.34707881E-05 -3.04560541E-05  2.91968355E-04 -2.36443744E-03
 -1.32591945E-04  1.44829312E-05 -3.35076253E-05 -3.02390821E-09 -1.58204952E-08
 -4.72020779E-08 -2.98608977E-07  5.12047359E-05 -1.30723172E-06 -1.03216037E-06
  1.17593717E-06 -2.02053608E-04  6.35174200E-06 -2.84158441E-06 -5.96735090E-06
  1.02830436E-03 -6.11759650E-08  3.34924850E-06 -3.31016498E-06  2.16899827E-08
 -3.79216836E-06  4.22778220E-09 -4.15574557E-08 -1.60049585E-07  2.12506888E-08
  1.22280592E-07 -2.11744976E-05  1.79859024E-06 -8.73918645E-07 -7.44915612E-07
  1.28857591E-04 -8.89575358E-07  9.19035037E-07  2.28378004E-06 -3.95745883E-04
  1.21678998E-08  1.87068986E-06 -2.09860741E-06  8.51822184E-08 -1.46233050E-05
  2.35228049E-09  6.50220924E-10  5.68992352E-09 -3.65547467E-09 -8.15977164E-05
 -4.76265421E-07 -3.06346870E-08  2.61835703E-08  3.13762146E-04  1.82727320E-06
 -9.04020635E-08  1.42229569E-07  4.03897929E-04  2.38158927E-06 -1.68142057E-09
  8.44546413E-08 -8.52785211E-08  1.25029202E-04  7.30291191E-07 -9.84728454E-05
 -1.11266191E-09  3.72951682E-09  1.38084506E-06  9.90824165E-01  5.78533383E-03
 -1.10166679E-09  4.31843372E-08  2.96075405E-02  1.72877196E-04  1.39482612E-08
  2.25458262E-09 -1.16405829E-02 -6.79724724E-05  1.69954001E-07  4.16173280E-08
  5.19942565E-03  3.03693800E-05  4.11081966E-09 -6.30798356E-09  3.56805980E-09
  3.09046822E-04  1.80486707E-06  5.64918758E-06  2.13504037E-07 -2.04917191E-06
  1.68112211E-05  9.37269356E-07 -2.53250022E-05 -2.63823266E-07 -5.25296346E-05
  5.02945695E-04 -4.07662139E-03 -2.28672955E-04 -4.99490035E-05 -1.44666501E-05
  5.23153079E-05 -5.00856066E-04  4.05986297E-03  2.27729631E-04 -4.99105784E-05
  1.39985908E-05 -1.37482250E-10 -8.51827524E-10  1.94191238E-09  5.12019486E-05