 Entering Gaussian System, Link 0=g16
 Initial command:
 /usr/local/g16_AVX//g16/l1.exe "/scratch/alanqf/0127-54569.ixchel.mda.cinvestav.mx/Gau-19866.inp" -scrdir="/scratch/alanqf/0127-54569.ixchel.mda.cinvestav.mx/"
 Entering Link 1 = /usr/local/g16_AVX//g16/l1.exe PID=     19867.
  
 Copyright (c) 1988-2017, Gaussian, Inc.  All Rights Reserved.
  
 This is part of the Gaussian(R) 16 program.  It is based on
 the Gaussian(R) 09 system (copyright 2009, Gaussian, Inc.),
 the Gaussian(R) 03 system (copyright 2003, Gaussian, Inc.),
 the Gaussian(R) 98 system (copyright 1998, Gaussian, Inc.),
 the Gaussian(R) 94 system (copyright 1995, Gaussian, Inc.),
 the Gaussian 92(TM) system (copyright 1992, Gaussian, Inc.),
 the Gaussian 90(TM) system (copyright 1990, Gaussian, Inc.),
 the Gaussian 88(TM) system (copyright 1988, Gaussian, Inc.),
 the Gaussian 86(TM) system (copyright 1986, Carnegie Mellon
 University), and the Gaussian 82(TM) system (copyright 1983,
 Carnegie Mellon University). Gaussian is a federally registered
 trademark of Gaussian, Inc.
  
 This software contains proprietary and confidential information,
 including trade secrets, belonging to Gaussian, Inc.
  
 This software is provided under written license and may be
 used, copied, transmitted, or stored only in accord with that
 written license.
  
 The following legend is applicable only to US Government
 contracts under FAR:
  
                    RESTRICTED RIGHTS LEGEND
  
 Use, reproduction and disclosure by the US Government is
 subject to restrictions as set forth in subparagraphs (a)
 and (c) of the Commercial Computer Software - Restricted
 Rights clause in FAR 52.227-19.
  
 Gaussian, Inc.
 340 Quinnipiac St., Bldg. 40, Wallingford CT 06492
  
  
 ---------------------------------------------------------------
 Warning -- This program may not be used in any manner that
 competes with the business of Gaussian, Inc. or will provide
 assistance to any competitor of Gaussian, Inc.  The licensee
 of this program is prohibited from giving any competitor of
 Gaussian, Inc. access to this program.  By using this program,
 the user acknowledges that Gaussian, Inc. is engaged in the
 business of creating and licensing software in the field of
 computational chemistry and represents and warrants to the
 licensee that it is not a competitor of Gaussian, Inc. and that
 it will not use this program in any manner prohibited above.
 ---------------------------------------------------------------
  

 Cite this work as:
 Gaussian 16, Revision B.01,
 M. J. Frisch, G. W. Trucks, H. B. Schlegel, G. E. Scuseria, 
 M. A. Robb, J. R. Cheeseman, G. Scalmani, V. Barone, 
 G. A. Petersson, H. Nakatsuji, X. Li, M. Caricato, A. V. Marenich, 
 J. Bloino, B. G. Janesko, R. Gomperts, B. Mennucci, H. P. Hratchian, 
 J. V. Ortiz, A. F. Izmaylov, J. L. Sonnenberg, D. Williams-Young, 
 F. Ding, F. Lipparini, F. Egidi, J. Goings, B. Peng, A. Petrone, 
 T. Henderson, D. Ranasinghe, V. G. Zakrzewski, J. Gao, N. Rega, 
 G. Zheng, W. Liang, M. Hada, M. Ehara, K. Toyota, R. Fukuda, 
 J. Hasegawa, M. Ishida, T. Nakajima, Y. Honda, O. Kitao, H. Nakai, 
 T. Vreven, K. Throssell, J. A. Montgomery, Jr., J. E. Peralta, 
 F. Ogliaro, M. J. Bearpark, J. J. Heyd, E. N. Brothers, K. N. Kudin, 
 V. N. Staroverov, T. A. Keith, R. Kobayashi, J. Normand, 
 K. Raghavachari, A. P. Rendell, J. C. Burant, S. S. Iyengar, 
 J. Tomasi, M. Cossi, J. M. Millam, M. Klene, C. Adamo, R. Cammi, 
 J. W. Ochterski, R. L. Martin, K. Morokuma, O. Farkas, 
 J. B. Foresman, and D. J. Fox, Gaussian, Inc., Wallingford CT, 2016.
 
 ******************************************
 Gaussian 16:  ES64L-G16RevB.01 20-Dec-2017
                13-Oct-2024 
 ******************************************
 %NProcShared=26
 Will use up to   26 processors via shared memory.
 %MEM=20GB
 %chk=CHKfiles/0127.chk
 ---------------------------------------------------------------------
 #p b3lyp 6-31++g(d,p) scf=verytight NoSymm freq=noraman int=ultrafine
 ---------------------------------------------------------------------
 1/10=4,30=1,38=1/1,3;
 2/12=2,15=1,17=6,18=5,40=1/2;
 3/5=1,6=6,7=1111,11=2,25=1,30=1,71=2,74=-5,75=-5,140=1/1,2,3;
 4//1;
 5/5=2,17=3,38=5,98=1/2;
 8/6=4,10=90,11=11/1;
 11/6=1,8=1,9=11,15=111,16=1,31=1/1,2,10;
 10/6=1,31=1/2;
 6/7=2,8=2,9=2,10=2,28=1/1;
 7/8=1,10=1,25=1,30=1/1,2,3,16;
 1/10=4,30=1/3;
 99//99;
 Leave Link    1 at Sun Oct 13 09:51:39 2024, MaxMem=  2684354560 cpu:               1.2 elap:               0.1
 (Enter /usr/local/g16_AVX//g16/l101.exe)
 ------------------------
 RxCoord=2.59913 DE=47.35
 ------------------------
 Symbolic Z-matrix:
 Charge = -1 Multiplicity = 1
 C                    -0.32385  0.        -0.00005 
 Cl                   -2.16402  0.         0.00004 
 H                     0.00062   0.00235  -1.034 
 H                     0.0003    0.89428   0.51911 
 H                     0.00031  -0.89664   0.51503 
 C                     2.42449   0.00002  -0.00038 
 N                     3.60383  -0.00001   0.00027 
 
 ITRead=  0  0  0  0  0  0  0
 MicOpt= -1 -1 -1 -1 -1 -1 -1
 NAtoms=      7 NQM=        7 NQMF=       0 NMMI=      0 NMMIF=      0
                NMic=       0 NMicF=      0.
                    Isotopes and Nuclear Properties:
 (Nuclear quadrupole moments (NQMom) in fm**2, nuclear magnetic moments (NMagM)
  in nuclear magnetons)

  Atom         1           2           3           4           5           6           7
 IAtWgt=          12          35           1           1           1          12          14
 AtmWgt=  12.0000000  34.9688527   1.0078250   1.0078250   1.0078250  12.0000000  14.0030740
 NucSpn=           0           3           1           1           1           0           2
 AtZEff=  -0.0000000  -0.0000000  -0.0000000  -0.0000000  -0.0000000  -0.0000000  -0.0000000
 NQMom=    0.0000000  -8.1650000   0.0000000   0.0000000   0.0000000   0.0000000   2.0440000
 NMagM=    0.0000000   0.8218740   2.7928460   2.7928460   2.7928460   0.0000000   0.4037610
 AtZNuc=   6.0000000  17.0000000   1.0000000   1.0000000   1.0000000   6.0000000   7.0000000
 Leave Link  101 at Sun Oct 13 09:51:39 2024, MaxMem=  2684354560 cpu:               2.8 elap:               0.1
 (Enter /usr/local/g16_AVX//g16/l103.exe)

 GradGradGradGradGradGradGradGradGradGradGradGradGradGradGradGradGradGrad
 Berny optimization.
 Initialization pass.
 Trust Radius=3.00D-01 FncErr=1.00D-07 GrdErr=1.00D-07 EigMax=2.50D+02 EigMin=1.00D-04
 Number of steps in this run=      2 maximum allowed number of steps=      2.
 GradGradGradGradGradGradGradGradGradGradGradGradGradGradGradGradGradGrad

 Leave Link  103 at Sun Oct 13 09:51:39 2024, MaxMem=  2684354560 cpu:               0.5 elap:               0.1
 (Enter /usr/local/g16_AVX//g16/l202.exe)
                          Input orientation:                          
 ---------------------------------------------------------------------
 Center     Atomic      Atomic             Coordinates (Angstroms)
 Number     Number       Type             X           Y           Z
 ---------------------------------------------------------------------
      1          6           0       -0.323854   -0.000002   -0.000054
      2         17           0       -2.164024   -0.000002    0.000037
      3          1           0        0.000615    0.002352   -1.033998
      4          1           0        0.000296    0.894280    0.519111
      5          1           0        0.000305   -0.896644    0.515027
      6          6           0        2.424486    0.000020   -0.000381
      7          7           0        3.603826   -0.000009    0.000270
 ---------------------------------------------------------------------
                    Distance matrix (angstroms):
                    1          2          3          4          5
     1  C    0.000000
     2  Cl   1.840170   0.000000
     3  H    1.083663   2.398936   0.000000
     4  H    1.083672   2.398637   1.791001   0.000000
     5  H    1.083676   2.398646   1.790998   1.790929   0.000000
     6  C    2.748340   4.588510   2.635056   2.635578   2.635584
     7  N    3.927680   5.767850   3.748712   3.748917   3.748906
                    6          7
     6  C    0.000000
     7  N    1.179340   0.000000
 Symmetry turned off by external request.
 This structure is nearly, but not quite of a higher symmetry.
 Consider Symm=Loose if the higher symmetry is desired.
 Stoichiometry    C2H3ClN(1-)
 Framework group  C1[X(C2H3ClN)]
 Deg. of freedom    15
 Full point group                 C1      NOp   1
 Rotational constants (GHZ):         156.3336014           1.2060476           1.2060471
 Leave Link  202 at Sun Oct 13 09:51:39 2024, MaxMem=  2684354560 cpu:               0.2 elap:               0.0
 (Enter /usr/local/g16_AVX//g16/l301.exe)
 Standard basis: 6-31++G(d,p) (6D, 7F)
 Ernie: Thresh=  0.10000D-02 Tol=  0.10000D-05 Strict=F.
    98 basis functions,   176 primitive gaussians,    98 cartesian basis functions
    20 alpha electrons       20 beta electrons
       nuclear repulsion energy       110.9548213504 Hartrees.
 IExCor=  402 DFT=T Ex+Corr=B3LYP ExCW=0 ScaHFX=  0.200000
 ScaDFX=  0.800000  0.720000  1.000000  0.810000 ScalE2=  1.000000  1.000000
 IRadAn=      5 IRanWt=     -1 IRanGd=            0 ICorTp=0 IEmpDi=  4
 NAtoms=    7 NActive=    7 NUniq=    7 SFac= 1.00D+00 NAtFMM=   60 NAOKFM=F Big=F
 Integral buffers will be    131072 words long.
 Raffenetti 2 integral format.
 Two-electron integral symmetry is turned off.
 Leave Link  301 at Sun Oct 13 09:51:40 2024, MaxMem=  2684354560 cpu:               1.3 elap:               0.1
 (Enter /usr/local/g16_AVX//g16/l302.exe)
 NPDir=0 NMtPBC=     1 NCelOv=     1 NCel=       1 NClECP=     1 NCelD=      1
         NCelK=      1 NCelE2=     1 NClLst=     1 CellRange=     0.0.
 One-electron integrals computed using PRISM.
 NBasis=    98 RedAO= T EigKep=  1.23D-04  NBF=    98
 NBsUse=    98 1.00D-06 EigRej= -1.00D+00 NBFU=    98
 Precomputing XC quadrature grid using
 IXCGrd= 4 IRadAn=           5 IRanWt=          -1 IRanGd=           0 AccXCQ= 0.00D+00.
 Generated NRdTot=       0 NPtTot=           0 NUsed=           0 NTot=          32
 NSgBfM=    98    98    98    98    98 MxSgAt=     7 MxSgA2=     7.
 Leave Link  302 at Sun Oct 13 09:51:40 2024, MaxMem=  2684354560 cpu:               3.8 elap:               0.2
 (Enter /usr/local/g16_AVX//g16/l303.exe)
 DipDrv:  MaxL=1.
 Leave Link  303 at Sun Oct 13 09:51:40 2024, MaxMem=  2684354560 cpu:               0.7 elap:               0.1
 (Enter /usr/local/g16_AVX//g16/l401.exe)
 ExpMin= 3.60D-02 ExpMax= 2.52D+04 ExpMxC= 3.78D+03 IAcc=3 IRadAn=         5 AccDes= 0.00D+00
 Harris functional with IExCor=  402 and IRadAn=       5 diagonalized for initial guess.
 HarFok:  IExCor=  402 AccDes= 0.00D+00 IRadAn=         5 IDoV= 1 UseB2=F ITyADJ=14
 ICtDFT=  3500011 ScaDFX=  1.000000  1.000000  1.000000  1.000000
 FoFCou: FMM=F IPFlag=           0 FMFlag=      100000 FMFlg1=           0
         NFxFlg=           0 DoJE=T BraDBF=F KetDBF=T FulRan=T
         wScrn=  0.000000 ICntrl=       500 IOpCl=  0 I1Cent=   200000004 NGrid=           0
         NMat0=    1 NMatS0=      1 NMatT0=    0 NMatD0=    1 NMtDS0=    0 NMtDT0=    0
 Symmetry not used in FoFCou.
 Harris En= -593.076138199496    
 JPrj=0 DoOrth=F DoCkMO=F.
 Leave Link  401 at Sun Oct 13 09:51:40 2024, MaxMem=  2684354560 cpu:               5.8 elap:               0.3
 (Enter /usr/local/g16_AVX//g16/l502.exe)
 Keep R1 ints in memory in canonical form, NReq=35752935.
 FoFCou: FMM=F IPFlag=           0 FMFlag=           0 FMFlg1=           0
         NFxFlg=           0 DoJE=F BraDBF=F KetDBF=F FulRan=T
         wScrn=  0.000000 ICntrl=       600 IOpCl=  0 I1Cent=           0 NGrid=           0
         NMat0=    1 NMatS0=   4851 NMatT0=    0 NMatD0=    1 NMtDS0=    0 NMtDT0=    0
 Symmetry not used in FoFCou.
 Two-electron integral symmetry not used.
 Closed shell SCF:
 Using DIIS extrapolation, IDIIS=  1040.
 NGot=  2684354560 LenX=  2672563405 LenY=  2672553360
 Requested convergence on RMS density matrix=1.00D-08 within 128 cycles.
 Requested convergence on MAX density matrix=1.00D-06.
 Requested convergence on             energy=1.00D-06.
 No special actions if energy rises.

 Cycle   1  Pass 1  IDiag  1:
 E= -592.839094720294    
 DIIS: error= 3.47D-02 at cycle   1 NSaved=   1.
 NSaved= 1 IEnMin= 1 EnMin= -592.839094720294     IErMin= 1 ErrMin= 3.47D-02
 ErrMax= 3.47D-02  0.00D+00 EMaxC= 1.00D-01 BMatC= 1.33D-01 BMatP= 1.33D-01
 IDIUse=3 WtCom= 6.53D-01 WtEn= 3.47D-01
 Coeff-Com:  0.100D+01
 Coeff-En:   0.100D+01
 Coeff:      0.100D+01
 Gap=     0.626 Goal=   None    Shift=    0.000
 GapD=    0.626 DampG=2.000 DampE=0.500 DampFc=1.0000 IDamp=-1.
 RMSDP=9.42D-02 MaxDP=3.32D+00              OVMax= 3.86D-01

 Cycle   2  Pass 1  IDiag  1:
 E= -592.631345860583     Delta-E=        0.207748859710 Rises=F Damp=F
 DIIS: error= 4.78D-02 at cycle   2 NSaved=   2.
 NSaved= 2 IEnMin= 1 EnMin= -592.839094720294     IErMin= 1 ErrMin= 3.47D-02
 ErrMax= 4.78D-02  0.00D+00 EMaxC= 1.00D-01 BMatC= 3.02D-01 BMatP= 1.33D-01
 IDIUse=2 WtCom= 0.00D+00 WtEn= 1.00D+00
 Coeff-En:   0.687D+00 0.313D+00
 Coeff:      0.687D+00 0.313D+00
 Gap=     0.155 Goal=   None    Shift=    0.000
 RMSDP=9.25D-02 MaxDP=3.33D+00 DE= 2.08D-01 OVMax= 2.52D-01

 Cycle   3  Pass 1  IDiag  1:
 E= -592.981863024316     Delta-E=       -0.350517163732 Rises=F Damp=F
 DIIS: error= 8.09D-03 at cycle   3 NSaved=   3.
 NSaved= 3 IEnMin= 3 EnMin= -592.981863024316     IErMin= 3 ErrMin= 8.09D-03
 ErrMax= 8.09D-03  0.00D+00 EMaxC= 1.00D-01 BMatC= 1.04D-02 BMatP= 1.33D-01
 IDIUse=3 WtCom= 9.19D-01 WtEn= 8.09D-02
 Coeff-Com:  0.266D+00 0.997D-01 0.634D+00
 Coeff-En:   0.000D+00 0.000D+00 0.100D+01
 Coeff:      0.245D+00 0.916D-01 0.664D+00
 Gap=     0.186 Goal=   None    Shift=    0.000
 RMSDP=2.88D-03 MaxDP=5.06D-02 DE=-3.51D-01 OVMax= 5.09D-02

 Cycle   4  Pass 1  IDiag  1:
 E= -592.986521139093     Delta-E=       -0.004658114777 Rises=F Damp=F
 DIIS: error= 1.18D-02 at cycle   4 NSaved=   4.
 NSaved= 4 IEnMin= 4 EnMin= -592.986521139093     IErMin= 3 ErrMin= 8.09D-03
 ErrMax= 1.18D-02  0.00D+00 EMaxC= 1.00D-01 BMatC= 7.12D-03 BMatP= 1.04D-02
 IDIUse=3 WtCom= 8.82D-01 WtEn= 1.18D-01
 Coeff-Com:  0.524D-01-0.254D-01 0.498D+00 0.475D+00
 Coeff-En:   0.000D+00 0.000D+00 0.382D+00 0.618D+00
 Coeff:      0.462D-01-0.224D-01 0.485D+00 0.492D+00
 Gap=     0.178 Goal=   None    Shift=    0.000
 RMSDP=1.02D-03 MaxDP=1.58D-02 DE=-4.66D-03 OVMax= 2.99D-02

 Cycle   5  Pass 1  IDiag  1:
 E= -592.992892022379     Delta-E=       -0.006370883286 Rises=F Damp=F
 DIIS: error= 2.73D-03 at cycle   5 NSaved=   5.
 NSaved= 5 IEnMin= 5 EnMin= -592.992892022379     IErMin= 5 ErrMin= 2.73D-03
 ErrMax= 2.73D-03  0.00D+00 EMaxC= 1.00D-01 BMatC= 3.33D-04 BMatP= 7.12D-03
 IDIUse=3 WtCom= 9.73D-01 WtEn= 2.73D-02
 Coeff-Com:  0.173D-01-0.129D-01 0.232D+00 0.280D+00 0.484D+00
 Coeff-En:   0.000D+00 0.000D+00 0.000D+00 0.000D+00 0.100D+01
 Coeff:      0.168D-01-0.126D-01 0.225D+00 0.272D+00 0.498D+00
 Gap=     0.181 Goal=   None    Shift=    0.000
 RMSDP=3.19D-04 MaxDP=5.11D-03 DE=-6.37D-03 OVMax= 7.17D-03

 Cycle   6  Pass 1  IDiag  1:
 E= -592.993193379281     Delta-E=       -0.000301356903 Rises=F Damp=F
 DIIS: error= 8.75D-04 at cycle   6 NSaved=   6.
 NSaved= 6 IEnMin= 6 EnMin= -592.993193379281     IErMin= 6 ErrMin= 8.75D-04
 ErrMax= 8.75D-04  0.00D+00 EMaxC= 1.00D-01 BMatC= 3.22D-05 BMatP= 3.33D-04
 IDIUse=3 WtCom= 9.91D-01 WtEn= 8.75D-03
 Coeff-Com:  0.319D-02-0.617D-02 0.613D-01 0.751D-01 0.260D+00 0.606D+00
 Coeff-En:   0.000D+00 0.000D+00 0.000D+00 0.000D+00 0.713D-01 0.929D+00
 Coeff:      0.317D-02-0.612D-02 0.608D-01 0.744D-01 0.259D+00 0.609D+00
 Gap=     0.181 Goal=   None    Shift=    0.000
 RMSDP=7.89D-05 MaxDP=1.53D-03 DE=-3.01D-04 OVMax= 1.74D-03

 Cycle   7  Pass 1  IDiag  1:
 E= -592.993224123486     Delta-E=       -0.000030744204 Rises=F Damp=F
 DIIS: error= 7.01D-05 at cycle   7 NSaved=   7.
 NSaved= 7 IEnMin= 7 EnMin= -592.993224123486     IErMin= 7 ErrMin= 7.01D-05
 ErrMax= 7.01D-05  0.00D+00 EMaxC= 1.00D-01 BMatC= 4.40D-07 BMatP= 3.22D-05
 IDIUse=1 WtCom= 1.00D+00 WtEn= 0.00D+00
 Coeff-Com:  0.352D-03-0.843D-03 0.272D-02 0.225D-02 0.447D-01 0.186D+00
 Coeff-Com:  0.765D+00
 Coeff:      0.352D-03-0.843D-03 0.272D-02 0.225D-02 0.447D-01 0.186D+00
 Coeff:      0.765D+00
 Gap=     0.181 Goal=   None    Shift=    0.000
 RMSDP=1.42D-05 MaxDP=2.62D-04 DE=-3.07D-05 OVMax= 2.80D-04

 Cycle   8  Pass 1  IDiag  1:
 E= -592.993224630135     Delta-E=       -0.000000506650 Rises=F Damp=F
 DIIS: error= 1.19D-05 at cycle   8 NSaved=   8.
 NSaved= 8 IEnMin= 8 EnMin= -592.993224630135     IErMin= 8 ErrMin= 1.19D-05
 ErrMax= 1.19D-05  0.00D+00 EMaxC= 1.00D-01 BMatC= 1.93D-08 BMatP= 4.40D-07
 IDIUse=1 WtCom= 1.00D+00 WtEn= 0.00D+00
 Coeff-Com:  0.982D-04-0.137D-03 0.871D-04 0.278D-03 0.111D-01 0.490D-01
 Coeff-Com:  0.251D+00 0.689D+00
 Coeff:      0.982D-04-0.137D-03 0.871D-04 0.278D-03 0.111D-01 0.490D-01
 Coeff:      0.251D+00 0.689D+00
 Gap=     0.181 Goal=   None    Shift=    0.000
 RMSDP=2.60D-06 MaxDP=7.57D-05 DE=-5.07D-07 OVMax= 4.97D-05

 Cycle   9  Pass 1  IDiag  1:
 E= -592.993224650024     Delta-E=       -0.000000019888 Rises=F Damp=F
 DIIS: error= 3.32D-06 at cycle   9 NSaved=   9.
 NSaved= 9 IEnMin= 9 EnMin= -592.993224650024     IErMin= 9 ErrMin= 3.32D-06
 ErrMax= 3.32D-06  0.00D+00 EMaxC= 1.00D-01 BMatC= 1.92D-09 BMatP= 1.93D-08
 IDIUse=1 WtCom= 1.00D+00 WtEn= 0.00D+00
 Coeff-Com: -0.129D-04 0.162D-04-0.148D-03 0.158D-03 0.137D-02 0.473D-02
 Coeff-Com:  0.347D-01 0.257D+00 0.702D+00
 Coeff:     -0.129D-04 0.162D-04-0.148D-03 0.158D-03 0.137D-02 0.473D-02
 Coeff:      0.347D-01 0.257D+00 0.702D+00
 Gap=     0.181 Goal=   None    Shift=    0.000
 RMSDP=8.34D-07 MaxDP=2.03D-05 DE=-1.99D-08 OVMax= 1.24D-05

 Cycle  10  Pass 1  IDiag  1:
 E= -592.993224652139     Delta-E=       -0.000000002115 Rises=F Damp=F
 DIIS: error= 3.79D-07 at cycle  10 NSaved=  10.
 NSaved=10 IEnMin=10 EnMin= -592.993224652139     IErMin=10 ErrMin= 3.79D-07
 ErrMax= 3.79D-07  0.00D+00 EMaxC= 1.00D-01 BMatC= 2.22D-11 BMatP= 1.92D-09
 IDIUse=1 WtCom= 1.00D+00 WtEn= 0.00D+00
 Coeff-Com: -0.868D-05 0.689D-05-0.186D-04 0.324D-04-0.404D-04-0.643D-03
 Coeff-Com: -0.182D-02 0.190D-01 0.131D+00 0.852D+00
 Coeff:     -0.868D-05 0.689D-05-0.186D-04 0.324D-04-0.404D-04-0.643D-03
 Coeff:     -0.182D-02 0.190D-01 0.131D+00 0.852D+00
 Gap=     0.181 Goal=   None    Shift=    0.000
 RMSDP=1.62D-07 MaxDP=3.50D-06 DE=-2.12D-09 OVMax= 2.18D-06

 Cycle  11  Pass 1  IDiag  1:
 E= -592.993224652167     Delta-E=       -0.000000000029 Rises=F Damp=F
 DIIS: error= 5.85D-08 at cycle  11 NSaved=  11.
 NSaved=11 IEnMin=11 EnMin= -592.993224652167     IErMin=11 ErrMin= 5.85D-08
 ErrMax= 5.85D-08  0.00D+00 EMaxC= 1.00D-01 BMatC= 3.62D-13 BMatP= 2.22D-11
 IDIUse=1 WtCom= 1.00D+00 WtEn= 0.00D+00
 Coeff-Com: -0.119D-05 0.647D-06-0.865D-05-0.118D-04-0.535D-04-0.156D-03
 Coeff-Com: -0.197D-03-0.232D-02 0.397D-02 0.895D-01 0.909D+00
 Coeff:     -0.119D-05 0.647D-06-0.865D-05-0.118D-04-0.535D-04-0.156D-03
 Coeff:     -0.197D-03-0.232D-02 0.397D-02 0.895D-01 0.909D+00
 Gap=     0.181 Goal=   None    Shift=    0.000
 RMSDP=4.02D-08 MaxDP=7.83D-07 DE=-2.85D-11 OVMax= 4.20D-07

 Cycle  12  Pass 1  IDiag  1:
 E= -592.993224652167     Delta-E=        0.000000000000 Rises=F Damp=F
 DIIS: error= 6.53D-09 at cycle  12 NSaved=  12.
 NSaved=12 IEnMin=11 EnMin= -592.993224652167     IErMin=12 ErrMin= 6.53D-09
 ErrMax= 6.53D-09  0.00D+00 EMaxC= 1.00D-01 BMatC= 4.56D-15 BMatP= 3.62D-13
 IDIUse=1 WtCom= 1.00D+00 WtEn= 0.00D+00
 Coeff-Com: -0.505D-07 0.963D-08-0.968D-06-0.238D-05-0.926D-05-0.210D-04
 Coeff-Com: -0.355D-04-0.785D-03-0.220D-02 0.651D-03 0.117D+00 0.886D+00
 Coeff:     -0.505D-07 0.963D-08-0.968D-06-0.238D-05-0.926D-05-0.210D-04
 Coeff:     -0.355D-04-0.785D-03-0.220D-02 0.651D-03 0.117D+00 0.886D+00
 Gap=     0.181 Goal=   None    Shift=    0.000
 RMSDP=2.15D-09 MaxDP=4.36D-08 DE= 2.27D-13 OVMax= 4.47D-08

 SCF Done:  E(RB3LYP) =  -592.993224652     A.U. after   12 cycles
            NFock= 12  Conv=0.21D-08     -V/T= 2.0045
 KE= 5.903392756762D+02 PE=-1.631684806776D+03 EE= 3.373974850972D+02
 Leave Link  502 at Sun Oct 13 09:51:42 2024, MaxMem=  2684354560 cpu:              34.9 elap:               1.6
 (Enter /usr/local/g16_AVX//g16/l801.exe)
 DoSCS=F DFT=T ScalE2(SS,OS)=  1.000000  1.000000
 Range of M.O.s used for correlation:     1    98
 NBasis=    98 NAE=    20 NBE=    20 NFC=     0 NFV=     0
 NROrb=     98 NOA=    20 NOB=    20 NVA=    78 NVB=    78

 **** Warning!!: The largest alpha MO coefficient is  0.35665244D+02

 Leave Link  801 at Sun Oct 13 09:51:42 2024, MaxMem=  2684354560 cpu:               0.7 elap:               0.1
 (Enter /usr/local/g16_AVX//g16/l1101.exe)
 Using compressed storage, NAtomX=     7.
 Will process      8 centers per pass.
 Leave Link 1101 at Sun Oct 13 09:51:42 2024, MaxMem=  2684354560 cpu:               3.5 elap:               0.2
 (Enter /usr/local/g16_AVX//g16/l1102.exe)
 Symmetrizing basis deriv contribution to polar:
 IMax=3 JMax=2 DiffMx= 0.00D+00
 Leave Link 1102 at Sun Oct 13 09:51:42 2024, MaxMem=  2684354560 cpu:               0.9 elap:               0.1
 (Enter /usr/local/g16_AVX//g16/l1110.exe)
 Forming Gx(P) for the SCF density, NAtomX=     7.
 Integral derivatives from FoFJK, PRISM(SPDF).
 Do as many integral derivatives as possible in FoFJK.
 G2DrvN: MDV=    2684353864.
 G2DrvN: will do     8 centers at a time, making    1 passes.
 Calling FoFCou, ICntrl=  3107 FMM=F I1Cent=   0 AccDes= 0.00D+00.
 FoFJK:  IHMeth= 1 ICntrl=    3107 DoSepK=F KAlg= 0 I1Cent=           0 FoldK=F
 IRaf=         0 NMat=       1 IRICut=       1 DoRegI=T DoRafI=F ISym2E= 0 IDoP0=0 IntGTp=1.
 FoFCou: FMM=F IPFlag=           0 FMFlag=      100000 FMFlg1=           0
         NFxFlg=           0 DoJE=F BraDBF=F KetDBF=F FulRan=T
         wScrn=  0.000000 ICntrl=      3107 IOpCl=  0 I1Cent=           0 NGrid=           0
         NMat0=    1 NMatS0=      1 NMatT0=    0 NMatD0=    1 NMtDS0=    0 NMtDT0=    0
 Symmetry not used in FoFCou.
 End of G2Drv F.D. properties file   721 does not exist.
 End of G2Drv F.D. properties file   722 does not exist.
 End of G2Drv F.D. properties file   788 does not exist.
 Leave Link 1110 at Sun Oct 13 09:51:44 2024, MaxMem=  2684354560 cpu:              37.8 elap:               1.5
 (Enter /usr/local/g16_AVX//g16/l1002.exe)
 Minotr:  Closed shell wavefunction.
          IDoAtm=1111111
          Direct CPHF calculation.
          Differentiating once with respect to electric field.
                with respect to dipole field.
          Differentiating once with respect to nuclear coordinates.
          Requested convergence is 1.0D-08 RMS, and 1.0D-07 maximum.
          Secondary convergence is 1.0D-12 RMS, and 1.0D-12 maximum.
          NewPWx=T KeepS1=F KeepF1=F KeepIn=T MapXYZ=F SortEE=F KeepMc=T.
         2136 words used for storage of precomputed grid.
 Keep R1 ints in memory in canonical form, NReq=35668397.
 FoFCou: FMM=F IPFlag=           0 FMFlag=           0 FMFlg1=           0
         NFxFlg=           0 DoJE=F BraDBF=F KetDBF=F FulRan=T
         wScrn=  0.000000 ICntrl=       600 IOpCl=  0 I1Cent=           0 NGrid=           0
         NMat0=    1 NMatS0=   4851 NMatT0=    0 NMatD0=    1 NMtDS0=    0 NMtDT0=    0
 Symmetry not used in FoFCou.
 Two-electron integral symmetry not used.
          MDV=    2684354560 using IRadAn=       1.
          Solving linear equations simultaneously, MaxMat=       0.
          There are    24 degrees of freedom in the 1st order CPHF.  IDoFFX=6 NUNeed=     3.
     21 vectors produced by pass  0 Test12= 6.50D-15 4.17D-09 XBig12= 8.46D+01 4.46D+00.
 AX will form    21 AO Fock derivatives at one time.
     21 vectors produced by pass  1 Test12= 6.50D-15 4.17D-09 XBig12= 4.46D+01 1.99D+00.
     21 vectors produced by pass  2 Test12= 6.50D-15 4.17D-09 XBig12= 1.27D+00 2.81D-01.
     21 vectors produced by pass  3 Test12= 6.50D-15 4.17D-09 XBig12= 2.57D-02 4.34D-02.
     21 vectors produced by pass  4 Test12= 6.50D-15 4.17D-09 XBig12= 8.06D-05 2.15D-03.
     16 vectors produced by pass  5 Test12= 6.50D-15 4.17D-09 XBig12= 1.95D-07 9.43D-05.
      6 vectors produced by pass  6 Test12= 6.50D-15 4.17D-09 XBig12= 2.37D-10 2.74D-06.
      1 vectors produced by pass  7 Test12= 6.50D-15 4.17D-09 XBig12= 2.63D-13 1.16D-07.
      1 vectors produced by pass  8 Test12= 6.50D-15 4.17D-09 XBig12= 3.86D-16 4.27D-09.
 InvSVY:  IOpt=1 It=  1 EMax= 2.30D-15
 Solved reduced A of dimension   129 with    24 vectors.
 FullF1:  Do perturbations      1 to       3.
 Isotropic polarizability for W=    0.000000       56.72 Bohr**3.
 End of Minotr F.D. properties file   721 does not exist.
 End of Minotr F.D. properties file   722 does not exist.
 End of Minotr F.D. properties file   788 does not exist.
 Leave Link 1002 at Sun Oct 13 09:51:46 2024, MaxMem=  2684354560 cpu:              52.1 elap:               2.1
 (Enter /usr/local/g16_AVX//g16/l601.exe)
 Copying SCF densities to generalized density rwf, IOpCl= 0 IROHF=0.

 **********************************************************************

            Population analysis using the SCF Density.

 **********************************************************************

 Alpha  occ. eigenvalues -- -101.40438 -14.09618 -10.09653  -9.96063  -9.32067
 Alpha  occ. eigenvalues --   -7.08353  -7.07539  -7.07539  -0.70937  -0.64979
 Alpha  occ. eigenvalues --   -0.53584  -0.30346  -0.30346  -0.27193  -0.18352
 Alpha  occ. eigenvalues --   -0.17099  -0.17098  -0.09876  -0.09876  -0.07008
 Alpha virt. eigenvalues --    0.11074   0.13058   0.14634   0.14634   0.17274
 Alpha virt. eigenvalues --    0.20494   0.20494   0.20589   0.22165   0.22168
 Alpha virt. eigenvalues --    0.24387   0.25078   0.25079   0.27184   0.27448
 Alpha virt. eigenvalues --    0.27450   0.31508   0.33859   0.33862   0.36348
 Alpha virt. eigenvalues --    0.38590   0.38648   0.38650   0.46708   0.48262
 Alpha virt. eigenvalues --    0.66350   0.73904   0.74807   0.74807   0.77751
 Alpha virt. eigenvalues --    0.77752   0.88558   0.89666   0.89667   0.98454
 Alpha virt. eigenvalues --    0.99908   0.99910   1.04946   1.04949   1.08603
 Alpha virt. eigenvalues --    1.09908   1.09913   1.12506   1.19086   1.19087
 Alpha virt. eigenvalues --    1.26552   1.27126   1.36640   1.48246   1.60718
 Alpha virt. eigenvalues --    1.60723   1.78011   1.78011   1.78460   1.80325
 Alpha virt. eigenvalues --    1.80325   2.15964   2.20063   2.20063   2.22175
 Alpha virt. eigenvalues --    2.22180   2.28842   2.49878   2.49887   2.66550
 Alpha virt. eigenvalues --    2.83376   2.83377   2.84615   2.96150   2.96155
 Alpha virt. eigenvalues --    3.26329   3.39357   3.56179   3.56180   4.21567
 Alpha virt. eigenvalues --    4.42330   4.46190   4.57348
          Condensed to atoms (all electrons):
               1          2          3          4          5          6
     1  C    5.470776  -0.107123   0.420785   0.420737   0.420736  -0.201167
     2  Cl  -0.107123  17.386334  -0.051105  -0.051142  -0.051143   0.077126
     3  H    0.420785  -0.051105   0.508120  -0.023463  -0.023464  -0.043679
     4  H    0.420737  -0.051142  -0.023463   0.508226  -0.023476  -0.043589
     5  H    0.420736  -0.051143  -0.023464  -0.023476   0.508226  -0.043584
     6  C   -0.201167   0.077126  -0.043679  -0.043589  -0.043584   6.092564
     7  N   -0.001847  -0.002942   0.000159   0.000153   0.000153   0.664687
               7
     1  C   -0.001847
     2  Cl  -0.002942
     3  H    0.000159
     4  H    0.000153
     5  H    0.000153
     6  C    0.664687
     7  N    6.852127
 Mulliken charges:
               1
     1  C   -0.422897
     2  Cl  -0.200006
     3  H    0.212647
     4  H    0.212554
     5  H    0.212552
     6  C   -0.502359
     7  N   -0.512491
 Sum of Mulliken charges =  -1.00000
 Mulliken charges with hydrogens summed into heavy atoms:
               1
     1  C    0.214856
     2  Cl  -0.200006
     6  C   -0.502359
     7  N   -0.512491
 APT charges:
               1
     1  C    0.661997
     2  Cl  -0.683909
     3  H    0.014120
     4  H    0.014013
     5  H    0.014012
     6  C   -0.395291
     7  N   -0.624942
 Sum of APT charges =  -1.00000
 APT charges with hydrogens summed into heavy atoms:
               1
     1  C    0.704142
     2  Cl  -0.683909
     6  C   -0.395291
     7  N   -0.624942
 Electronic spatial extent (au):  <R**2>=            867.5197
 Charge=             -1.0000 electrons
 Dipole moment (field-independent basis, Debye):
    X=             -9.6212    Y=             -0.0000    Z=              0.0003  Tot=              9.6212
 Quadrupole moment (field-independent basis, Debye-Ang):
   XX=            -89.1062   YY=            -35.4221   ZZ=            -35.4216
   XY=             -0.0000   XZ=             -0.0016   YZ=              0.0000
 Traceless Quadrupole moment (field-independent basis, Debye-Ang):
   XX=            -35.7896   YY=             17.8946   ZZ=             17.8950
   XY=             -0.0000   XZ=             -0.0016   YZ=              0.0000
 Octapole moment (field-independent basis, Debye-Ang**2):
  XXX=           -180.1911  YYY=             -0.0062  ZZZ=             -0.8777  XYY=            -11.5869
  XXY=              0.0003  XXZ=             -0.0087  XZZ=            -11.5864  YZZ=              0.0060
  YYZ=              0.8812  XYZ=             -0.0000
 Hexadecapole moment (field-independent basis, Debye-Ang**3):
 XXXX=          -1868.3055 YYYY=            -56.0117 ZZZZ=            -56.0110 XXXY=              0.0010
 XXXZ=             -0.0470 YYYX=             -0.0012 YYYZ=              0.0000 ZZZX=             -0.0746
 ZZZY=              0.0000 XXYY=           -223.8479 XXZZ=           -223.8474 YYZZ=            -18.6703
 XXYZ=             -0.0000 YYXZ=              0.0801 ZZXY=              0.0003
 N-N= 1.109548213504D+02 E-N=-1.631684806655D+03  KE= 5.903392756762D+02
  Exact polarizability:  90.875  -0.000  39.637   0.005  -0.000  39.637
 Approx polarizability: 112.106  -0.001  49.599   0.011  -0.000  49.599
 No NMR shielding tensors so no spin-rotation constants.
 Leave Link  601 at Sun Oct 13 09:51:46 2024, MaxMem=  2684354560 cpu:               2.7 elap:               0.1
 (Enter /usr/local/g16_AVX//g16/l701.exe)
 ... and contract with generalized density number  0.
 Compute integral second derivatives.
 Leave Link  701 at Sun Oct 13 09:51:46 2024, MaxMem=  2684354560 cpu:               4.6 elap:               0.2
 (Enter /usr/local/g16_AVX//g16/l702.exe)
 L702 exits ... SP integral derivatives will be done elsewhere.
 Leave Link  702 at Sun Oct 13 09:51:46 2024, MaxMem=  2684354560 cpu:               0.6 elap:               0.1
 (Enter /usr/local/g16_AVX//g16/l703.exe)
 Integral derivatives from FoFJK, PRISM(SPDF).
 Compute integral second derivatives, UseDBF=F ICtDFT=           0.
 Calling FoFJK, ICntrl=    100127 FMM=F ISym2X=0 I1Cent= 0 IOpClX= 0 NMat=1 NMatS=1 NMatT=0.
 FoFJK:  IHMeth= 1 ICntrl=  100127 DoSepK=F KAlg= 0 I1Cent=           0 FoldK=F
 IRaf=         0 NMat=       1 IRICut=       1 DoRegI=T DoRafI=F ISym2E= 0 IDoP0=0 IntGTp=1.
 FoFCou: FMM=F IPFlag=           0 FMFlag=      100000 FMFlg1=         800
         NFxFlg=           0 DoJE=F BraDBF=F KetDBF=F FulRan=T
         wScrn=  0.000000 ICntrl=    100127 IOpCl=  0 I1Cent=           0 NGrid=           0
         NMat0=    1 NMatS0=      1 NMatT0=    0 NMatD0=    1 NMtDS0=    0 NMtDT0=    0
 Symmetry not used in FoFCou.
 Leave Link  703 at Sun Oct 13 09:51:49 2024, MaxMem=  2684354560 cpu:              65.3 elap:               2.6
 (Enter /usr/local/g16_AVX//g16/l716.exe)
 Dipole        =-3.78528045D+00-1.02526415D-05 1.01616911D-04
 Polarizability= 9.08750314D+01-2.55515812D-04 3.96365363D+01
                 5.10162222D-03-1.38546835D-05 3.96368144D+01
 Full mass-weighted force constant matrix:
 Low frequencies ---  -94.9344  -94.9284  -42.4931  -42.4895   -0.0045    0.0017
 Low frequencies ---    0.0036  104.5722  122.9883
 ******    2 imaginary frequencies (negative Signs) ****** 
 Diagonal vibrational polarizability:
       81.4225146      20.9283101      20.9294208
 Harmonic frequencies (cm**-1), IR intensities (KM/Mole), Raman scattering
 activities (A**4/AMU), depolarization ratios for plane and unpolarized
 incident light, reduced masses (AMU), force constants (mDyne/A),
 and normal coordinates:
                      1                      2                      3
                      A                      A                      A
 Frequencies --    -94.8109               -94.8051               122.7140
 Red. masses --      9.6289                 9.6280                 3.7261
 Frc consts  --      0.0510                 0.0510                 0.0331
 IR Inten    --      0.0148                 0.0148                11.6326
  Atom  AN      X      Y      Z        X      Y      Z        X      Y      Z
     1   6    -0.00   0.01   0.22     0.00   0.22  -0.01    -0.00  -0.00   0.40
     2  17    -0.00  -0.00  -0.11     0.00  -0.11   0.00    -0.00   0.00  -0.10
     3   1     0.18   0.01   0.28    -0.01   0.28  -0.01     0.26  -0.00   0.49
     4   1    -0.10   0.01   0.28    -0.15   0.28  -0.01    -0.13   0.01   0.47
     5   1    -0.09   0.01   0.28     0.16   0.28  -0.00    -0.13  -0.01   0.47
     6   6    -0.00   0.02   0.62     0.00   0.62  -0.02     0.00   0.00  -0.24
     7   7     0.00  -0.02  -0.51    -0.00  -0.51   0.02     0.00  -0.00   0.01
                      4                      5                      6
                      A                      A                      A
 Frequencies --    122.7152               172.6480               584.5598
 Red. masses --      3.7265                12.1588                 9.8967
 Frc consts  --      0.0331                 0.2135                 1.9925
 IR Inten    --     11.6319                63.5735               298.7807
  Atom  AN      X      Y      Z        X      Y      Z        X      Y      Z
     1   6     0.00   0.40   0.00    -0.32   0.00  -0.00     0.74  -0.00   0.00
     2  17    -0.00  -0.10  -0.00    -0.28  -0.00   0.00    -0.29   0.00  -0.00
     3   1     0.00   0.46   0.00    -0.26  -0.00   0.01     0.33   0.00  -0.11
     4   1    -0.22   0.48   0.01    -0.26  -0.01  -0.01     0.33   0.09   0.06
     5   1     0.22   0.48  -0.01    -0.26   0.01  -0.01     0.33  -0.10   0.05
     6   6    -0.00  -0.24  -0.00     0.55   0.00   0.00     0.02   0.00  -0.00
     7   7     0.00   0.01   0.00     0.56  -0.00   0.00     0.01  -0.00   0.00
                      7                      8                      9
                      A                      A                      A
 Frequencies --   1016.5648              1016.6552              1298.6023
 Red. masses --      1.1376                 1.1376                 1.0857
 Frc consts  --      0.6927                 0.6928                 1.0787
 IR Inten    --      0.1804                 0.1811                23.3475
  Atom  AN      X      Y      Z        X      Y      Z        X      Y      Z
     1   6    -0.00  -0.00  -0.10    -0.00  -0.10   0.00    -0.08  -0.00   0.00
     2  17     0.00   0.00   0.02     0.00   0.02  -0.00    -0.02   0.00  -0.00
     3   1     0.77   0.00   0.13    -0.01   0.23  -0.00     0.55  -0.00   0.17
     4   1    -0.39  -0.04   0.20    -0.66   0.16  -0.04     0.55  -0.15  -0.09
     5   1    -0.38   0.04   0.20     0.67   0.16   0.04     0.55   0.15  -0.09
     6   6    -0.00  -0.00  -0.00     0.00  -0.00   0.00    -0.00  -0.00   0.00
     7   7    -0.00  -0.00  -0.00     0.00  -0.00   0.00    -0.01   0.00  -0.00
                     10                     11                     12
                      A                      A                      A
 Frequencies --   1455.1637              1455.2154              2159.2344
 Red. masses --      1.0630                 1.0630                12.8195
 Frc consts  --      1.3262                 1.3263                35.2145
 IR Inten    --      7.2355                 7.2288                15.6101
  Atom  AN      X      Y      Z        X      Y      Z        X      Y      Z
     1   6     0.00  -0.07   0.00    -0.00  -0.00  -0.07    -0.00  -0.00   0.00
     2  17     0.00  -0.00   0.00    -0.00  -0.00  -0.00     0.00  -0.00  -0.00
     3   1     0.01   0.76   0.01    -0.27   0.04  -0.13    -0.02   0.00  -0.01
     4   1     0.23   0.11  -0.41     0.15  -0.38   0.51    -0.02   0.01   0.00
     5   1    -0.24   0.07   0.36     0.12   0.39   0.55    -0.02  -0.01   0.00
     6   6    -0.00  -0.00   0.00    -0.00  -0.00  -0.00     0.76  -0.00   0.00
     7   7    -0.00   0.00  -0.00     0.00   0.00   0.00    -0.65   0.00  -0.00
                     13                     14                     15
                      A                      A                      A
 Frequencies --   3137.5078              3267.9919              3268.1795
 Red. masses --      1.0239                 1.1123                 1.1123
 Frc consts  --      5.9385                 6.9992                 7.0001
 IR Inten    --     11.9225                 0.1422                 0.1399
  Atom  AN      X      Y      Z        X      Y      Z        X      Y      Z
     1   6     0.04  -0.00   0.00    -0.00  -0.10   0.01     0.00  -0.01  -0.10
     2  17    -0.00   0.00  -0.00     0.00   0.00  -0.00    -0.00   0.00   0.00
     3   1    -0.15  -0.00   0.56     0.02  -0.02  -0.05    -0.23  -0.00   0.78
     4   1    -0.15  -0.48  -0.28     0.19   0.55   0.33     0.13   0.38   0.20
     5   1    -0.15   0.48  -0.28    -0.21   0.60  -0.36     0.10  -0.31   0.15
     6   6     0.00   0.00  -0.00    -0.00   0.00  -0.00     0.00   0.00   0.00
     7   7     0.00  -0.00   0.00    -0.00  -0.00   0.00    -0.00  -0.00  -0.00

 -------------------
 - Thermochemistry -
 -------------------
 Temperature   298.150 Kelvin.  Pressure   1.00000 Atm.
 Atom     1 has atomic number  6 and mass  12.00000
 Atom     2 has atomic number 17 and mass  34.96885
 Atom     3 has atomic number  1 and mass   1.00783
 Atom     4 has atomic number  1 and mass   1.00783
 Atom     5 has atomic number  1 and mass   1.00783
 Atom     6 has atomic number  6 and mass  12.00000
 Atom     7 has atomic number  7 and mass  14.00307
 Molecular mass:    75.99540 amu.
 Principal axes and moments of inertia in atomic units:
                           1         2         3
     Eigenvalues --    11.544171496.409541496.41016
           X            1.00000   0.00000  -0.00000
           Y            0.00000   0.01536   0.99988
           Z           -0.00000   0.99988  -0.01536
 This molecule is an asymmetric top.
 Rotational symmetry number  1.
 Rotational temperatures (Kelvin)      7.50283     0.05788     0.05788
 Rotational constants (GHZ):         156.33360     1.20605     1.20605
    2 imaginary frequencies ignored.
 Zero-point vibrational energy     114110.3 (Joules/Mol)
                                   27.27302 (Kcal/Mol)
 Warning -- explicit consideration of   4 degrees of freedom as
           vibrations may cause significant error
 Vibrational temperatures:    176.56   176.56   248.40   841.05  1462.61
          (Kelvin)           1462.74  1868.40  2093.66  2093.73  3106.66
                             4514.17  4701.91  4702.18
 
 Zero-point correction=                           0.043462 (Hartree/Particle)
 Thermal correction to Energy=                    0.048545
 Thermal correction to Enthalpy=                  0.049489
 Thermal correction to Gibbs Free Energy=         0.014856
 Sum of electronic and zero-point Energies=           -592.949762
 Sum of electronic and thermal Energies=              -592.944680
 Sum of electronic and thermal Enthalpies=            -592.943735
 Sum of electronic and thermal Free Energies=         -592.978368
 
                     E (Thermal)             CV                S
                      KCal/Mol        Cal/Mol-Kelvin    Cal/Mol-Kelvin
 Total                   30.462             13.812             72.891
 Electronic               0.000              0.000              0.000
 Translational            0.889              2.981             38.900
 Rotational               0.889              2.981             24.762
 Vibrational             28.685              7.850              9.229
 Vibration     1          0.610              1.930              3.057
 Vibration     2          0.610              1.930              3.057
 Vibration     3          0.626              1.876              2.406
 Vibration     4          0.942              1.065              0.477
                       Q            Log10(Q)             Ln(Q)
 Total Bot       0.146726D-06         -6.833493        -15.734698
 Total V=0       0.143803D+14         13.157768         30.296881
 Vib (Bot)       0.979028D-19        -19.009205        -43.770312
 Vib (Bot)    1  0.166426D+01          0.221220          0.509378
 Vib (Bot)    2  0.166424D+01          0.221215          0.509367
 Vib (Bot)    3  0.116625D+01          0.066791          0.153792
 Vib (Bot)    4  0.259487D+00         -0.585885         -1.349050
 Vib (V=0)       0.959524D+01          0.982056          2.261267
 Vib (V=0)    1  0.223774D+01          0.349810          0.805467
 Vib (V=0)    2  0.223773D+01          0.349807          0.805460
 Vib (V=0)    3  0.176891D+01          0.247706          0.570364
 Vib (V=0)    4  0.106332D+01          0.026665          0.061399
 Electronic      0.100000D+01          0.000000          0.000000
 Translational   0.260396D+08          7.415635         17.075130
 Rotational      0.575543D+05          4.760077         10.960483
 
                                                       RxCoord=2.59913 DE=47.35
                                                             IR Spectrum
 
      3    3                                     2                          1     1          1                                       
      2    1                                     1                          4     2          0                5               1 1    
      6    3                                     5                          5     9          1                8               7 2    
      8    8                                     9                          5     9          7                5               3 3    
 
      X    X                                     X                          X     X          X                X               X X    
                                                                                  X                           X               X X    
                                                                                                              X               X      
                                                                                                              X               X      
                                                                                                              X                      
                                                                                                              X                      
                                                                                                              X                      
                                                                                                              X                      
                                                                                                              X                      
                                                                                                              X                      
                                                                                                              X                      
                                                                                                              X                      
                                                                                                              X                      
                                                                                                              X                      
                                                                                                              X                      
                                                                                                              X                      
                                                                                                              X                      
                                                                                                              X                      
                                                                                                              X                      
                                                                                                              X                      
 
 -------------------------------------------------------------------
 Center     Atomic                   Forces (Hartrees/Bohr)
 Number     Number              X              Y              Z
 -------------------------------------------------------------------
      1        6           0.003235833   -0.000002194    0.000038642
      2       17          -0.013831280   -0.000000342   -0.000014273
      3        1           0.000886590   -0.000001348    0.000810987
      4        1           0.000911206   -0.000704595   -0.000419406
      5        1           0.000909778    0.000708517   -0.000416792
      6        6           0.002753323    0.000000057   -0.000001493
      7        7           0.005134550   -0.000000095    0.000002335
 -------------------------------------------------------------------
 Cartesian Forces:  Max     0.013831280 RMS     0.003381820
 Z-matrix is all fixed cartesians, so copy forces.
 Force constants in Cartesian coordinates: 
                1             2             3             4             5 
      1  0.230793D+00
      2  0.000000D+00  0.606990D+00
      3 -0.698136D-04  0.495543D-05  0.607099D+00
      4 -0.809310D-01  0.000000D+00 -0.470253D-05  0.170760D+00
      5  0.000000D+00 -0.334316D-01  0.000000D+00  0.000000D+00  0.176162D-01
      6 -0.224752D-05  0.000000D+00 -0.334391D-01  0.104819D-04  0.000000D+00
      7 -0.520825D-01 -0.192443D-03  0.844731D-01 -0.247896D-01 -0.436308D-04
      8 -0.188796D-03 -0.493846D-01  0.640200D-03  0.141984D-04  0.629622D-03
      9  0.828772D-01  0.640100D-03 -0.330388D+00 -0.625077D-02 -0.177067D-04
     10 -0.520297D-01 -0.729715D-01 -0.423633D-01 -0.248106D-01 -0.165597D-01
     11 -0.716006D-01 -0.259561D+00 -0.122010D+00  0.540072D-02  0.645328D-02
     12 -0.415632D-01 -0.122014D+00 -0.120215D+00  0.313294D-02  0.337636D-02
     13 -0.520316D-01  0.731633D-01 -0.420295D-01 -0.248099D-01  0.166032D-01
     14  0.717886D-01 -0.260664D+00  0.121365D+00 -0.541490D-02  0.648404D-02
     15 -0.412356D-01  0.121369D+00 -0.119104D+00  0.310822D-02 -0.335861D-02
     16 -0.128202D-02  0.000000D+00 -0.316579D-05 -0.793325D-02  0.000000D+00
     17  0.000000D+00 -0.516038D-02  0.000000D+00  0.000000D+00  0.271666D-02
     18 -0.135893D-04  0.000000D+00 -0.516603D-02  0.105743D-04  0.000000D+00
     19  0.756345D-02  0.000000D+00 -0.261957D-05 -0.748604D-02  0.000000D+00
     20  0.000000D+00  0.121174D-02  0.000000D+00  0.000000D+00 -0.468252D-03
     21  0.714440D-05  0.000000D+00  0.121324D-02 -0.675023D-05  0.000000D+00
                6             7             8             9            10 
      6  0.176130D-01
      7  0.191357D-01  0.730887D-01
      8 -0.176269D-04  0.196634D-03  0.458794D-01
      9  0.841912D-02 -0.863247D-01 -0.674375D-03  0.341758D+00
     10 -0.961164D-02  0.372670D-02  0.689850D-02  0.431965D-02  0.730434D-01
     11  0.337778D-02 -0.253054D-03  0.214785D-02  0.252672D-02  0.745779D-01
     12  0.259427D-02 -0.812869D-02 -0.250029D-01 -0.109677D-01  0.432930D-01
     13 -0.953598D-02  0.372684D-02 -0.691806D-02  0.428822D-02  0.372469D-02
     14 -0.336015D-02  0.290176D-03  0.204484D-02 -0.246709D-02  0.716622D-02
     15  0.256351D-02 -0.812758D-02  0.250623D-01 -0.108652D-01  0.384619D-02
     16  0.196743D-05 -0.370606D-02  0.000000D+00  0.360006D-03 -0.368965D-02
     17  0.000000D+00  0.238872D-05 -0.168779D-02 -0.982619D-05  0.914516D-03
     18  0.271759D-02 -0.105756D-02 -0.985302D-05  0.264414D-02  0.531268D-03
     19  0.175757D-05  0.360061D-04 -0.163197D-05  0.730326D-03  0.351668D-04
     20  0.000000D+00  0.000000D+00  0.370748D-03  0.217290D-05 -0.258918D-04
     21 -0.468355D-03  0.297574D-04  0.219785D-05 -0.600540D-03 -0.151409D-04
               11            12            13            14            15 
     11  0.267191D+00
     12  0.128473D+00  0.120452D+00
     13 -0.718354D-02  0.381340D-02  0.730443D-01
     14 -0.174288D-01  0.137083D-01 -0.747739D-01  0.268353D+00
     15 -0.138268D-01  0.860447D-02  0.429518D-01 -0.127794D+00  0.119282D+00
     16 -0.311778D-03 -0.180928D-03 -0.368943D-02  0.312506D-03 -0.179453D-03
     17  0.155419D-02  0.188181D-02 -0.916961D-03  0.157142D-02 -0.187196D-02
     18  0.188207D-02 -0.592140D-03  0.527111D-03 -0.187218D-02 -0.609173D-03
     19 -0.629678D-03 -0.366523D-03  0.351542D-04  0.631297D-03 -0.363585D-03
     20 -0.356220D-03 -0.421989D-03  0.259701D-04 -0.360132D-03  0.419790D-03
     21 -0.422256D-03  0.124639D-03 -0.150294D-04  0.420028D-03  0.128473D-03
               16            17            18            19            20 
     16  0.115450D+01
     17 -0.278091D-04 -0.649459D-03
     18  0.627959D-03  0.000000D+00 -0.649951D-03
     19 -0.113420D+01  0.278368D-04 -0.625761D-03  0.113401D+01
     20  0.278769D-04  0.165534D-02  0.000000D+00 -0.278836D-04 -0.205323D-02
     21 -0.626386D-03  0.000000D+00  0.165556D-02  0.626405D-03  0.000000D+00
               21 
     21 -0.205302D-02
 Leave Link  716 at Sun Oct 13 09:51:49 2024, MaxMem=  2684354560 cpu:               0.9 elap:               0.1
 (Enter /usr/local/g16_AVX//g16/l103.exe)

 GradGradGradGradGradGradGradGradGradGradGradGradGradGradGradGradGradGrad
 Berny optimization.
 Search for a local minimum.
 Step number   1 out of a maximum of    2
 All quantities printed in internal units (Hartrees-Bohrs-Radians)
 Second derivative matrix not updated -- analytic derivatives used.
 ITU=  0
     Eigenvalues ---   -0.00398  -0.00398   0.00279   0.00279   0.01302
     Eigenvalues ---    0.06117   0.06118   0.10895   0.10895   0.11162
     Eigenvalues ---    0.19943   0.48183   0.89753   0.89767   2.27750
 Eigenvalue     1 is  -3.98D-03 should be greater than     0.000000 Eigenvector:
                          Z6        Z7        Z2        Z5        Z4
   1                    0.68840  -0.61714  -0.18573   0.15343   0.15329
                          Z3        X3        Z1        X4        X5
   1                    0.14685   0.14334   0.10564  -0.07329  -0.07043
 Eigenvalue     2 is  -3.98D-03 should be greater than     0.000000 Eigenvector:
                          Y6        Y7        Y2        Y3        Y4
   1                    0.68836  -0.61713  -0.18574   0.15525   0.14927
                          Y5        X5        X4        Y1        Z6
   1                    0.14916   0.12511  -0.12345   0.10566  -0.00635
 Quadratic step=4.485D-01 exceeds max=3.000D-01 adjusted using Lamda=-6.760D-03.
 Angle between NR and scaled steps=   4.49 degrees.
 Angle between quadratic step and forces=  55.23 degrees.
 Linear search not attempted -- first point.
 B after Tr=     0.005051   -0.000003   -0.000011
         Rot=    1.000000    0.000000    0.000004   -0.000000 Ang=   0.00 deg.
 Variable       Old X    -DE/DX   Delta X   Delta X   Delta X     New X
                                 (Linear)    (Quad)   (Total)
    X1       -0.61200   0.00324   0.00000  -0.07675  -0.07170  -0.68370
    Y1       -0.00000  -0.00000   0.00000   0.00000  -0.00000  -0.00000
    Z1       -0.00010   0.00004   0.00000   0.00014   0.00013   0.00003
    X2       -4.08941  -0.01383   0.00000  -0.12283  -0.11778  -4.20720
    Y2       -0.00000  -0.00000   0.00000  -0.00000  -0.00001  -0.00001
    Z2        0.00007  -0.00001   0.00000  -0.00007  -0.00011  -0.00004
    X3        0.00116   0.00089   0.00000  -0.05966  -0.05460  -0.05344
    Y3        0.00444  -0.00000   0.00000  -0.00000  -0.00000   0.00444
    Z3       -1.95397   0.00081   0.00000   0.00457   0.00456  -1.94941
    X4        0.00056   0.00091   0.00000  -0.05925  -0.05421  -0.05365
    Y4        1.68994  -0.00070   0.00000  -0.00386  -0.00386   1.68608
    Z4        0.98098  -0.00042   0.00000  -0.00232  -0.00233   0.97865
    X5        0.00058   0.00091   0.00000  -0.05926  -0.05422  -0.05364
    Y5       -1.69441   0.00071   0.00000   0.00388   0.00388  -1.69053
    Z5        0.97326  -0.00042   0.00000  -0.00230  -0.00231   0.97095
    X6        4.58161   0.00275   0.00000   0.16961   0.17466   4.75628
    Y6        0.00004   0.00000   0.00000  -0.00000  -0.00000   0.00003
    Z6       -0.00072  -0.00000   0.00000  -0.00001   0.00002  -0.00070
    X7        6.81024   0.00513   0.00000   0.17280   0.17785   6.98809
    Y7       -0.00002  -0.00000   0.00000  -0.00000  -0.00000  -0.00002
    Z7        0.00051   0.00000   0.00000  -0.00001   0.00004   0.00055
         Item               Value     Threshold  Converged?
 Maximum Force            0.013831     0.000450     NO 
 RMS     Force            0.003382     0.000300     NO 
 Maximum Displacement     0.177849     0.001800     NO 
 RMS     Displacement     0.065492     0.001200     NO 
 Predicted change in Energy=-1.632614D-03
 GradGradGradGradGradGradGradGradGradGradGradGradGradGradGradGradGradGrad

 Leave Link  103 at Sun Oct 13 09:51:49 2024, MaxMem=  2684354560 cpu:               0.6 elap:               0.1
 (Enter /usr/local/g16_AVX//g16/l9999.exe)

 ----------------------------------------------------------------------

 Electric dipole moment (input orientation):
 (Debye = 10**-18 statcoulomb cm , SI units = C m)
                  (au)            (Debye)         (10**-30 SI)
   Tot        0.378528D+01      0.962122D+01      0.320929D+02
   x         -0.378528D+01     -0.962122D+01     -0.320929D+02
   y         -0.102526D-04     -0.260596D-04     -0.869255D-04
   z          0.101617D-03      0.258284D-03      0.861544D-03

 Dipole polarizability, Alpha (input orientation).
 (esu units = cm**3 , SI units = C**2 m**2 J**-1)
 Alpha(0;0):
               (au)            (10**-24 esu)      (10**-40 SI)
   iso        0.567161D+02      0.840446D+01      0.935123D+01
   aniso      0.512384D+02      0.759274D+01      0.844806D+01
   xx         0.908750D+02      0.134663D+02      0.149833D+02
   yx        -0.255516D-03     -0.378635D-04     -0.421289D-04
   yy         0.396365D+02      0.587353D+01      0.653518D+01
   zx         0.510162D-02      0.755982D-03      0.841144D-03
   zy        -0.138547D-04     -0.205305D-05     -0.228433D-05
   zz         0.396368D+02      0.587357D+01      0.653523D+01

 ----------------------------------------------------------------------

 Dipole orientation:
     6         -0.00011847         -0.00000212          0.61199536
    17         -0.00003986          0.00000730          4.08941269
     1         -1.95397301          0.00443934         -0.00121465
     1          0.98097306          1.68994693         -0.00053760
     1          0.97326458         -1.69440896         -0.00054565
     6         -0.00059699          0.00002538         -4.58161455
     7          0.00069305         -0.00003545         -6.81024412

 Electric dipole moment (dipole orientation):
 (Debye = 10**-18 statcoulomb cm , SI units = C m)
                  (au)            (Debye)         (10**-30 SI)
   Tot        0.378528D+01      0.962122D+01      0.320929D+02
   x          0.000000D+00      0.000000D+00      0.000000D+00
   y          0.000000D+00      0.000000D+00      0.000000D+00
   z          0.378528D+01      0.962122D+01      0.320929D+02

 Dipole polarizability, Alpha (dipole orientation).
 (esu units = cm**3 , SI units = C**2 m**2 J**-1)
 Alpha(0;0):
               (au)            (10**-24 esu)      (10**-40 SI)
   iso        0.567161D+02      0.840446D+01      0.935123D+01
   aniso      0.512384D+02      0.759274D+01      0.844806D+01
   xx         0.396368D+02      0.587357D+01      0.653523D+01
   yx        -0.138783D-04     -0.205656D-05     -0.228823D-05
   yy         0.396365D+02      0.587353D+01      0.653518D+01
   zx        -0.647713D-02     -0.959811D-03     -0.106793D-02
   zy         0.394280D-03      0.584263D-04      0.650080D-04
   zz         0.908750D+02      0.134663D+02      0.149833D+02

 ----------------------------------------------------------------------
 1\1\GINC-NODO10\Freq\RB3LYP\6-31++G(d,p)\C2H3Cl1N1(1-)\ALANQF\13-Oct-2
 024\0\\#p b3lyp 6-31++g(d,p) scf=verytight NoSymm freq=noraman int=ult
 rafine\\RxCoord=2.59913 DE=47.35\\-1,1\C,-0.323854,-0.000002,-0.000054
 \Cl,-2.164024,-0.000002,0.000037\H,0.000615,0.002352,-1.033998\H,0.000
 296,0.89428,0.519111\H,0.000305,-0.896644,0.515027\C,2.424486,0.00002,
 -0.000381\N,3.603826,-0.000009,0.00027\\Version=ES64L-G16RevB.01\HF=-5
 92.9932247\RMSD=2.146e-09\RMSF=3.382e-03\ZeroPoint=0.0434623\Thermal=0
 .048545\Dipole=-3.7347239,-0.0000103,0.000104\DipoleDeriv=1.8657814,0.
 0000029,-0.0001279,0.0000031,0.0601316,-0.0000025,0.0000274,-0.0000025
 ,0.0600775,-1.4570275,-0.0000024,0.0000504,-0.0000005,-0.2973438,0.,0.
 0001294,0.,-0.297356,-0.0343951,0.0000008,-0.0004049,-0.0000334,0.0801
 781,0.0001906,0.0147492,0.000191,-0.0034241,-0.0345841,0.0003488,0.000
 2155,-0.0128993,0.0175625,-0.0363303,-0.0075156,-0.0363449,0.0590613,-
 0.0345827,-0.0003473,0.0002123,0.0129364,0.0172287,0.0361421,-0.007458
 1,0.0361564,0.0593909,-0.2756024,-0.0000096,0.0001925,-0.0000252,-0.45
 51407,0.,0.0004745,0.,-0.4551288,-1.0295896,0.0000067,-0.0001379,0.000
 019,-0.4226164,0.,-0.0004068,0.,-0.4226209\Polar=90.8750314,-0.0002555
 ,39.6365363,0.0051016,-0.0000139,39.6368144\Quadrupole=-26.6086903,13.
 3041601,13.3045303,-0.0000067,-0.0011555,0.0000075\PG=C01 [X(C2H3Cl1N1
 )]\NImag=2\\0.23079337,0.00000063,0.60699007,-0.00006981,0.00000496,0.
 60709874,-0.08093096,-0.00000012,-0.00000470,0.17076034,-0.00000004,-0
 .03343158,-0.00000007,0.00000029,0.01761623,-0.00000225,-0.00000004,-0
 .03343911,0.00001048,0.00000003,0.01761298,-0.05208255,-0.00019244,0.0
 8447309,-0.02478959,-0.00004363,0.01913566,0.07308866,-0.00018880,-0.0
 4938463,0.00064020,0.00001420,0.00062962,-0.00001763,0.00019663,0.0458
 7935,0.08287724,0.00064010,-0.33038758,-0.00625077,-0.00001771,0.00841
 912,-0.08632468,-0.00067437,0.34175776,-0.05202967,-0.07297153,-0.0423
 6331,-0.02481059,-0.01655975,-0.00961164,0.00372670,0.00689850,0.00431
 965,0.07304335,-0.07160061,-0.25956125,-0.12201010,0.00540072,0.006453
 28,0.00337778,-0.00025305,0.00214785,0.00252672,0.07457794,0.26719098,
 -0.04156318,-0.12201428,-0.12021545,0.00313294,0.00337636,0.00259427,-
 0.00812869,-0.02500286,-0.01096767,0.04329298,0.12847262,0.12045189,-0
 .05203162,0.07316326,-0.04202948,-0.02480991,0.01660322,-0.00953598,0.
 00372684,-0.00691806,0.00428822,0.00372469,-0.00718354,0.00381340,0.07
 304428,0.07178860,-0.26066397,0.12136506,-0.00541490,0.00648404,-0.003
 36015,0.00029018,0.00204484,-0.00246709,0.00716622,-0.01742884,0.01370
 835,-0.07477390,0.26835264,-0.04123556,0.12136932,-0.11910381,0.003108
 22,-0.00335861,0.00256351,-0.00812758,0.02506232,-0.01086524,0.0038461
 9,-0.01382684,0.00860447,0.04295176,-0.12779402,0.11928177,-0.00128202
 ,0.00000010,-0.00000317,-0.00793325,-0.00000005,0.00000197,-0.00370606
 ,-0.00000085,0.00036001,-0.00368965,-0.00031178,-0.00018093,-0.0036894
 3,0.00031251,-0.00017945,1.15449630,0.00000052,-0.00516038,-0.00000008
 ,-0.00000049,0.00271666,0.00000001,0.00000239,-0.00168779,-0.00000983,
 0.00091452,0.00155419,0.00188181,-0.00091696,0.00157142,-0.00187196,-0
 .00002781,-0.00064946,-0.00001359,-0.00000008,-0.00516603,0.00001057,0
 .,0.00271759,-0.00105756,-0.00000985,0.00264414,0.00053127,0.00188207,
 -0.00059214,0.00052711,-0.00187218,-0.00060917,0.00062796,0.00000001,-
 0.00064995,0.00756345,0.00000010,-0.00000262,-0.00748604,-0.00000004,0
 .00000176,0.00003601,-0.00000163,0.00073033,0.00003517,-0.00062968,-0.
 00036652,0.00003515,0.00063130,-0.00036359,-1.13419590,0.00002784,-0.0
 0062576,1.13401216,-0.00000030,0.00121174,0.00000003,0.00000030,-0.000
 46825,0.,-0.00000007,0.00037075,0.00000217,-0.00002589,-0.00035622,-0.
 00042199,0.00002597,-0.00036013,0.00041979,0.00002788,0.00165534,0.000
 00002,-0.00002788,-0.00205323,0.00000714,0.00000003,0.00121324,-0.0000
 0675,0.,-0.00046835,0.00002976,0.00000220,-0.00060054,-0.00001514,-0.0
 0042226,0.00012464,-0.00001503,0.00042003,0.00012847,-0.00062639,0.000
 00002,0.00165556,0.00062640,-0.00000002,-0.00205302\\-0.00323583,0.000
 00219,-0.00003864,0.01383128,0.00000034,0.00001427,-0.00088659,0.00000
 135,-0.00081099,-0.00091121,0.00070460,0.00041941,-0.00090978,-0.00070
 852,0.00041679,-0.00275332,-0.00000006,0.00000149,-0.00513455,0.000000
 09,-0.00000234\\\@


 SCIENCE IS A VERY HUMAN FORM OF KNOWLEDGE.
 WE ARE ALWAYS AT THE BRINK OF THE KNOWN,
 WE ALWAYS FEEL FORWARD FOR WHAT IS HOPED.
 EVERY JUDGEMENT IN SCIENCE STANDS ON THE EDGE OF ERROR, AND IS PERSONAL.
 SCIENCE IS A TRIBUTE TO WHAT WE CAN KNOW ALTHOUGH WE ARE FALLIBLE.

                     -- J. BRONOWSKI
 Job cpu time:       0 days  0 hours  3 minutes 42.3 seconds.
 Elapsed time:       0 days  0 hours  0 minutes  9.6 seconds.
 File lengths (MBytes):  RWF=     88 Int=      0 D2E=      0 Chk=      2 Scr=      2
 Normal termination of Gaussian 16 at Sun Oct 13 09:51:49 2024.
