RxCoord=2.59913 DE=47.35                                                
Freq      RB3LYP                                                      6-31++G(d,p)        
Number of atoms                            I                7
Info1-9                                    I   N=           9
          16          16           0           0           0         100
           6          18        -502
Full Title                                 C   N=           2
RxCoord=2.59913 DE=47.35
Route                                      C   N=           6
#p b3lyp 6-31++g(d,p) scf=verytight NoSymm freq=noraman int=
ultrafine   
Charge                                     I               -1
Multiplicity                               I                1
Number of electrons                        I               40
Number of alpha electrons                  I               20
Number of beta electrons                   I               20
Number of basis functions                  I               98
Number of independent functions            I               98
Number of point charges in /Mol/           I                0
Number of translation vectors              I                0
Atomic numbers                             I   N=           7
           6          17           1           1           1           6
           7
Nuclear charges                            R   N=           7
  6.00000000E+00  1.70000000E+01  1.00000000E+00  1.00000000E+00  1.00000000E+00
  6.00000000E+00  7.00000000E+00
Current cartesian coordinates              R   N=          21
 -6.11995364E-01 -3.77945225E-06 -1.02045211E-04 -4.08941269E+00 -3.77945225E-06
  6.99198666E-05  1.16218157E-03  4.44463584E-03 -1.95397303E+00  5.59358933E-04
  1.68994428E+00  9.80977618E-01  5.76366468E-04 -1.69441159E+00  9.73259977E-01
  4.58161453E+00  3.77945225E-05 -7.19985653E-04  6.81024414E+00 -1.70075351E-05
  5.10226054E-04
Number of symbols in /Mol/                 I                0
Force Field                                I                0
Atom Types                                 C   N=           7
                                                            
                        
Int Atom Types                             I   N=           7
           0           0           0           0           0           0
           0
MM charges                                 R   N=           7
  0.00000000E+00  0.00000000E+00  0.00000000E+00  0.00000000E+00  0.00000000E+00
  0.00000000E+00  0.00000000E+00
Integer atomic weights                     I   N=           7
          12          35           1           1           1          12
          14
Real atomic weights                        R   N=           7
  1.20000000E+01  3.49688527E+01  1.00782504E+00  1.00782504E+00  1.00782504E+00
  1.20000000E+01  1.40030740E+01
Atom fragment info                         I   N=           7
           0           0           0           0           0           0
           0
Atom residue num                           I   N=           7
           0           0           0           0           0           0
           0
Nuclear spins                              I   N=           7
           0           3           1           1           1           0
           2
Nuclear ZEff                               R   N=           7
 -3.60000000E+00 -1.42400000E+01 -1.00000000E+00 -1.00000000E+00 -1.00000000E+00
 -3.60000000E+00 -4.55000000E+00
Nuclear ZNuc                               R   N=           7
  6.00000000E+00  1.70000000E+01  1.00000000E+00  1.00000000E+00  1.00000000E+00
  6.00000000E+00  7.00000000E+00
Nuclear QMom                               R   N=           7
  0.00000000E+00 -8.16500000E+00  0.00000000E+00  0.00000000E+00  0.00000000E+00
  0.00000000E+00  2.04400000E+00
Nuclear GFac                               R   N=           7
  0.00000000E+00  8.21874000E-01  2.79284600E+00  2.79284600E+00  2.79284600E+00
  0.00000000E+00  4.03761000E-01
MicOpt                                     I   N=           7
          -1          -1          -1          -1          -1          -1
          -1
Number of residues                         I                0
Number of secondary structures             I                0
Number of contracted shells                I               33
Number of primitive shells                 I               72
Pure/Cartesian d shells                    I                1
Pure/Cartesian f shells                    I                0
Highest angular momentum                   I                2
Largest degree of contraction              I                6
Shell types                                I   N=          33
           0          -1          -1          -1           2           0
          -1          -1          -1          -1           2           0
           0           0           1           0           0           0
           1           0           0           0           1           0
          -1          -1          -1           2           0          -1
          -1          -1           2
Number of primitives per shell             I   N=          33
           6           3           1           1           1           6
           6           3           1           1           1           3
           1           1           1           3           1           1
           1           3           1           1           1           6
           3           1           1           1           6           3
           1           1           1
Shell to atom map                          I   N=          33
           1           1           1           1           1           2
           2           2           2           2           2           3
           3           3           3           4           4           4
           4           5           5           5           5           6
           6           6           6           6           7           7
           7           7           7
Primitive exponents                        R   N=          72
  3.04752488E+03  4.57369518E+02  1.03948685E+02  2.92101553E+01  9.28666296E+00
  3.16392696E+00  7.86827235E+00  1.88128854E+00  5.44249258E-01  1.68714478E-01
  4.38000000E-02  8.00000000E-01  2.51801000E+04  3.78035000E+03  8.60474000E+02
  2.42145000E+02  7.73349000E+01  2.62470000E+01  4.91765000E+02  1.16984000E+02
  3.74153000E+01  1.37834000E+01  5.45215000E+00  2.22588000E+00  3.18649000E+00
  1.14427000E+00  4.20377000E-01  1.42657000E-01  4.83000000E-02  7.50000000E-01
  1.87311370E+01  2.82539436E+00  6.40121692E-01  1.61277759E-01  3.60000000E-02
  1.10000000E+00  1.87311370E+01  2.82539436E+00  6.40121692E-01  1.61277759E-01
  3.60000000E-02  1.10000000E+00  1.87311370E+01  2.82539436E+00  6.40121692E-01
  1.61277759E-01  3.60000000E-02  1.10000000E+00  3.04752488E+03  4.57369518E+02
  1.03948685E+02  2.92101553E+01  9.28666296E+00  3.16392696E+00  7.86827235E+00
  1.88128854E+00  5.44249258E-01  1.68714478E-01  4.38000000E-02  8.00000000E-01
  4.17351146E+03  6.27457911E+02  1.42902093E+02  4.02343293E+01  1.28202129E+01
  4.39043701E+00  1.16263619E+01  2.71627981E+00  7.72218397E-01  2.12031498E-01
  6.39000000E-02  8.00000000E-01
Contraction coefficients                   R   N=          72
  1.83473713E-03  1.40373228E-02  6.88426223E-02  2.32184443E-01  4.67941348E-01
  3.62311985E-01 -1.19332420E-01 -1.60854152E-01  1.14345644E+00  1.00000000E+00
  1.00000000E+00  1.00000000E+00  1.83295985E-03  1.40341988E-02  6.90973943E-02
  2.37451980E-01  4.83033960E-01  3.39855972E-01 -2.29739142E-03 -3.07137189E-02
 -1.12528069E-01  4.50163278E-02  5.89353363E-01  4.65206287E-01 -2.51828028E-01
  6.15892514E-02  1.06018433E+00  1.00000000E+00  1.00000000E+00  1.00000000E+00
  3.34946043E-02  2.34726953E-01  8.13757326E-01  1.00000000E+00  1.00000000E+00
  1.00000000E+00  3.34946043E-02  2.34726953E-01  8.13757326E-01  1.00000000E+00
  1.00000000E+00  1.00000000E+00  3.34946043E-02  2.34726953E-01  8.13757326E-01
  1.00000000E+00  1.00000000E+00  1.00000000E+00  1.83473713E-03  1.40373228E-02
  6.88426223E-02  2.32184443E-01  4.67941348E-01  3.62311985E-01 -1.19332420E-01
 -1.60854152E-01  1.14345644E+00  1.00000000E+00  1.00000000E+00  1.00000000E+00
  1.83477216E-03  1.39946270E-02  6.85865518E-02  2.32240873E-01  4.69069948E-01
  3.60455199E-01 -1.14961182E-01 -1.69117479E-01  1.14585195E+00  1.00000000E+00
  1.00000000E+00  1.00000000E+00
P(S=P) Contraction coefficients            R   N=          72
  0.00000000E+00  0.00000000E+00  0.00000000E+00  0.00000000E+00  0.00000000E+00
  0.00000000E+00  6.89990666E-02  3.16423961E-01  7.44308291E-01  1.00000000E+00
  1.00000000E+00  0.00000000E+00  0.00000000E+00  0.00000000E+00  0.00000000E+00
  0.00000000E+00  0.00000000E+00  0.00000000E+00  3.98940088E-03  3.03177067E-02
  1.29880029E-01  3.27951072E-01  4.53527100E-01  2.52154056E-01 -1.42993147E-02
  3.23572333E-01  7.43507765E-01  1.00000000E+00  1.00000000E+00  0.00000000E+00
  0.00000000E+00  0.00000000E+00  0.00000000E+00  0.00000000E+00  0.00000000E+00
  0.00000000E+00  0.00000000E+00  0.00000000E+00  0.00000000E+00  0.00000000E+00
  0.00000000E+00  0.00000000E+00  0.00000000E+00  0.00000000E+00  0.00000000E+00
  0.00000000E+00  0.00000000E+00  0.00000000E+00  0.00000000E+00  0.00000000E+00
  0.00000000E+00  0.00000000E+00  0.00000000E+00  0.00000000E+00  6.89990666E-02
  3.16423961E-01  7.44308291E-01  1.00000000E+00  1.00000000E+00  0.00000000E+00
  0.00000000E+00  0.00000000E+00  0.00000000E+00  0.00000000E+00  0.00000000E+00
  0.00000000E+00  6.75797439E-02  3.23907296E-01  7.40895140E-01  1.00000000E+00
  1.00000000E+00  0.00000000E+00
Coordinates of each shell                  R   N=          99
 -6.11995364E-01 -3.77945225E-06 -1.02045211E-04 -6.11995364E-01 -3.77945225E-06
 -1.02045211E-04 -6.11995364E-01 -3.77945225E-06 -1.02045211E-04 -6.11995364E-01
 -3.77945225E-06 -1.02045211E-04 -6.11995364E-01 -3.77945225E-06 -1.02045211E-04
 -4.08941269E+00 -3.77945225E-06  6.99198666E-05 -4.08941269E+00 -3.77945225E-06
  6.99198666E-05 -4.08941269E+00 -3.77945225E-06  6.99198666E-05 -4.08941269E+00
 -3.77945225E-06  6.99198666E-05 -4.08941269E+00 -3.77945225E-06  6.99198666E-05
 -4.08941269E+00 -3.77945225E-06  6.99198666E-05  1.16218157E-03  4.44463584E-03
 -1.95397303E+00  1.16218157E-03  4.44463584E-03 -1.95397303E+00  1.16218157E-03
  4.44463584E-03 -1.95397303E+00  1.16218157E-03  4.44463584E-03 -1.95397303E+00
  5.59358933E-04  1.68994428E+00  9.80977618E-01  5.59358933E-04  1.68994428E+00
  9.80977618E-01  5.59358933E-04  1.68994428E+00  9.80977618E-01  5.59358933E-04
  1.68994428E+00  9.80977618E-01  5.76366468E-04 -1.69441159E+00  9.73259977E-01
  5.76366468E-04 -1.69441159E+00  9.73259977E-01  5.76366468E-04 -1.69441159E+00
  9.73259977E-01  5.76366468E-04 -1.69441159E+00  9.73259977E-01  4.58161453E+00
  3.77945225E-05 -7.19985653E-04  4.58161453E+00  3.77945225E-05 -7.19985653E-04
  4.58161453E+00  3.77945225E-05 -7.19985653E-04  4.58161453E+00  3.77945225E-05
 -7.19985653E-04  4.58161453E+00  3.77945225E-05 -7.19985653E-04  6.81024414E+00
 -1.70075351E-05  5.10226054E-04  6.81024414E+00 -1.70075351E-05  5.10226054E-04
  6.81024414E+00 -1.70075351E-05  5.10226054E-04  6.81024414E+00 -1.70075351E-05
  5.10226054E-04  6.81024414E+00 -1.70075351E-05  5.10226054E-04
Num ILSW                                   I              100
ILSW                                       I   N=         100
           0           1           0           0           2           0
           0           0           0           0         402          -1
           5           0           0           0           2           0
           0           0           0           0           1           0
           1           1           0           0           0           0
           0           0      100000           0          -1           0
           0           0           0           0           0           0
           0           0           0           1           0           0
           0 -2000000000           1           0           0           0
           0           0           4          52           0           0
           0           0           5           0           0           0
           0           0           0           7           0           1
           0           0           0           0           0           0
           0           0           0           0           0           0
           0           0           0           0           0           0
           0           0           0           0           0           0
           0           0           0           0
Num RLSW                                   I               52
RLSW                                       R   N=          52
  8.00000000E-01  7.20000000E-01  1.00000000E+00  8.10000000E-01  2.00000000E-01
  0.00000000E+00  0.00000000E+00  1.00000000E+00  0.00000000E+00  0.00000000E+00
  0.00000000E+00  0.00000000E+00  1.00000000E+00  0.00000000E+00  0.00000000E+00
  0.00000000E+00  0.00000000E+00  1.00000000E+00  0.00000000E+00  0.00000000E+00
  0.00000000E+00  0.00000000E+00  1.00000000E+00  0.00000000E+00  0.00000000E+00
  0.00000000E+00  0.00000000E+00  1.00000000E+00  0.00000000E+00  0.00000000E+00
  0.00000000E+00  0.00000000E+00  1.00000000E+00  0.00000000E+00  0.00000000E+00
  0.00000000E+00  0.00000000E+00  0.00000000E+00  1.00000000E+00  1.00000000E+00
  0.00000000E+00  1.00000000E+00  0.00000000E+00  0.00000000E+00  0.00000000E+00
  0.00000000E+00  0.00000000E+00  0.00000000E+00  0.00000000E+00  0.00000000E+00
  0.00000000E+00  0.00000000E+00
MxBond                                     I                4
NBond                                      I   N=           7
           4           1           1           1           1           1
           1
IBond                                      I   N=          28
           2           3           4           5           1           0
           0           0           1           0           0           0
           1           0           0           0           1           0
           0           0           7           0           0           0
           6           0           0           0
RBond                                      R   N=          28
  1.00000000E+00  1.00000000E+00  1.00000000E+00  1.00000000E+00  1.00000000E+00
  0.00000000E+00  0.00000000E+00  0.00000000E+00  1.00000000E+00  0.00000000E+00
  0.00000000E+00  0.00000000E+00  1.00000000E+00  0.00000000E+00  0.00000000E+00
  0.00000000E+00  1.00000000E+00  0.00000000E+00  0.00000000E+00  0.00000000E+00
  2.00000000E+00  0.00000000E+00  0.00000000E+00  0.00000000E+00  2.00000000E+00
  0.00000000E+00  0.00000000E+00  0.00000000E+00
Virial Ratio                               R      2.004495633418552E+00
SCF Energy                                 R     -5.929932246521671E+02
Total Energy                               R     -5.929932246521671E+02
RMS Force                                  R      3.381819892872682E-03
RMS Density                                R      2.145797633037166E-09
NImag                                      I                2
Job Status                                 I                1
Nuclear derivative order                   I                2
External E-field                           R   N=          35
  0.00000000E+00  0.00000000E+00  0.00000000E+00  0.00000000E+00  0.00000000E+00
  0.00000000E+00  0.00000000E+00  0.00000000E+00  0.00000000E+00  0.00000000E+00
  0.00000000E+00  0.00000000E+00  0.00000000E+00  0.00000000E+00  0.00000000E+00
  0.00000000E+00  0.00000000E+00  0.00000000E+00  0.00000000E+00  0.00000000E+00
  0.00000000E+00  0.00000000E+00  0.00000000E+00  0.00000000E+00  0.00000000E+00
  0.00000000E+00  0.00000000E+00  0.00000000E+00  0.00000000E+00  0.00000000E+00
  0.00000000E+00  0.00000000E+00  0.00000000E+00  0.00000000E+00  0.00000000E+00
IOpCl                                      I                0
IROHF                                      I                0
Alpha Orbital Energies                     R   N=          98
 -1.01404381E+02 -1.40961807E+01 -1.00965260E+01 -9.96062618E+00 -9.32067101E+00
 -7.08353070E+00 -7.07539236E+00 -7.07539217E+00 -7.09373466E-01 -6.49794806E-01
 -5.35836028E-01 -3.03463958E-01 -3.03456053E-01 -2.71928605E-01 -1.83516450E-01
 -1.70986074E-01 -1.70979190E-01 -9.87646721E-02 -9.87644744E-02 -7.00795863E-02
  1.10743727E-01  1.30581545E-01  1.46335932E-01  1.46339000E-01  1.72743596E-01
  2.04943225E-01  2.04944943E-01  2.05889660E-01  2.21646942E-01  2.21683914E-01
  2.43872195E-01  2.50780599E-01  2.50789986E-01  2.71842164E-01  2.74480420E-01
  2.74496308E-01  3.15078655E-01  3.38593943E-01  3.38622686E-01  3.63480944E-01
  3.85900390E-01  3.86482454E-01  3.86504300E-01  4.67078419E-01  4.82621550E-01
  6.63501205E-01  7.39036944E-01  7.48072286E-01  7.48073482E-01  7.77513196E-01
  7.77519261E-01  8.85575529E-01  8.96663176E-01  8.96672917E-01  9.84542774E-01
  9.99081251E-01  9.99102732E-01  1.04945752E+00  1.04949466E+00  1.08602551E+00
  1.09907947E+00  1.09912648E+00  1.12506220E+00  1.19085850E+00  1.19086836E+00
  1.26551736E+00  1.27126431E+00  1.36640045E+00  1.48246015E+00  1.60718168E+00
  1.60722827E+00  1.78010999E+00  1.78011161E+00  1.78459530E+00  1.80324844E+00
  1.80325471E+00  2.15964433E+00  2.20062570E+00  2.20063065E+00  2.22175268E+00
  2.22180412E+00  2.28842116E+00  2.49878186E+00  2.49886701E+00  2.66549552E+00
  2.83376319E+00  2.83377013E+00  2.84614692E+00  2.96150236E+00  2.96155177E+00
  3.26329460E+00  3.39356900E+00  3.56178747E+00  3.56180235E+00  4.21567405E+00
  4.42329509E+00  4.46189522E+00  4.57347801E+00
Alpha MO coefficients                      R   N=        9604
 -6.12806951E-06  2.21514684E-05 -5.06581693E-05  1.53340441E-10 -1.94493910E-09
  1.04341894E-04 -5.09108384E-05  1.99519619E-10  1.81998181E-08 -4.05788967E-05
 -1.29525723E-04 -1.45848863E-09  6.25871331E-09 -1.36110424E-05  1.32714203E-05
  1.32835452E-05 -1.38391076E-10 -4.52012354E-09  2.43422521E-10  9.95996898E-01
  1.51509399E-02  3.87973725E-05 -7.59745857E-11 -4.24617036E-09 -2.10637370E-02
 -1.78683636E-05 -4.72119563E-11  1.48963623E-09  1.87892804E-03 -5.55206634E-05
  1.75506439E-10 -1.44052718E-11 -4.54042063E-04 -3.08854995E-05  2.52393964E-10
 -8.20738108E-10  7.50105577E-03  7.52511792E-03  7.52511787E-03  1.70558230E-11
 -4.16633308E-10  7.26900396E-12 -2.56412106E-05 -2.82840983E-05  4.13037448E-05
  2.36505917E-05  2.70257370E-08 -1.18604810E-05 -2.56635622E-05 -2.82598878E-05
  4.12968803E-05  2.36295256E-05  1.02550933E-05  5.94939464E-06 -2.56631176E-05
 -2.82588137E-05  4.12937445E-05  2.36301076E-05 -1.02819081E-05  5.90245613E-06
 -8.65198431E-07  8.68322127E-07  9.52443504E-07  3.48132282E-10 -6.84719469E-09
 -1.25244237E-04 -1.12337776E-04  1.33086954E-09 -3.39880042E-08  3.04230823E-05
 -1.03494606E-04 -1.34815691E-09  1.91829779E-08 -1.25625146E-05 -1.27032940E-07
 -1.26636371E-07  4.05765514E-10 -8.49277681E-09  1.48401027E-12 -2.41770912E-06
 -9.59395335E-06 -1.31725248E-06 -1.49691835E-11  1.14249359E-10  1.40641940E-04
 -7.33797685E-05  2.10209852E-09 -4.63285241E-08  9.93675218E-05  1.59361329E-05
  1.96173667E-09 -3.69854045E-08  4.00335973E-06 -7.00443144E-06 -7.00448807E-06
 -4.46873451E-10  9.74771304E-09 -1.79352043E-12  2.99222651E-06  1.71665824E-05
 -3.28758987E-06  1.99658796E-10 -5.65733572E-09 -2.54908810E-05 -1.90914416E-05
 -3.64149981E-10  2.68791806E-08  1.17660953E-03  8.34877763E-05  8.22193352E-09
 -1.60955320E-07 -5.00354731E-06  8.08940582E-06  8.08716148E-06 -1.20311727E-10
  1.51599688E-10  2.12524188E-11  1.08780640E-07  2.09627940E-06 -3.43784236E-07
  3.15580595E-11 -3.67866778E-10  4.39063819E-06  2.06309401E-06 -1.81709705E-10
  2.17772098E-09 -5.11702250E-05 -2.29422111E-05  6.97114957E-10 -1.04568518E-08
 -2.09869341E-04 -8.72293737E-05 -5.11026684E-09  1.13605023E-07  4.36817583E-06
  3.86647189E-06  3.86582684E-06 -3.15055799E-11  9.94737158E-10  8.84733338E-12
  7.77257054E-06 -5.60468695E-05 -1.86317443E-04 -1.13550713E-06  8.82161188E-09
 -3.87890931E-06  7.76830325E-06 -5.60308426E-05 -1.86513533E-04 -1.12188273E-06
  3.35076992E-06  1.94432960E-06  7.76787258E-06 -5.60283904E-05 -1.86528904E-04
 -1.12142459E-06 -3.35932538E-06  1.92885392E-06  8.40134840E-05  2.06901386E-04
 -2.85829345E-04  6.82200306E-09 -1.52880812E-07 -2.51733994E-04 -4.24174586E-04
  1.16201361E-08 -2.60394172E-07  1.44665411E-03  1.04069371E-03 -2.46168829E-08
  5.23687749E-07 -7.61604214E-04 -1.28010378E-05 -1.28008407E-05  2.13194955E-08
 -4.78108732E-07  1.04774006E-11  9.92697117E-01  3.44480997E-02 -1.40352045E-03
  3.43897907E-08 -7.71838540E-07  5.22363975E-03  1.07809822E-04 -2.75886080E-09
  6.02179765E-08 -3.02877654E-03  5.50873151E-05 -2.23352589E-09  6.46084943E-08
 -7.70655942E-03 -8.42556102E-03 -8.42556113E-03 -2.03087640E-08  4.56016078E-07
 -2.07378994E-11  9.92997539E-01  4.96320938E-02 -6.78622739E-04 -7.86494431E-09
  2.85620083E-07 -1.65047705E-02  7.44121031E-04  5.44049315E-09 -9.92327138E-07
  6.32147193E-03 -2.60046236E-03  1.04792029E-08 -2.61765964E-07 -9.28174163E-03
 -8.84703774E-03 -8.84699239E-03 -1.70353818E-09 -5.04875896E-08  2.54075632E-09
 -8.79106692E-06 -4.83949836E-05 -3.38785393E-06 -1.57177675E-10 -8.83788156E-09
 -2.29895466E-05  1.86221135E-04  1.05081873E-09  4.57100962E-08  3.07221157E-03
  1.80183195E-03 -5.79169610E-09 -1.87199931E-07 -4.88363159E-03 -1.68742359E-03
  1.98099992E-09  2.56635018E-07 -1.19872238E-04 -1.68997622E-04 -1.68969400E-04
 -1.12561990E-09 -1.04030215E-08 -5.42471713E-10 -1.49060456E-04  3.03437375E-03
 -8.73195714E-04  3.47113872E-05  2.26064286E-07 -9.85856733E-05 -1.49022032E-04
  3.03525940E-03 -8.73280290E-04  3.47621349E-05  8.53049355E-05  4.95681297E-05
 -1.49022690E-04  3.03525540E-03 -8.73239455E-04  3.47625923E-05 -8.55336410E-05
  4.91823602E-05 -1.66809918E-05 -7.74591373E-05  4.37570640E-05  1.13027690E-09
 -6.60006008E-08 -4.78511800E-04 -9.73325235E-04  7.92597034E-09 -2.40934636E-08
  1.21123696E-03  8.76105876E-04  6.92118443E-09  2.66760729E-07 -9.35598253E-06
 -3.74725743E-05 -3.74929121E-05  2.84518282E-09 -7.03441302E-08 -1.22710907E-10
 -3.37226941E-05 -1.29134115E-04  1.68256242E-06 -2.73719293E-09  6.60872267E-08
  1.31919256E-03 -3.99608486E-04  2.16680949E-08 -5.14861893E-07 -9.45937456E-04
 -2.77155751E-04 -2.23013561E-08  1.89825879E-07 -3.87323792E-05 -7.91885758E-05
 -7.91862713E-05 -8.92384258E-10  3.52576400E-08  3.71331297E-11 -2.18763119E-05
 -1.06251951E-04 -9.86722440E-05  5.48555172E-10 -2.34681652E-08  4.48352648E-04
  6.44258010E-04 -5.85576105E-09  2.49396430E-07 -2.33879452E-03  4.97695529E-03
  9.28998493E-09 -3.12722659E-07 -3.35044177E-06 -3.12783750E-05 -3.12856639E-05
 -4.18586445E-11  1.34331178E-08 -1.99988493E-10  1.62069986E-07  6.72536079E-06
  4.67094722E-06  2.39669441E-11  7.48209629E-10  1.55112260E-05 -3.12995522E-05
 -2.02233834E-10 -3.56933288E-09 -1.47256407E-04  3.77203957E-04  1.89101389E-09
 -3.17147118E-08  6.27825807E-03  1.48036889E-03 -4.48670116E-09 -8.18523276E-08
  4.98260157E-05 -2.05785149E-06 -2.06223667E-06  2.56556683E-10 -7.99781744E-09
  7.06377825E-11 -3.88644833E-05 -4.70263102E-04 -3.79017553E-05 -3.20089336E-05
  2.75783109E-08 -1.19087686E-05 -3.88657013E-05 -4.70552408E-04 -3.71383739E-05
 -3.20951765E-05  1.03434081E-05  5.98608717E-06 -3.88678359E-05 -4.70559148E-04
 -3.71199484E-05 -3.20959167E-05 -1.03713707E-05  5.93981894E-06  9.92839252E-01
  4.93507701E-02  1.88560610E-03 -5.07922653E-08  1.13169633E-06 -1.09331209E-02
 -7.34856804E-04  3.67469901E-08 -8.04664962E-07 -7.62594346E-03 -1.88905225E-04
  8.08734378E-08 -1.61313318E-06 -8.45350528E-03 -9.71328976E-03 -9.71328321E-03
 -3.58734450E-08  8.08130759E-07  3.00811742E-11 -4.91258154E-04  5.13879881E-05
  4.39985515E-04 -1.04072679E-08  2.30549767E-07 -1.15242524E-03  5.62426007E-04
 -1.81153437E-08  4.15111503E-07  8.98075592E-03 -3.37212745E-03  5.51362563E-08
 -1.33144848E-06 -2.76346358E-04  1.74539524E-04  1.74539259E-04  1.40904987E-08
 -3.14396761E-07  7.26308208E-12 -1.04257248E-04  1.34178443E-04  3.51376838E-04
  8.32609070E-10 -4.81549470E-08  2.92062734E-03 -1.52787591E-03 -2.03012871E-08
  1.01260260E-07 -3.68230004E-02  3.81877374E-02  8.96865475E-08 -2.20897716E-06
 -7.49380727E-04 -1.19447358E-04 -1.19358966E-04 -4.83422822E-10  5.92647769E-08
 -2.39171461E-09 -2.84604344E-01  1.02274608E+00  4.71762777E-03 -1.14522895E-08
 -4.81482730E-07  7.60558335E-02  5.81736905E-04  5.43580025E-10 -4.00428642E-08
 -2.65785031E-02 -1.65029132E-03  2.10628635E-10  1.44310995E-07  6.51283050E-02
  1.79801399E-02 -2.35265417E-08 -8.39017542E-07 -1.51999878E-02 -1.55735994E-02
 -1.55735971E-02 -1.63338289E-10 -2.08095800E-08  5.49650531E-12 -4.01646550E-05
 -7.73097526E-04  1.20170273E-03 -7.09149140E-05 -2.04531583E-08  9.44398000E-06
 -4.01018496E-05 -7.73003601E-04  1.20153530E-03 -7.11659211E-05 -8.15093943E-06
 -4.73845497E-06 -4.01036815E-05 -7.73039055E-04  1.20163074E-03 -7.11611789E-05
  8.17033278E-06 -4.69878953E-06  1.70975937E-05  7.62014921E-05  4.57475520E-05
 -1.02111825E-08  2.26404969E-07  1.61567444E-04  5.06548603E-04  2.31613660E-08
 -5.40715833E-07 -2.23543052E-02  1.13286416E-02  2.82014752E-07 -4.01972324E-06
  8.92362910E-05  1.15052444E-05  1.15109801E-05 -2.20612400E-09  4.27004240E-08
  1.04337058E-11  1.01218941E-05  5.50313481E-05 -1.82912238E-05 -5.45432644E-09
  8.41984372E-08 -7.09590993E-04  5.41675742E-04  9.86952401E-09 -2.94406112E-08
  1.08947612E-03 -3.00304727E-03 -1.52316376E-07  2.31739259E-06 -4.80843046E-05
  2.72567433E-05  2.72556579E-05  4.41309004E-09 -1.00147640E-07  3.86273107E-11
  6.38837773E-05  1.53846530E-03  3.06167033E-04 -3.09622034E-09  4.83650644E-08
 -5.25867992E-04  1.77681298E-03  5.04509522E-09 -1.15614690E-06  4.69274856E-02
 -5.80818277E-02 -1.26855006E-07  4.26054357E-06 -1.92671721E-03  1.97752675E-04
  1.98013383E-04  2.05159021E-09  1.46417723E-07 -2.93046981E-09  1.39010242E-03
 -5.31334875E-03  9.90330663E-01 -1.52107328E-06 -9.95756504E-05 -4.20631105E-04
  3.14913729E-02 -4.60072989E-08 -3.03109630E-06  5.33548633E-03 -1.29442382E-02
  1.63351470E-08  1.18495271E-06 -7.56224863E-02 -1.50197329E-02  3.66941098E-08
  6.58859584E-07  7.10112794E-04 -4.70572737E-04 -4.70568127E-04 -4.44422319E-10
 -3.18964543E-08 -1.70764637E-10 -1.94827846E-04  1.38295807E-03 -5.90518975E-03
 -3.24769421E-04  7.74111645E-08 -3.40721328E-05 -1.94140404E-04  1.38334050E-03
 -5.90680860E-03 -3.25189058E-04  2.94452132E-05  1.71618695E-05 -1.94146820E-04
  1.38332973E-03 -5.90683605E-03 -3.25182606E-04 -2.95236878E-05  1.70274768E-05
 -2.39753516E-05 -1.61210824E-04 -1.03474884E-04  1.10843855E-08 -2.25692730E-07
  3.29939533E-03  2.16298536E-03 -8.89383939E-08  1.95880918E-06  4.60013526E-02
 -1.82058572E-02 -5.23610683E-07  7.91240021E-06  1.41736768E-04 -4.64924039E-05
 -4.64990303E-05 -7.48262798E-09  1.71965552E-07 -7.51145111E-11 -7.11357067E-07
  2.49581008E-05  3.89094935E-05  8.94761736E-09 -1.43574453E-07 -1.47908678E-03
  1.12747726E-03 -6.82379928E-08  1.25138958E-06 -9.23174156E-03  6.13102155E-03
  2.09808149E-07 -2.87472611E-06 -1.35790142E-04  2.35752183E-05  2.35762420E-05
  2.42777878E-09 -6.04585218E-08 -1.37099551E-11  6.26028434E-08  3.99706529E-07
  7.80282019E-08  6.21932773E-07 -8.26229505E-05 -1.80324470E-06 -3.80893618E-07
 -2.37030082E-06  3.14181466E-04  5.31981188E-06 -1.29467323E-05 -3.06453498E-06
  4.11071456E-04  2.43636713E-08 -8.52297009E-05  8.52290873E-05 -9.94501313E-07
  1.32150674E-04  6.72621115E-08  3.37924096E-09 -3.94564915E-08  9.95480672E-05
 -7.45886987E-03  9.90812696E-01 -2.60287079E-08  3.13577307E-06 -2.22888917E-04
  2.96080903E-02  7.99015680E-07 -1.42788788E-06  8.76338561E-05 -1.16417110E-02
 -1.45233778E-05 -3.08844442E-06 -3.91302231E-05  5.19969433E-03  5.54557080E-08
  4.89272515E-06 -5.02010709E-06 -2.35553856E-06  3.12959727E-04 -4.18774096E-09
  6.03672246E-05 -5.78442898E-04  4.70857556E-03  2.65053249E-04  2.60229182E-07
 -5.62063984E-05 -2.97415198E-05  2.88119580E-04 -2.33390073E-03 -1.31457831E-04
 -1.32104671E-05 -3.29186440E-05 -3.02930863E-05  2.93388589E-04 -2.37653906E-03
 -1.33865358E-04  1.38686221E-05 -3.29996139E-05 -8.65946362E-09 -3.63582204E-08
 -5.90331350E-08 -3.79552535E-07  5.04819646E-05 -1.89900718E-06 -1.61016266E-06
  1.49040166E-06 -1.98632288E-04  1.01154465E-05 -4.98665758E-06 -7.68117632E-06
  1.02662544E-03 -1.02572123E-07  3.38541282E-06 -3.34451372E-06  2.99286113E-08
 -4.05042868E-06 -2.21817186E-09 -6.09962606E-08 -2.37724897E-07  2.71120720E-08
  1.56216448E-07 -2.09794158E-05  2.69037523E-06 -1.30156704E-06 -9.52179214E-07
  1.27743933E-04 -1.10574077E-06  1.59649962E-06  2.96223970E-06 -3.98043677E-04
  1.69982030E-08  1.79377429E-06 -2.12059783E-06  1.07942211E-07 -1.43733312E-05
 -1.48792726E-09  9.77214474E-10  7.87119030E-09 -4.16607051E-09 -8.26744783E-05
 -6.22431084E-07 -4.34169158E-08  3.14254169E-08  3.13585986E-04  2.35554270E-06
 -4.61699519E-08  1.03686043E-07  4.10147540E-04  3.11764997E-06 -1.52287070E-09
 -6.02014806E-08  5.86969326E-08  1.32134938E-04  9.95048972E-07 -9.86493276E-05
 -1.00193280E-09  3.16050858E-09  2.27026520E-06  9.90812706E-01  7.45886905E-03
 -1.35111978E-09  7.10386163E-08  2.96080626E-02  2.22892162E-04  2.01506721E-08
 -5.95876556E-09 -1.16415449E-02 -8.76432325E-05  1.23644642E-07  3.18910096E-08
  5.19954895E-03  3.91555906E-05  5.32617815E-09  1.26571267E-09 -5.11983038E-09
  3.12988444E-04  2.35661897E-06  5.67562111E-06  3.13583250E-07 -3.02700461E-06
  2.48108501E-05  1.39065743E-06 -2.52026502E-05 -3.52189592E-07 -5.21507194E-05
  5.04017072E-04 -4.08837926E-03 -2.30422213E-04 -4.86315634E-05 -1.38387241E-05
  5.18391160E-05 -5.00937486E-04  4.06359624E-03  2.29021967E-04 -4.85487997E-05
  1.32686367E-05 -1.86764961E-10 -1.16060012E-09  2.03713171E-09  5.04718122E-05