RxCoord=2.69907 DE=47.18                                                
Freq      RB3LYP                                                      6-31++G(d,p)        
Number of atoms                            I                7
Info1-9                                    I   N=           9
          16          16           0           0           0         100
           6          18        -502
Full Title                                 C   N=           2
RxCoord=2.69907 DE=47.18
Route                                      C   N=           6
#p b3lyp 6-31++g(d,p) scf=verytight NoSymm freq=noraman int=
ultrafine   
Charge                                     I               -1
Multiplicity                               I                1
Number of electrons                        I               40
Number of alpha electrons                  I               20
Number of beta electrons                   I               20
Number of basis functions                  I               98
Number of independent functions            I               98
Number of point charges in /Mol/           I                0
Number of translation vectors              I                0
Atomic numbers                             I   N=           7
           6          17           1           1           1           6
           7
Nuclear charges                            R   N=           7
  6.00000000E+00  1.70000000E+01  1.00000000E+00  1.00000000E+00  1.00000000E+00
  6.00000000E+00  7.00000000E+00
Current cartesian coordinates              R   N=          21
 -6.24949437E-01 -7.55890450E-06  4.15739747E-05 -4.09572437E+00 -3.77945225E-06
  5.10226054E-05 -8.16739631E-03  4.45030502E-03 -1.95301872E+00 -9.04422923E-03
  1.68928854E+00  9.80835889E-01 -9.03478060E-03 -1.69376530E+00  9.73112578E-01
  4.59706493E+00  4.34637009E-05 -8.78722648E-04  6.82591753E+00 -1.70075351E-05
  5.25343863E-04
Number of symbols in /Mol/                 I                0
Force Field                                I                0
Atom Types                                 C   N=           7
                                                            
                        
Int Atom Types                             I   N=           7
           0           0           0           0           0           0
           0
MM charges                                 R   N=           7
  0.00000000E+00  0.00000000E+00  0.00000000E+00  0.00000000E+00  0.00000000E+00
  0.00000000E+00  0.00000000E+00
Integer atomic weights                     I   N=           7
          12          35           1           1           1          12
          14
Real atomic weights                        R   N=           7
  1.20000000E+01  3.49688527E+01  1.00782504E+00  1.00782504E+00  1.00782504E+00
  1.20000000E+01  1.40030740E+01
Atom fragment info                         I   N=           7
           0           0           0           0           0           0
           0
Atom residue num                           I   N=           7
           0           0           0           0           0           0
           0
Nuclear spins                              I   N=           7
           0           3           1           1           1           0
           2
Nuclear ZEff                               R   N=           7
 -3.60000000E+00 -1.42400000E+01 -1.00000000E+00 -1.00000000E+00 -1.00000000E+00
 -3.60000000E+00 -4.55000000E+00
Nuclear ZNuc                               R   N=           7
  6.00000000E+00  1.70000000E+01  1.00000000E+00  1.00000000E+00  1.00000000E+00
  6.00000000E+00  7.00000000E+00
Nuclear QMom                               R   N=           7
  0.00000000E+00 -8.16500000E+00  0.00000000E+00  0.00000000E+00  0.00000000E+00
  0.00000000E+00  2.04400000E+00
Nuclear GFac                               R   N=           7
  0.00000000E+00  8.21874000E-01  2.79284600E+00  2.79284600E+00  2.79284600E+00
  0.00000000E+00  4.03761000E-01
MicOpt                                     I   N=           7
          -1          -1          -1          -1          -1          -1
          -1
Number of residues                         I                0
Number of secondary structures             I                0
Number of contracted shells                I               33
Number of primitive shells                 I               72
Pure/Cartesian d shells                    I                1
Pure/Cartesian f shells                    I                0
Highest angular momentum                   I                2
Largest degree of contraction              I                6
Shell types                                I   N=          33
           0          -1          -1          -1           2           0
          -1          -1          -1          -1           2           0
           0           0           1           0           0           0
           1           0           0           0           1           0
          -1          -1          -1           2           0          -1
          -1          -1           2
Number of primitives per shell             I   N=          33
           6           3           1           1           1           6
           6           3           1           1           1           3
           1           1           1           3           1           1
           1           3           1           1           1           6
           3           1           1           1           6           3
           1           1           1
Shell to atom map                          I   N=          33
           1           1           1           1           1           2
           2           2           2           2           2           3
           3           3           3           4           4           4
           4           5           5           5           5           6
           6           6           6           6           7           7
           7           7           7
Primitive exponents                        R   N=          72
  3.04752488E+03  4.57369518E+02  1.03948685E+02  2.92101553E+01  9.28666296E+00
  3.16392696E+00  7.86827235E+00  1.88128854E+00  5.44249258E-01  1.68714478E-01
  4.38000000E-02  8.00000000E-01  2.51801000E+04  3.78035000E+03  8.60474000E+02
  2.42145000E+02  7.73349000E+01  2.62470000E+01  4.91765000E+02  1.16984000E+02
  3.74153000E+01  1.37834000E+01  5.45215000E+00  2.22588000E+00  3.18649000E+00
  1.14427000E+00  4.20377000E-01  1.42657000E-01  4.83000000E-02  7.50000000E-01
  1.87311370E+01  2.82539436E+00  6.40121692E-01  1.61277759E-01  3.60000000E-02
  1.10000000E+00  1.87311370E+01  2.82539436E+00  6.40121692E-01  1.61277759E-01
  3.60000000E-02  1.10000000E+00  1.87311370E+01  2.82539436E+00  6.40121692E-01
  1.61277759E-01  3.60000000E-02  1.10000000E+00  3.04752488E+03  4.57369518E+02
  1.03948685E+02  2.92101553E+01  9.28666296E+00  3.16392696E+00  7.86827235E+00
  1.88128854E+00  5.44249258E-01  1.68714478E-01  4.38000000E-02  8.00000000E-01
  4.17351146E+03  6.27457911E+02  1.42902093E+02  4.02343293E+01  1.28202129E+01
  4.39043701E+00  1.16263619E+01  2.71627981E+00  7.72218397E-01  2.12031498E-01
  6.39000000E-02  8.00000000E-01
Contraction coefficients                   R   N=          72
  1.83473713E-03  1.40373228E-02  6.88426223E-02  2.32184443E-01  4.67941348E-01
  3.62311985E-01 -1.19332420E-01 -1.60854152E-01  1.14345644E+00  1.00000000E+00
  1.00000000E+00  1.00000000E+00  1.83295985E-03  1.40341988E-02  6.90973943E-02
  2.37451980E-01  4.83033960E-01  3.39855972E-01 -2.29739142E-03 -3.07137189E-02
 -1.12528069E-01  4.50163278E-02  5.89353363E-01  4.65206287E-01 -2.51828028E-01
  6.15892514E-02  1.06018433E+00  1.00000000E+00  1.00000000E+00  1.00000000E+00
  3.34946043E-02  2.34726953E-01  8.13757326E-01  1.00000000E+00  1.00000000E+00
  1.00000000E+00  3.34946043E-02  2.34726953E-01  8.13757326E-01  1.00000000E+00
  1.00000000E+00  1.00000000E+00  3.34946043E-02  2.34726953E-01  8.13757326E-01
  1.00000000E+00  1.00000000E+00  1.00000000E+00  1.83473713E-03  1.40373228E-02
  6.88426223E-02  2.32184443E-01  4.67941348E-01  3.62311985E-01 -1.19332420E-01
 -1.60854152E-01  1.14345644E+00  1.00000000E+00  1.00000000E+00  1.00000000E+00
  1.83477216E-03  1.39946270E-02  6.85865518E-02  2.32240873E-01  4.69069948E-01
  3.60455199E-01 -1.14961182E-01 -1.69117479E-01  1.14585195E+00  1.00000000E+00
  1.00000000E+00  1.00000000E+00
P(S=P) Contraction coefficients            R   N=          72
  0.00000000E+00  0.00000000E+00  0.00000000E+00  0.00000000E+00  0.00000000E+00
  0.00000000E+00  6.89990666E-02  3.16423961E-01  7.44308291E-01  1.00000000E+00
  1.00000000E+00  0.00000000E+00  0.00000000E+00  0.00000000E+00  0.00000000E+00
  0.00000000E+00  0.00000000E+00  0.00000000E+00  3.98940088E-03  3.03177067E-02
  1.29880029E-01  3.27951072E-01  4.53527100E-01  2.52154056E-01 -1.42993147E-02
  3.23572333E-01  7.43507765E-01  1.00000000E+00  1.00000000E+00  0.00000000E+00
  0.00000000E+00  0.00000000E+00  0.00000000E+00  0.00000000E+00  0.00000000E+00
  0.00000000E+00  0.00000000E+00  0.00000000E+00  0.00000000E+00  0.00000000E+00
  0.00000000E+00  0.00000000E+00  0.00000000E+00  0.00000000E+00  0.00000000E+00
  0.00000000E+00  0.00000000E+00  0.00000000E+00  0.00000000E+00  0.00000000E+00
  0.00000000E+00  0.00000000E+00  0.00000000E+00  0.00000000E+00  6.89990666E-02
  3.16423961E-01  7.44308291E-01  1.00000000E+00  1.00000000E+00  0.00000000E+00
  0.00000000E+00  0.00000000E+00  0.00000000E+00  0.00000000E+00  0.00000000E+00
  0.00000000E+00  6.75797439E-02  3.23907296E-01  7.40895140E-01  1.00000000E+00
  1.00000000E+00  0.00000000E+00
Coordinates of each shell                  R   N=          99
 -6.24949437E-01 -7.55890450E-06  4.15739747E-05 -6.24949437E-01 -7.55890450E-06
  4.15739747E-05 -6.24949437E-01 -7.55890450E-06  4.15739747E-05 -6.24949437E-01
 -7.55890450E-06  4.15739747E-05 -6.24949437E-01 -7.55890450E-06  4.15739747E-05
 -4.09572437E+00 -3.77945225E-06  5.10226054E-05 -4.09572437E+00 -3.77945225E-06
  5.10226054E-05 -4.09572437E+00 -3.77945225E-06  5.10226054E-05 -4.09572437E+00
 -3.77945225E-06  5.10226054E-05 -4.09572437E+00 -3.77945225E-06  5.10226054E-05
 -4.09572437E+00 -3.77945225E-06  5.10226054E-05 -8.16739631E-03  4.45030502E-03
 -1.95301872E+00 -8.16739631E-03  4.45030502E-03 -1.95301872E+00 -8.16739631E-03
  4.45030502E-03 -1.95301872E+00 -8.16739631E-03  4.45030502E-03 -1.95301872E+00
 -9.04422923E-03  1.68928854E+00  9.80835889E-01 -9.04422923E-03  1.68928854E+00
  9.80835889E-01 -9.04422923E-03  1.68928854E+00  9.80835889E-01 -9.04422923E-03
  1.68928854E+00  9.80835889E-01 -9.03478060E-03 -1.69376530E+00  9.73112578E-01
 -9.03478060E-03 -1.69376530E+00  9.73112578E-01 -9.03478060E-03 -1.69376530E+00
  9.73112578E-01 -9.03478060E-03 -1.69376530E+00  9.73112578E-01  4.59706493E+00
  4.34637009E-05 -8.78722648E-04  4.59706493E+00  4.34637009E-05 -8.78722648E-04
  4.59706493E+00  4.34637009E-05 -8.78722648E-04  4.59706493E+00  4.34637009E-05
 -8.78722648E-04  4.59706493E+00  4.34637009E-05 -8.78722648E-04  6.82591753E+00
 -1.70075351E-05  5.25343863E-04  6.82591753E+00 -1.70075351E-05  5.25343863E-04
  6.82591753E+00 -1.70075351E-05  5.25343863E-04  6.82591753E+00 -1.70075351E-05
  5.25343863E-04  6.82591753E+00 -1.70075351E-05  5.25343863E-04
Num ILSW                                   I              100
ILSW                                       I   N=         100
           0           1           0           0           2           0
           0           0           0           0         402          -1
           5           0           0           0           2           0
           0           0           0           0           1           0
           1           1           0           0           0           0
           0           0      100000           0          -1           0
           0           0           0           0           0           0
           0           0           0           1           0           0
           0 -2000000000           1           0           0           0
           0           0           4          52           0           0
           0           0           5           0           0           0
           0           0           0           7           0           1
           0           0           0           0           0           0
           0           0           0           0           0           0
           0           0           0           0           0           0
           0           0           0           0           0           0
           0           0           0           0
Num RLSW                                   I               52
RLSW                                       R   N=          52
  8.00000000E-01  7.20000000E-01  1.00000000E+00  8.10000000E-01  2.00000000E-01
  0.00000000E+00  0.00000000E+00  1.00000000E+00  0.00000000E+00  0.00000000E+00
  0.00000000E+00  0.00000000E+00  1.00000000E+00  0.00000000E+00  0.00000000E+00
  0.00000000E+00  0.00000000E+00  1.00000000E+00  0.00000000E+00  0.00000000E+00
  0.00000000E+00  0.00000000E+00  1.00000000E+00  0.00000000E+00  0.00000000E+00
  0.00000000E+00  0.00000000E+00  1.00000000E+00  0.00000000E+00  0.00000000E+00
  0.00000000E+00  0.00000000E+00  1.00000000E+00  0.00000000E+00  0.00000000E+00
  0.00000000E+00  0.00000000E+00  0.00000000E+00  1.00000000E+00  1.00000000E+00
  0.00000000E+00  1.00000000E+00  0.00000000E+00  0.00000000E+00  0.00000000E+00
  0.00000000E+00  0.00000000E+00  0.00000000E+00  0.00000000E+00  0.00000000E+00
  0.00000000E+00  0.00000000E+00
MxBond                                     I                4
NBond                                      I   N=           7
           4           1           1           1           1           1
           1
IBond                                      I   N=          28
           2           3           4           5           1           0
           0           0           1           0           0           0
           1           0           0           0           1           0
           0           0           7           0           0           0
           6           0           0           0
RBond                                      R   N=          28
  1.00000000E+00  1.00000000E+00  1.00000000E+00  1.00000000E+00  1.00000000E+00
  0.00000000E+00  0.00000000E+00  0.00000000E+00  1.00000000E+00  0.00000000E+00
  0.00000000E+00  0.00000000E+00  1.00000000E+00  0.00000000E+00  0.00000000E+00
  0.00000000E+00  1.00000000E+00  0.00000000E+00  0.00000000E+00  0.00000000E+00
  2.00000000E+00  0.00000000E+00  0.00000000E+00  0.00000000E+00  2.00000000E+00
  0.00000000E+00  0.00000000E+00  0.00000000E+00
Virial Ratio                               R      2.004497426528193E+00
SCF Energy                                 R     -5.929933618130502E+02
Total Energy                               R     -5.929933618130502E+02
RMS Force                                  R      3.484273497735988E-03
RMS Density                                R      2.114013798582484E-09
NImag                                      I                2
Job Status                                 I                1
Nuclear derivative order                   I                2
External E-field                           R   N=          35
  0.00000000E+00  0.00000000E+00  0.00000000E+00  0.00000000E+00  0.00000000E+00
  0.00000000E+00  0.00000000E+00  0.00000000E+00  0.00000000E+00  0.00000000E+00
  0.00000000E+00  0.00000000E+00  0.00000000E+00  0.00000000E+00  0.00000000E+00
  0.00000000E+00  0.00000000E+00  0.00000000E+00  0.00000000E+00  0.00000000E+00
  0.00000000E+00  0.00000000E+00  0.00000000E+00  0.00000000E+00  0.00000000E+00
  0.00000000E+00  0.00000000E+00  0.00000000E+00  0.00000000E+00  0.00000000E+00
  0.00000000E+00  0.00000000E+00  0.00000000E+00  0.00000000E+00  0.00000000E+00
IOpCl                                      I                0
IROHF                                      I                0
Alpha Orbital Energies                     R   N=          98
 -1.01405292E+02 -1.40958631E+01 -1.00967591E+01 -9.96037664E+00 -9.32160037E+00
 -7.08448117E+00 -7.07630805E+00 -7.07630783E+00 -7.10727727E-01 -6.49412153E-01
 -5.36086219E-01 -3.03916662E-01 -3.03907270E-01 -2.72936413E-01 -1.83310015E-01
 -1.71551635E-01 -1.71543380E-01 -9.84067382E-02 -9.84064823E-02 -6.98236562E-02
  1.10537353E-01  1.30349514E-01  1.46157681E-01  1.46159374E-01  1.72930055E-01
  2.04733946E-01  2.04736137E-01  2.05977982E-01  2.21553331E-01  2.21602218E-01
  2.43566915E-01  2.50658813E-01  2.50673214E-01  2.71821889E-01  2.74724484E-01
  2.74746413E-01  3.14997519E-01  3.38114213E-01  3.38154927E-01  3.63165400E-01
  3.86091556E-01  3.86491020E-01  3.86521526E-01  4.66897218E-01  4.82514052E-01
  6.61392929E-01  7.37891959E-01  7.47571381E-01  7.47571549E-01  7.76993339E-01
  7.77003727E-01  8.84963747E-01  8.96800689E-01  8.96814437E-01  9.83715200E-01
  9.98176110E-01  9.98203166E-01  1.04859699E+00  1.04864382E+00  1.08636210E+00
  1.09881923E+00  1.09887821E+00  1.12541628E+00  1.19090126E+00  1.19091488E+00
  1.26284969E+00  1.26981310E+00  1.36700225E+00  1.48083595E+00  1.60697174E+00
  1.60702749E+00  1.78047876E+00  1.78048085E+00  1.78074592E+00  1.80352051E+00
  1.80352870E+00  2.15966820E+00  2.20090453E+00  2.20091048E+00  2.22184406E+00
  2.22190108E+00  2.29083233E+00  2.49717110E+00  2.49727854E+00  2.66708260E+00
  2.83403176E+00  2.83404068E+00  2.84446067E+00  2.96072244E+00  2.96077956E+00
  3.26285933E+00  3.39221342E+00  3.56127076E+00  3.56127949E+00  4.21524941E+00
  4.42169437E+00  4.46135502E+00  4.57380760E+00
Alpha MO coefficients                      R   N=        9604
 -6.16453039E-06  2.37528308E-05 -5.09212718E-05  1.57501882E-10 -5.57959539E-09
  1.06808306E-04 -4.83975437E-05  4.83529959E-10  1.87689546E-08 -3.81215306E-05
 -1.26191211E-04 -1.53940269E-09  7.65733058E-09 -1.60677730E-05  1.30502271E-05
  1.30653462E-05 -6.03412844E-11 -6.89327574E-09  4.88421807E-11  9.95996884E-01
  1.51509446E-02  3.90260365E-05 -1.15742588E-10 -2.59790862E-09 -2.10642238E-02
 -1.77962575E-05 -3.64489028E-11  9.85133144E-10  1.88000879E-03 -5.47182545E-05
  2.26192128E-10 -4.11433190E-09 -4.52377678E-04 -3.07829217E-05  3.29864194E-10
 -3.87341319E-09  7.50149170E-03  7.52509821E-03  7.52509819E-03  4.14026273E-11
 -2.20720414E-09  9.36828264E-12 -2.60218317E-05 -2.90131776E-05  4.14806452E-05
  2.36870168E-05  2.72535690E-08 -1.19662352E-05 -2.60488648E-05 -2.89789812E-05
  4.14618367E-05  2.36611532E-05  1.03468048E-05  6.00364043E-06 -2.60486980E-05
 -2.89773763E-05  4.14584463E-05  2.36616776E-05 -1.03739793E-05  5.95618930E-06
 -8.00812192E-07  1.01725314E-06  8.47192429E-07  3.81745593E-10 -7.99988913E-09
 -1.23409178E-04 -1.09226392E-04  1.43789951E-09 -3.72319628E-08  2.62547932E-05
 -1.01108396E-04 -1.61273167E-09  2.83967329E-08 -1.23349561E-05  2.38945794E-09
  2.93815598E-09  4.34727273E-10 -9.44724012E-09  3.55701547E-12 -2.35353654E-06
 -9.32767517E-06 -1.28273504E-06 -1.01765540E-11 -1.71256819E-11  1.37089698E-04
 -7.19173505E-05  2.24495646E-09 -5.11608703E-08  9.89445582E-05  1.54202130E-05
  2.22467732E-09 -4.58085663E-08  3.98480119E-06 -6.84868247E-06 -6.84876928E-06
 -4.85704829E-10  1.10330829E-08 -2.09641495E-12  3.12723443E-06  1.71223739E-05
 -2.43722089E-06  2.26729515E-10 -6.76820147E-09 -2.71987840E-05 -2.15888156E-05
 -3.71694130E-10  3.38732273E-08  1.16771327E-03  8.04760861E-05  1.03495534E-08
 -2.06037572E-07 -4.15390640E-06  8.35001143E-06  8.34685719E-06 -1.11796119E-10
  2.09835360E-10  1.30067206E-11  1.11287939E-07  2.13304325E-06 -3.27686274E-07
  3.15089642E-11 -4.55997285E-10  4.56813493E-06  2.01817736E-06 -1.81516158E-10
  2.70135092E-09 -5.23190343E-05 -2.39705506E-05  7.08186106E-10 -1.38481871E-08
 -2.11852239E-04 -8.73280707E-05 -5.73916195E-09  1.31205513E-07  4.19135029E-06
  3.96770580E-06  3.96697966E-06 -4.40953990E-11  1.01727713E-09  5.72232372E-12
  8.06475899E-06 -5.48014764E-05 -1.85444455E-04 -8.61536868E-07  8.53495283E-09
 -3.74377279E-06  8.06125999E-06 -5.47873265E-05 -1.85645793E-04 -8.43201680E-07
  3.23297914E-06  1.87605036E-06  8.06080098E-06 -5.47844948E-05 -1.85660840E-04
 -8.42625131E-07 -3.24120323E-06  1.86107984E-06  8.39579395E-05  2.07139742E-04
 -2.85132865E-04  7.50895042E-09 -1.73897315E-07 -2.51833172E-04 -4.24866623E-04
  1.28196975E-08 -2.98448105E-07  1.45206004E-03  1.03521041E-03 -2.66118206E-08
  5.89732001E-07 -7.61065100E-04 -1.29073416E-05 -1.29069804E-05  2.34961026E-08
 -5.45069323E-07  1.52410829E-11  9.92697221E-01  3.44472657E-02 -1.40240253E-03
  3.79293346E-08 -8.80908159E-07  5.22346555E-03  1.07318093E-04 -3.00591176E-09
  6.87856068E-08 -3.02639016E-03  5.62816955E-05 -2.71051759E-09  7.66755159E-08
 -7.70685966E-03 -8.42523562E-03 -8.42523572E-03 -2.23888119E-08  5.19864488E-07
 -2.28023681E-11  9.92995963E-01  4.96378274E-02 -6.87191908E-04 -8.90467514E-09
  3.63381544E-07 -1.65098484E-02  7.66493461E-04 -4.10476322E-10 -1.17090517E-06
  6.34268905E-03 -2.63666060E-03  3.61168291E-09 -4.85801033E-07 -9.28103061E-03
 -8.85196700E-03 -8.85192635E-03 -1.78093075E-09 -7.89098763E-08 -5.19982159E-10
 -8.90534833E-06 -4.80328941E-05 -2.71760332E-06 -7.45820236E-11 -1.07310436E-08
 -1.85061918E-05  1.84671793E-04  3.06397698E-10  6.50767765E-08  3.09855387E-03
  1.81474152E-03 -4.78172137E-09 -1.15920863E-07 -4.93643142E-03 -1.69868220E-03
  4.44147137E-09  2.07027303E-07 -1.26157989E-04 -1.70196128E-04 -1.70162188E-04
 -5.08610309E-10 -8.68875346E-09 -3.50419875E-10 -1.49135355E-04  3.03338113E-03
 -8.76005224E-04  3.38637730E-05  2.23745001E-07 -9.75850395E-05 -1.49109566E-04
  3.03446211E-03 -8.76046868E-04  3.39304744E-05  8.44710131E-05  4.90975753E-05
 -1.49114909E-04  3.03446006E-03 -8.76036780E-04  3.39324668E-05 -8.46978799E-05
  4.87145649E-05 -1.71160930E-05 -7.42520642E-05  4.37716221E-05  1.98019327E-09
 -9.48293353E-08 -4.58993808E-04 -9.44513244E-04  5.43218524E-09  7.35475810E-08
  1.25331814E-03  8.48721011E-04  5.86417936E-10  4.29378617E-07 -1.37510232E-05
 -3.73903626E-05 -3.74199544E-05  3.31444763E-09 -8.66976785E-08 -2.00819742E-10
 -3.29779982E-05 -1.25579387E-04  3.47192082E-07 -3.09397218E-09  7.97370586E-08
  1.28613590E-03 -3.86757423E-04  2.41985298E-08 -6.09514651E-07 -9.58225789E-04
 -2.66376218E-04 -2.03550055E-08  1.52670273E-07 -3.72000967E-05 -7.78187705E-05
 -7.78155064E-05 -1.23463666E-09  4.64736149E-08  3.14324320E-11 -2.13034997E-05
 -1.03289177E-04 -9.80215970E-05  5.56008232E-10 -3.07389503E-08  4.53004097E-04
  6.30774797E-04 -6.57636917E-09  3.71414500E-07 -2.26817244E-03  4.73949618E-03
  1.00195783E-08 -2.41035747E-07 -7.19888612E-06 -3.12498250E-05 -3.12631756E-05
  7.93324692E-11  1.55297038E-08 -3.42879528E-10  1.54980448E-07  6.60866313E-06
  4.52755245E-06 -1.45475745E-11  2.00993272E-09  1.51181438E-05 -3.04888115E-05
  2.86768831E-11 -1.06765207E-08 -1.44072966E-04  3.66721452E-04  8.63069303E-10
 -1.03362620E-08  6.03642368E-03  1.42235863E-03 -7.34429431E-09  3.79275608E-08
  4.88123067E-05 -2.01896653E-06 -2.02523888E-06  5.83361893E-11 -4.97102225E-09
  4.10146789E-11 -3.83313623E-05 -4.71638922E-04 -5.79131805E-05 -3.27295370E-05
  2.94663103E-08 -1.26785610E-05 -3.83211144E-05 -4.72103269E-04 -5.68833729E-05
 -3.28539829E-05  1.10324780E-05  6.37759358E-06 -3.83225836E-05 -4.72112774E-04
 -5.68531163E-05 -3.28560108E-05 -1.10625425E-05  6.32836664E-06  9.92839784E-01
  4.93439237E-02  1.88641648E-03 -5.60255865E-08  1.29479195E-06 -1.09572483E-02
 -7.63948430E-04  4.13614699E-08 -9.51637052E-07 -7.39797198E-03 -2.98294628E-04
  9.34276297E-08 -2.06593289E-06 -8.45398657E-03 -9.71156287E-03 -9.71155413E-03
 -3.95715443E-08  9.22844546E-07  3.56570667E-11 -4.91559432E-04  4.81681918E-05
  4.40443422E-04 -1.15186960E-08  2.65215692E-07 -1.11242603E-03  5.43921426E-04
 -1.93015661E-08  4.53450781E-07  8.96869462E-03 -3.34287363E-03  5.85288787E-08
 -1.40157904E-06 -2.76729363E-04  1.72700882E-04  1.72700558E-04  1.55256698E-08
 -3.59398285E-07  1.22478116E-11 -1.05615114E-04  1.33141102E-04  3.55707102E-04
  4.98728943E-10 -4.45315818E-08  2.93664984E-03 -1.53028135E-03 -1.83003556E-08
  1.51430086E-07 -3.72798283E-02  3.79001600E-02  7.70777444E-08 -1.50967845E-06
 -7.54113360E-04 -1.20873778E-04 -1.20782069E-04  5.01269084E-10  3.09896431E-08
 -2.26399099E-09 -2.84604159E-01  1.02274547E+00  4.75515061E-03 -1.67186627E-08
 -2.61307332E-07  7.60569765E-02  5.86663219E-04  2.08259457E-10 -2.25387587E-08
 -2.65923881E-02 -1.65815524E-03  7.37907825E-10  9.37189700E-08  6.51324614E-02
  1.79731902E-02 -5.31004250E-08  3.62153262E-07 -1.51953906E-02 -1.55744795E-02
 -1.55744784E-02 -1.03742037E-09  6.03658691E-09 -9.32869254E-11 -3.97507588E-05
 -7.69820459E-04  1.19746756E-03 -7.14692860E-05 -2.18267418E-08  1.01052008E-05
 -3.96676685E-05 -7.69923898E-04  1.19749242E-03 -7.17768339E-05 -8.70270450E-06
 -5.07366190E-06 -3.96676214E-05 -7.69963928E-04  1.19759829E-03 -7.17739067E-05
  8.72371009E-06 -5.03125357E-06  1.67275729E-05  7.45955031E-05  4.58472714E-05
 -1.19325612E-08  2.81780817E-07  1.86377362E-04  5.17480231E-04  2.76069872E-08
 -6.86702912E-07 -2.18715670E-02  1.11624325E-02  3.43332904E-07 -6.20577823E-06
  8.85584930E-05  1.07397777E-05  1.07469610E-05 -2.63354708E-09  5.73189633E-08
  2.97688720E-11  1.05188152E-05  5.64860253E-05 -1.82609511E-05 -6.36361717E-09
  1.16701377E-07 -7.26720240E-04  5.47445722E-04  1.23350839E-08 -1.28827682E-07
  1.05681818E-03 -2.97602297E-03 -1.85429493E-07  3.48133012E-06 -4.74550554E-05
  2.81834231E-05  2.81821159E-05  5.11106731E-09 -1.21865691E-07  4.42947052E-11
  6.36841945E-05  1.54793599E-03  3.24536387E-04 -3.80141451E-09  9.89180599E-08
 -5.52618561E-04  1.76448779E-03  9.51404715E-09 -1.47715229E-06  4.75181126E-02
 -5.75463794E-02 -1.10476147E-07  3.64981884E-06 -1.94212530E-03  1.96458054E-04
  1.96786282E-04  4.41176478E-09  3.19531475E-08 -1.84437941E-09  1.40121296E-03
 -5.35485051E-03  9.90327584E-01 -2.44477677E-06 -5.93443532E-05 -4.26891989E-04
  3.15005580E-02 -7.57728315E-08 -1.72346957E-06  5.34755341E-03 -1.29350587E-02
  2.79192348E-08  6.59291252E-07 -7.54918815E-02 -1.49746548E-02  7.39723684E-08
 -8.09656779E-07  7.24004444E-04 -4.72586249E-04 -4.72577776E-04 -1.81452307E-09
  3.50761598E-08 -1.15276891E-10 -1.90483639E-04  1.38148679E-03 -5.87269381E-03
 -3.24864059E-04  7.52442731E-08 -3.31082187E-05 -1.89653301E-04  1.38213107E-03
 -5.87421027E-03 -3.25358666E-04  2.85734750E-05  1.66662611E-05 -1.89657344E-04
  1.38213140E-03 -5.87424228E-03 -3.25353980E-04 -2.86489569E-05  1.65350582E-05
 -2.37354631E-05 -1.61006006E-04 -1.02713882E-04  1.31837895E-08 -2.91521593E-07
  3.23257178E-03  2.10860593E-03 -1.00498826E-07  2.31222115E-06  4.51034164E-02
 -1.79444265E-02 -6.26750529E-07  1.16828749E-05  1.42559097E-04 -4.58676630E-05
 -4.58754339E-05 -7.81538949E-09  1.79370145E-07 -9.50967889E-11 -1.65441582E-06
  2.05979704E-05  3.90472756E-05  1.03813173E-08 -1.97712541E-07 -1.41908147E-03
  1.10041209E-03 -7.70282756E-08  1.58199051E-06 -9.11376004E-03  6.08365196E-03
  2.59207873E-07 -4.69350286E-06 -1.36098379E-04  2.16081629E-05  2.16101603E-05
  2.28490094E-09 -5.70460451E-08 -2.32670565E-11  7.61240454E-08  4.80001424E-07
  1.26502672E-07  6.77187111E-07 -8.32871491E-05 -2.18772031E-06 -6.65349070E-07
 -2.55894360E-06  3.14666617E-04  7.18750349E-06 -1.80096177E-05 -3.36089330E-06
  4.16438776E-04  2.72777870E-08 -8.51996672E-05  8.52087986E-05 -1.11391283E-06
  1.37008222E-04  1.25950565E-07  1.23733399E-08 -8.22283778E-08  5.92742356E-05
 -8.05507046E-03  9.90808006E-01 -3.74217411E-08  1.97175693E-06 -2.40705457E-04
  2.96080012E-02  1.03891098E-06 -1.13632159E-06  9.46422862E-05 -1.16421359E-02
 -2.02964978E-05 -4.65889681E-06 -4.22523289E-05  5.19913899E-03  9.64621114E-09
  4.89350187E-06 -5.01714352E-06 -2.56728891E-06  3.15818623E-04 -8.07330175E-09
  6.01923592E-05 -5.77747723E-04  4.71387479E-03  2.66122518E-04  2.72029304E-07
 -5.48291572E-05 -2.95842995E-05  2.87939049E-04 -2.33430678E-03 -1.31861046E-04
 -1.26410321E-05 -3.25611859E-05 -3.01939769E-05  2.93809156E-04 -2.38187250E-03
 -1.34555796E-04  1.33447943E-05 -3.26544966E-05 -1.40419368E-08 -5.43057143E-08
 -7.30228351E-08 -4.03799501E-07  4.97304131E-05 -2.67893947E-06 -2.31746520E-06
  1.58111567E-06 -1.95164561E-04  1.38815981E-05 -7.22094452E-06 -8.27514558E-06
  1.02483413E-03 -1.53595791E-07  3.42132409E-06 -3.37280870E-06  3.42935791E-08
 -4.29592198E-06 -4.52789348E-09 -8.47855166E-08 -3.32437932E-07  3.36387303E-08
  1.66942488E-07 -2.07839292E-05  3.78612962E-06 -1.82987641E-06 -1.01829146E-06
  1.26623934E-04 -1.27118681E-06  2.31338802E-06  3.21430450E-06 -4.00374280E-04
  2.36638675E-08  1.70457827E-06 -2.15349869E-06  1.14467462E-07 -1.41154719E-05
 -2.78521012E-09  7.39412334E-10  6.76742563E-09 -5.24900959E-09 -8.33515644E-05
 -6.77552480E-07 -3.29190807E-08  3.84986086E-08  3.13960032E-04  2.55166364E-06
 -1.03166930E-08  1.41921676E-07  4.15061740E-04  3.39908235E-06 -1.92464798E-09
 -1.10211639E-07  1.08803921E-07  1.37000112E-04  1.11371949E-06 -9.86522090E-05
 -1.14603050E-09  3.77131972E-09  2.92718602E-06  9.90808017E-01  8.05506976E-03
 -1.26876371E-09  9.05439406E-08  2.96079536E-02  2.40708362E-04  1.89649635E-08
 -1.19583123E-08 -1.16418853E-02 -9.46521282E-05  1.51794450E-07  3.95906996E-08
  5.19886104E-03  4.22812891E-05  6.05824434E-09  3.61306234E-09 -7.77933156E-09
  3.15851164E-04  2.56805931E-06  5.70549562E-06  3.48942950E-07 -3.37957331E-06
  2.76468268E-05  1.55459640E-06 -2.51702921E-05 -3.78474755E-07 -5.19620852E-05
  5.04000461E-04 -4.09330183E-03 -2.31453773E-04 -4.76388580E-05 -1.33195407E-05
  5.16136850E-05 -5.00596111E-04  4.06565944E-03  2.29888789E-04 -4.75457849E-05
  1.27194045E-05 -8.06937908E-11 -8.75647397E-10  2.08305916E-09  4.97110999E-05