 Entering Gaussian System, Link 0=g16
 Initial command:
 /usr/local/g16_AVX//g16/l1.exe "/scratch/alanqf/0129-54571.ixchel.mda.cinvestav.mx/Gau-25953.inp" -scrdir="/scratch/alanqf/0129-54571.ixchel.mda.cinvestav.mx/"
 Entering Link 1 = /usr/local/g16_AVX//g16/l1.exe PID=     25954.
  
 Copyright (c) 1988-2017, Gaussian, Inc.  All Rights Reserved.
  
 This is part of the Gaussian(R) 16 program.  It is based on
 the Gaussian(R) 09 system (copyright 2009, Gaussian, Inc.),
 the Gaussian(R) 03 system (copyright 2003, Gaussian, Inc.),
 the Gaussian(R) 98 system (copyright 1998, Gaussian, Inc.),
 the Gaussian(R) 94 system (copyright 1995, Gaussian, Inc.),
 the Gaussian 92(TM) system (copyright 1992, Gaussian, Inc.),
 the Gaussian 90(TM) system (copyright 1990, Gaussian, Inc.),
 the Gaussian 88(TM) system (copyright 1988, Gaussian, Inc.),
 the Gaussian 86(TM) system (copyright 1986, Carnegie Mellon
 University), and the Gaussian 82(TM) system (copyright 1983,
 Carnegie Mellon University). Gaussian is a federally registered
 trademark of Gaussian, Inc.
  
 This software contains proprietary and confidential information,
 including trade secrets, belonging to Gaussian, Inc.
  
 This software is provided under written license and may be
 used, copied, transmitted, or stored only in accord with that
 written license.
  
 The following legend is applicable only to US Government
 contracts under FAR:
  
                    RESTRICTED RIGHTS LEGEND
  
 Use, reproduction and disclosure by the US Government is
 subject to restrictions as set forth in subparagraphs (a)
 and (c) of the Commercial Computer Software - Restricted
 Rights clause in FAR 52.227-19.
  
 Gaussian, Inc.
 340 Quinnipiac St., Bldg. 40, Wallingford CT 06492
  
  
 ---------------------------------------------------------------
 Warning -- This program may not be used in any manner that
 competes with the business of Gaussian, Inc. or will provide
 assistance to any competitor of Gaussian, Inc.  The licensee
 of this program is prohibited from giving any competitor of
 Gaussian, Inc. access to this program.  By using this program,
 the user acknowledges that Gaussian, Inc. is engaged in the
 business of creating and licensing software in the field of
 computational chemistry and represents and warrants to the
 licensee that it is not a competitor of Gaussian, Inc. and that
 it will not use this program in any manner prohibited above.
 ---------------------------------------------------------------
  

 Cite this work as:
 Gaussian 16, Revision B.01,
 M. J. Frisch, G. W. Trucks, H. B. Schlegel, G. E. Scuseria, 
 M. A. Robb, J. R. Cheeseman, G. Scalmani, V. Barone, 
 G. A. Petersson, H. Nakatsuji, X. Li, M. Caricato, A. V. Marenich, 
 J. Bloino, B. G. Janesko, R. Gomperts, B. Mennucci, H. P. Hratchian, 
 J. V. Ortiz, A. F. Izmaylov, J. L. Sonnenberg, D. Williams-Young, 
 F. Ding, F. Lipparini, F. Egidi, J. Goings, B. Peng, A. Petrone, 
 T. Henderson, D. Ranasinghe, V. G. Zakrzewski, J. Gao, N. Rega, 
 G. Zheng, W. Liang, M. Hada, M. Ehara, K. Toyota, R. Fukuda, 
 J. Hasegawa, M. Ishida, T. Nakajima, Y. Honda, O. Kitao, H. Nakai, 
 T. Vreven, K. Throssell, J. A. Montgomery, Jr., J. E. Peralta, 
 F. Ogliaro, M. J. Bearpark, J. J. Heyd, E. N. Brothers, K. N. Kudin, 
 V. N. Staroverov, T. A. Keith, R. Kobayashi, J. Normand, 
 K. Raghavachari, A. P. Rendell, J. C. Burant, S. S. Iyengar, 
 J. Tomasi, M. Cossi, J. M. Millam, M. Klene, C. Adamo, R. Cammi, 
 J. W. Ochterski, R. L. Martin, K. Morokuma, O. Farkas, 
 J. B. Foresman, and D. J. Fox, Gaussian, Inc., Wallingford CT, 2016.
 
 ******************************************
 Gaussian 16:  ES64L-G16RevB.01 20-Dec-2017
                13-Oct-2024 
 ******************************************
 %NProcShared=26
 Will use up to   26 processors via shared memory.
 %MEM=20GB
 %chk=CHKfiles/0129.chk
 ---------------------------------------------------------------------
 #p b3lyp 6-31++g(d,p) scf=verytight NoSymm freq=noraman int=ultrafine
 ---------------------------------------------------------------------
 1/10=4,30=1,38=1/1,3;
 2/12=2,15=1,17=6,18=5,40=1/2;
 3/5=1,6=6,7=1111,11=2,25=1,30=1,71=2,74=-5,75=-5,140=1/1,2,3;
 4//1;
 5/5=2,17=3,38=5,98=1/2;
 8/6=4,10=90,11=11/1;
 11/6=1,8=1,9=11,15=111,16=1,31=1/1,2,10;
 10/6=1,31=1/2;
 6/7=2,8=2,9=2,10=2,28=1/1;
 7/8=1,10=1,25=1,30=1/1,2,3,16;
 1/10=4,30=1/3;
 99//99;
 Leave Link    1 at Sun Oct 13 09:51:40 2024, MaxMem=  2684354560 cpu:               1.2 elap:               0.1
 (Enter /usr/local/g16_AVX//g16/l101.exe)
 ------------------------
 RxCoord=2.79903 DE=47.02
 ------------------------
 Symbolic Z-matrix:
 Charge = -1 Multiplicity = 1
 C                    -0.33671  -0.00001   0.00012 
 Cl                   -2.17109  0.         0.00001 
 H                    -0.00903   0.00236  -1.0331 
 H                    -0.00963   0.8937    0.51905 
 H                    -0.00962  -0.89608   0.51495 
 C                     2.44095   0.00003  -0.00057 
 N                     3.62051  -0.00001   0.00029 
 
 ITRead=  0  0  0  0  0  0  0
 MicOpt= -1 -1 -1 -1 -1 -1 -1
 NAtoms=      7 NQM=        7 NQMF=       0 NMMI=      0 NMMIF=      0
                NMic=       0 NMicF=      0.
                    Isotopes and Nuclear Properties:
 (Nuclear quadrupole moments (NQMom) in fm**2, nuclear magnetic moments (NMagM)
  in nuclear magnetons)

  Atom         1           2           3           4           5           6           7
 IAtWgt=          12          35           1           1           1          12          14
 AtmWgt=  12.0000000  34.9688527   1.0078250   1.0078250   1.0078250  12.0000000  14.0030740
 NucSpn=           0           3           1           1           1           0           2
 AtZEff=  -0.0000000  -0.0000000  -0.0000000  -0.0000000  -0.0000000  -0.0000000  -0.0000000
 NQMom=    0.0000000  -8.1650000   0.0000000   0.0000000   0.0000000   0.0000000   2.0440000
 NMagM=    0.0000000   0.8218740   2.7928460   2.7928460   2.7928460   0.0000000   0.4037610
 AtZNuc=   6.0000000  17.0000000   1.0000000   1.0000000   1.0000000   6.0000000   7.0000000
 Leave Link  101 at Sun Oct 13 09:51:40 2024, MaxMem=  2684354560 cpu:               2.9 elap:               0.1
 (Enter /usr/local/g16_AVX//g16/l103.exe)

 GradGradGradGradGradGradGradGradGradGradGradGradGradGradGradGradGradGrad
 Berny optimization.
 Initialization pass.
 Trust Radius=3.00D-01 FncErr=1.00D-07 GrdErr=1.00D-07 EigMax=2.50D+02 EigMin=1.00D-04
 Number of steps in this run=      2 maximum allowed number of steps=      2.
 GradGradGradGradGradGradGradGradGradGradGradGradGradGradGradGradGradGrad

 Leave Link  103 at Sun Oct 13 09:51:40 2024, MaxMem=  2684354560 cpu:               0.5 elap:               0.0
 (Enter /usr/local/g16_AVX//g16/l202.exe)
                          Input orientation:                          
 ---------------------------------------------------------------------
 Center     Atomic      Atomic             Coordinates (Angstroms)
 Number     Number       Type             X           Y           Z
 ---------------------------------------------------------------------
      1          6           0       -0.336709   -0.000006    0.000122
      2         17           0       -2.171094   -0.000003    0.000014
      3          1           0       -0.009028    0.002361   -1.033099
      4          1           0       -0.009626    0.893704    0.519046
      5          1           0       -0.009621   -0.896082    0.514951
      6          6           0        2.440946    0.000026   -0.000573
      7          7           0        3.620513   -0.000009    0.000287
 ---------------------------------------------------------------------
                    Distance matrix (angstroms):
                    1          2          3          4          5
     1  C    0.000000
     2  Cl   1.834385   0.000000
     3  H    1.083940   2.396217   0.000000
     4  H    1.083966   2.395840   1.789873   0.000000
     5  H    1.083968   2.395847   1.789877   1.789791   0.000000
     6  C    2.777655   4.612040   2.658663   2.659693   2.659709
     7  N    3.957222   5.791607   3.773786   3.774353   3.774347
                    6          7
     6  C    0.000000
     7  N    1.179567   0.000000
 Symmetry turned off by external request.
 This structure is nearly, but not quite of a higher symmetry.
 Consider Symm=Loose if the higher symmetry is desired.
 Stoichiometry    C2H3ClN(1-)
 Framework group  C1[X(C2H3ClN)]
 Deg. of freedom    15
 Full point group                 C1      NOp   1
 Rotational constants (GHZ):         156.5307073           1.1951496           1.1951490
 Leave Link  202 at Sun Oct 13 09:51:41 2024, MaxMem=  2684354560 cpu:               0.2 elap:               0.0
 (Enter /usr/local/g16_AVX//g16/l301.exe)
 Standard basis: 6-31++G(d,p) (6D, 7F)
 Ernie: Thresh=  0.10000D-02 Tol=  0.10000D-05 Strict=F.
    98 basis functions,   176 primitive gaussians,    98 cartesian basis functions
    20 alpha electrons       20 beta electrons
       nuclear repulsion energy       110.7823042859 Hartrees.
 IExCor=  402 DFT=T Ex+Corr=B3LYP ExCW=0 ScaHFX=  0.200000
 ScaDFX=  0.800000  0.720000  1.000000  0.810000 ScalE2=  1.000000  1.000000
 IRadAn=      5 IRanWt=     -1 IRanGd=            0 ICorTp=0 IEmpDi=  4
 NAtoms=    7 NActive=    7 NUniq=    7 SFac= 1.00D+00 NAtFMM=   60 NAOKFM=F Big=F
 Integral buffers will be    131072 words long.
 Raffenetti 2 integral format.
 Two-electron integral symmetry is turned off.
 Leave Link  301 at Sun Oct 13 09:51:41 2024, MaxMem=  2684354560 cpu:               1.3 elap:               0.1
 (Enter /usr/local/g16_AVX//g16/l302.exe)
 NPDir=0 NMtPBC=     1 NCelOv=     1 NCel=       1 NClECP=     1 NCelD=      1
         NCelK=      1 NCelE2=     1 NClLst=     1 CellRange=     0.0.
 One-electron integrals computed using PRISM.
 NBasis=    98 RedAO= T EigKep=  1.25D-04  NBF=    98
 NBsUse=    98 1.00D-06 EigRej= -1.00D+00 NBFU=    98
 Precomputing XC quadrature grid using
 IXCGrd= 4 IRadAn=           5 IRanWt=          -1 IRanGd=           0 AccXCQ= 0.00D+00.
 Generated NRdTot=       0 NPtTot=           0 NUsed=           0 NTot=          32
 NSgBfM=    98    98    98    98    98 MxSgAt=     7 MxSgA2=     7.
 Leave Link  302 at Sun Oct 13 09:51:41 2024, MaxMem=  2684354560 cpu:               4.0 elap:               0.2
 (Enter /usr/local/g16_AVX//g16/l303.exe)
 DipDrv:  MaxL=1.
 Leave Link  303 at Sun Oct 13 09:51:41 2024, MaxMem=  2684354560 cpu:               0.7 elap:               0.1
 (Enter /usr/local/g16_AVX//g16/l401.exe)
 ExpMin= 3.60D-02 ExpMax= 2.52D+04 ExpMxC= 3.78D+03 IAcc=3 IRadAn=         5 AccDes= 0.00D+00
 Harris functional with IExCor=  402 and IRadAn=       5 diagonalized for initial guess.
 HarFok:  IExCor=  402 AccDes= 0.00D+00 IRadAn=         5 IDoV= 1 UseB2=F ITyADJ=14
 ICtDFT=  3500011 ScaDFX=  1.000000  1.000000  1.000000  1.000000
 FoFCou: FMM=F IPFlag=           0 FMFlag=      100000 FMFlg1=           0
         NFxFlg=           0 DoJE=T BraDBF=F KetDBF=T FulRan=T
         wScrn=  0.000000 ICntrl=       500 IOpCl=  0 I1Cent=   200000004 NGrid=           0
         NMat0=    1 NMatS0=      1 NMatT0=    0 NMatD0=    1 NMtDS0=    0 NMtDT0=    0
 Symmetry not used in FoFCou.
 Harris En= -593.076757533731    
 JPrj=0 DoOrth=F DoCkMO=F.
 Leave Link  401 at Sun Oct 13 09:51:41 2024, MaxMem=  2684354560 cpu:               5.8 elap:               0.3
 (Enter /usr/local/g16_AVX//g16/l502.exe)
 Keep R1 ints in memory in canonical form, NReq=35752935.
 FoFCou: FMM=F IPFlag=           0 FMFlag=           0 FMFlg1=           0
         NFxFlg=           0 DoJE=F BraDBF=F KetDBF=F FulRan=T
         wScrn=  0.000000 ICntrl=       600 IOpCl=  0 I1Cent=           0 NGrid=           0
         NMat0=    1 NMatS0=   4851 NMatT0=    0 NMatD0=    1 NMtDS0=    0 NMtDT0=    0
 Symmetry not used in FoFCou.
 Two-electron integral symmetry not used.
 Closed shell SCF:
 Using DIIS extrapolation, IDIIS=  1040.
 NGot=  2684354560 LenX=  2672563405 LenY=  2672553360
 Requested convergence on RMS density matrix=1.00D-08 within 128 cycles.
 Requested convergence on MAX density matrix=1.00D-06.
 Requested convergence on             energy=1.00D-06.
 No special actions if energy rises.

 Cycle   1  Pass 1  IDiag  1:
 E= -592.839646093074    
 DIIS: error= 3.47D-02 at cycle   1 NSaved=   1.
 NSaved= 1 IEnMin= 1 EnMin= -592.839646093074     IErMin= 1 ErrMin= 3.47D-02
 ErrMax= 3.47D-02  0.00D+00 EMaxC= 1.00D-01 BMatC= 1.33D-01 BMatP= 1.33D-01
 IDIUse=3 WtCom= 6.53D-01 WtEn= 3.47D-01
 Coeff-Com:  0.100D+01
 Coeff-En:   0.100D+01
 Coeff:      0.100D+01
 Gap=     0.627 Goal=   None    Shift=    0.000
 GapD=    0.627 DampG=2.000 DampE=0.500 DampFc=1.0000 IDamp=-1.
 RMSDP=9.14D-02 MaxDP=3.19D+00              OVMax= 3.85D-01

 Cycle   2  Pass 1  IDiag  1:
 E= -592.633137821544     Delta-E=        0.206508271530 Rises=F Damp=F
 DIIS: error= 4.81D-02 at cycle   2 NSaved=   2.
 NSaved= 2 IEnMin= 1 EnMin= -592.839646093074     IErMin= 1 ErrMin= 3.47D-02
 ErrMax= 4.81D-02  0.00D+00 EMaxC= 1.00D-01 BMatC= 3.02D-01 BMatP= 1.33D-01
 IDIUse=2 WtCom= 0.00D+00 WtEn= 1.00D+00
 Coeff-En:   0.687D+00 0.313D+00
 Coeff:      0.687D+00 0.313D+00
 Gap=     0.155 Goal=   None    Shift=    0.000
 RMSDP=8.98D-02 MaxDP=3.21D+00 DE= 2.07D-01 OVMax= 2.50D-01

 Cycle   3  Pass 1  IDiag  1:
 E= -592.982159695803     Delta-E=       -0.349021874259 Rises=F Damp=F
 DIIS: error= 8.06D-03 at cycle   3 NSaved=   3.
 NSaved= 3 IEnMin= 3 EnMin= -592.982159695803     IErMin= 3 ErrMin= 8.06D-03
 ErrMax= 8.06D-03  0.00D+00 EMaxC= 1.00D-01 BMatC= 1.04D-02 BMatP= 1.33D-01
 IDIUse=3 WtCom= 9.19D-01 WtEn= 8.06D-02
 Coeff-Com:  0.268D+00 0.102D+00 0.631D+00
 Coeff-En:   0.000D+00 0.000D+00 0.100D+01
 Coeff:      0.246D+00 0.937D-01 0.660D+00
 Gap=     0.186 Goal=   None    Shift=    0.000
 RMSDP=2.82D-03 MaxDP=4.97D-02 DE=-3.49D-01 OVMax= 5.06D-02

 Cycle   4  Pass 1  IDiag  1:
 E= -592.986813727660     Delta-E=       -0.004654031857 Rises=F Damp=F
 DIIS: error= 1.19D-02 at cycle   4 NSaved=   4.
 NSaved= 4 IEnMin= 4 EnMin= -592.986813727660     IErMin= 3 ErrMin= 8.06D-03
 ErrMax= 1.19D-02  0.00D+00 EMaxC= 1.00D-01 BMatC= 7.11D-03 BMatP= 1.04D-02
 IDIUse=3 WtCom= 8.81D-01 WtEn= 1.19D-01
 Coeff-Com:  0.520D-01-0.249D-01 0.496D+00 0.477D+00
 Coeff-En:   0.000D+00 0.000D+00 0.383D+00 0.617D+00
 Coeff:      0.458D-01-0.220D-01 0.483D+00 0.493D+00
 Gap=     0.177 Goal=   None    Shift=    0.000
 RMSDP=1.01D-03 MaxDP=1.55D-02 DE=-4.65D-03 OVMax= 2.98D-02

 Cycle   5  Pass 1  IDiag  1:
 E= -592.993186911392     Delta-E=       -0.006373183732 Rises=F Damp=F
 DIIS: error= 2.68D-03 at cycle   5 NSaved=   5.
 NSaved= 5 IEnMin= 5 EnMin= -592.993186911392     IErMin= 5 ErrMin= 2.68D-03
 ErrMax= 2.68D-03  0.00D+00 EMaxC= 1.00D-01 BMatC= 3.19D-04 BMatP= 7.11D-03
 IDIUse=3 WtCom= 9.73D-01 WtEn= 2.68D-02
 Coeff-Com:  0.170D-01-0.126D-01 0.229D+00 0.278D+00 0.488D+00
 Coeff-En:   0.000D+00 0.000D+00 0.000D+00 0.000D+00 0.100D+01
 Coeff:      0.166D-01-0.122D-01 0.223D+00 0.271D+00 0.502D+00
 Gap=     0.180 Goal=   None    Shift=    0.000
 RMSDP=3.07D-04 MaxDP=4.94D-03 DE=-6.37D-03 OVMax= 7.01D-03

 Cycle   6  Pass 1  IDiag  1:
 E= -592.993474437276     Delta-E=       -0.000287525884 Rises=F Damp=F
 DIIS: error= 8.62D-04 at cycle   6 NSaved=   6.
 NSaved= 6 IEnMin= 6 EnMin= -592.993474437276     IErMin= 6 ErrMin= 8.62D-04
 ErrMax= 8.62D-04  0.00D+00 EMaxC= 1.00D-01 BMatC= 3.11D-05 BMatP= 3.19D-04
 IDIUse=3 WtCom= 9.91D-01 WtEn= 8.62D-03
 Coeff-Com:  0.313D-02-0.606D-02 0.609D-01 0.749D-01 0.261D+00 0.606D+00
 Coeff-En:   0.000D+00 0.000D+00 0.000D+00 0.000D+00 0.723D-01 0.928D+00
 Coeff:      0.310D-02-0.600D-02 0.603D-01 0.742D-01 0.260D+00 0.609D+00
 Gap=     0.180 Goal=   None    Shift=    0.000
 RMSDP=7.71D-05 MaxDP=1.49D-03 DE=-2.88D-04 OVMax= 1.70D-03

 Cycle   7  Pass 1  IDiag  1:
 E= -592.993504184519     Delta-E=       -0.000029747243 Rises=F Damp=F
 DIIS: error= 6.86D-05 at cycle   7 NSaved=   7.
 NSaved= 7 IEnMin= 7 EnMin= -592.993504184519     IErMin= 7 ErrMin= 6.86D-05
 ErrMax= 6.86D-05  0.00D+00 EMaxC= 1.00D-01 BMatC= 4.22D-07 BMatP= 3.11D-05
 IDIUse=1 WtCom= 1.00D+00 WtEn= 0.00D+00
 Coeff-Com:  0.346D-03-0.831D-03 0.269D-02 0.214D-02 0.438D-01 0.184D+00
 Coeff-Com:  0.768D+00
 Coeff:      0.346D-03-0.831D-03 0.269D-02 0.214D-02 0.438D-01 0.184D+00
 Coeff:      0.768D+00
 Gap=     0.180 Goal=   None    Shift=    0.000
 RMSDP=1.39D-05 MaxDP=2.45D-04 DE=-2.97D-05 OVMax= 2.72D-04

 Cycle   8  Pass 1  IDiag  1:
 E= -592.993504672435     Delta-E=       -0.000000487916 Rises=F Damp=F
 DIIS: error= 1.11D-05 at cycle   8 NSaved=   8.
 NSaved= 8 IEnMin= 8 EnMin= -592.993504672435     IErMin= 8 ErrMin= 1.11D-05
 ErrMax= 1.11D-05  0.00D+00 EMaxC= 1.00D-01 BMatC= 1.74D-08 BMatP= 4.22D-07
 IDIUse=1 WtCom= 1.00D+00 WtEn= 0.00D+00
 Coeff-Com:  0.950D-04-0.131D-03 0.829D-04 0.257D-03 0.106D-01 0.469D-01
 Coeff-Com:  0.245D+00 0.697D+00
 Coeff:      0.950D-04-0.131D-03 0.829D-04 0.257D-03 0.106D-01 0.469D-01
 Coeff:      0.245D+00 0.697D+00
 Gap=     0.180 Goal=   None    Shift=    0.000
 RMSDP=2.47D-06 MaxDP=7.10D-05 DE=-4.88D-07 OVMax= 4.72D-05

 Cycle   9  Pass 1  IDiag  1:
 E= -592.993504690390     Delta-E=       -0.000000017955 Rises=F Damp=F
 DIIS: error= 3.19D-06 at cycle   9 NSaved=   9.
 NSaved= 9 IEnMin= 9 EnMin= -592.993504690390     IErMin= 9 ErrMin= 3.19D-06
 ErrMax= 3.19D-06  0.00D+00 EMaxC= 1.00D-01 BMatC= 1.79D-09 BMatP= 1.74D-08
 IDIUse=1 WtCom= 1.00D+00 WtEn= 0.00D+00
 Coeff-Com: -0.117D-04 0.145D-04-0.147D-03 0.142D-03 0.135D-02 0.481D-02
 Coeff-Com:  0.359D-01 0.265D+00 0.693D+00
 Coeff:     -0.117D-04 0.145D-04-0.147D-03 0.142D-03 0.135D-02 0.481D-02
 Coeff:      0.359D-01 0.265D+00 0.693D+00
 Gap=     0.180 Goal=   None    Shift=    0.000
 RMSDP=7.93D-07 MaxDP=2.02D-05 DE=-1.80D-08 OVMax= 1.22D-05

 Cycle  10  Pass 1  IDiag  1:
 E= -592.993504692357     Delta-E=       -0.000000001966 Rises=F Damp=F
 DIIS: error= 3.96D-07 at cycle  10 NSaved=  10.
 NSaved=10 IEnMin=10 EnMin= -592.993504692357     IErMin=10 ErrMin= 3.96D-07
 ErrMax= 3.96D-07  0.00D+00 EMaxC= 1.00D-01 BMatC= 2.28D-11 BMatP= 1.79D-09
 IDIUse=1 WtCom= 1.00D+00 WtEn= 0.00D+00
 Coeff-Com: -0.841D-05 0.680D-05-0.175D-04 0.341D-04-0.311D-04-0.621D-03
 Coeff-Com: -0.176D-02 0.206D-01 0.135D+00 0.846D+00
 Coeff:     -0.841D-05 0.680D-05-0.175D-04 0.341D-04-0.311D-04-0.621D-03
 Coeff:     -0.176D-02 0.206D-01 0.135D+00 0.846D+00
 Gap=     0.180 Goal=   None    Shift=    0.000
 RMSDP=1.61D-07 MaxDP=3.52D-06 DE=-1.97D-09 OVMax= 2.11D-06

 Cycle  11  Pass 1  IDiag  1:
 E= -592.993504692387     Delta-E=       -0.000000000030 Rises=F Damp=F
 DIIS: error= 5.50D-08 at cycle  11 NSaved=  11.
 NSaved=11 IEnMin=11 EnMin= -592.993504692387     IErMin=11 ErrMin= 5.50D-08
 ErrMax= 5.50D-08  0.00D+00 EMaxC= 1.00D-01 BMatC= 3.30D-13 BMatP= 2.28D-11
 IDIUse=1 WtCom= 1.00D+00 WtEn= 0.00D+00
 Coeff-Com: -0.117D-05 0.641D-06-0.839D-05-0.113D-04-0.521D-04-0.153D-03
 Coeff-Com: -0.206D-03-0.230D-02 0.444D-02 0.858D-01 0.913D+00
 Coeff:     -0.117D-05 0.641D-06-0.839D-05-0.113D-04-0.521D-04-0.153D-03
 Coeff:     -0.206D-03-0.230D-02 0.444D-02 0.858D-01 0.913D+00
 Gap=     0.180 Goal=   None    Shift=    0.000
 RMSDP=3.83D-08 MaxDP=7.39D-07 DE=-3.02D-11 OVMax= 4.03D-07

 Cycle  12  Pass 1  IDiag  1:
 E= -592.993504692387     Delta-E=       -0.000000000000 Rises=F Damp=F
 DIIS: error= 6.32D-09 at cycle  12 NSaved=  12.
 NSaved=12 IEnMin=12 EnMin= -592.993504692387     IErMin=12 ErrMin= 6.32D-09
 ErrMax= 6.32D-09  0.00D+00 EMaxC= 1.00D-01 BMatC= 4.33D-15 BMatP= 3.30D-13
 IDIUse=1 WtCom= 1.00D+00 WtEn= 0.00D+00
 Coeff-Com: -0.528D-07 0.110D-07-0.965D-06-0.233D-05-0.919D-05-0.206D-04
 Coeff-Com: -0.361D-04-0.811D-03-0.215D-02 0.347D-03 0.118D+00 0.885D+00
 Coeff:     -0.528D-07 0.110D-07-0.965D-06-0.233D-05-0.919D-05-0.206D-04
 Coeff:     -0.361D-04-0.811D-03-0.215D-02 0.347D-03 0.118D+00 0.885D+00
 Gap=     0.180 Goal=   None    Shift=    0.000
 RMSDP=2.09D-09 MaxDP=4.20D-08 DE=-1.14D-13 OVMax= 4.34D-08

 SCF Done:  E(RB3LYP) =  -592.993504692     A.U. after   12 cycles
            NFock= 12  Conv=0.21D-08     -V/T= 2.0045
 KE= 5.903365894360D+02 PE=-1.631309402120D+03 EE= 3.371970037060D+02
 Leave Link  502 at Sun Oct 13 09:51:43 2024, MaxMem=  2684354560 cpu:              34.1 elap:               1.6
 (Enter /usr/local/g16_AVX//g16/l801.exe)
 DoSCS=F DFT=T ScalE2(SS,OS)=  1.000000  1.000000
 Range of M.O.s used for correlation:     1    98
 NBasis=    98 NAE=    20 NBE=    20 NFC=     0 NFV=     0
 NROrb=     98 NOA=    20 NOB=    20 NVA=    78 NVB=    78

 **** Warning!!: The largest alpha MO coefficient is  0.35277972D+02

 Leave Link  801 at Sun Oct 13 09:51:43 2024, MaxMem=  2684354560 cpu:               0.7 elap:               0.1
 (Enter /usr/local/g16_AVX//g16/l1101.exe)
 Using compressed storage, NAtomX=     7.
 Will process      8 centers per pass.
 Leave Link 1101 at Sun Oct 13 09:51:43 2024, MaxMem=  2684354560 cpu:               3.4 elap:               0.2
 (Enter /usr/local/g16_AVX//g16/l1102.exe)
 Symmetrizing basis deriv contribution to polar:
 IMax=3 JMax=2 DiffMx= 0.00D+00
 Leave Link 1102 at Sun Oct 13 09:51:43 2024, MaxMem=  2684354560 cpu:               0.7 elap:               0.1
 (Enter /usr/local/g16_AVX//g16/l1110.exe)
 Forming Gx(P) for the SCF density, NAtomX=     7.
 Integral derivatives from FoFJK, PRISM(SPDF).
 Do as many integral derivatives as possible in FoFJK.
 G2DrvN: MDV=    2684353864.
 G2DrvN: will do     8 centers at a time, making    1 passes.
 Calling FoFCou, ICntrl=  3107 FMM=F I1Cent=   0 AccDes= 0.00D+00.
 FoFJK:  IHMeth= 1 ICntrl=    3107 DoSepK=F KAlg= 0 I1Cent=           0 FoldK=F
 IRaf=         0 NMat=       1 IRICut=       1 DoRegI=T DoRafI=F ISym2E= 0 IDoP0=0 IntGTp=1.
 FoFCou: FMM=F IPFlag=           0 FMFlag=      100000 FMFlg1=           0
         NFxFlg=           0 DoJE=F BraDBF=F KetDBF=F FulRan=T
         wScrn=  0.000000 ICntrl=      3107 IOpCl=  0 I1Cent=           0 NGrid=           0
         NMat0=    1 NMatS0=      1 NMatT0=    0 NMatD0=    1 NMtDS0=    0 NMtDT0=    0
 Symmetry not used in FoFCou.
 End of G2Drv F.D. properties file   721 does not exist.
 End of G2Drv F.D. properties file   722 does not exist.
 End of G2Drv F.D. properties file   788 does not exist.
 Leave Link 1110 at Sun Oct 13 09:51:45 2024, MaxMem=  2684354560 cpu:              37.6 elap:               1.5
 (Enter /usr/local/g16_AVX//g16/l1002.exe)
 Minotr:  Closed shell wavefunction.
          IDoAtm=1111111
          Direct CPHF calculation.
          Differentiating once with respect to electric field.
                with respect to dipole field.
          Differentiating once with respect to nuclear coordinates.
          Requested convergence is 1.0D-08 RMS, and 1.0D-07 maximum.
          Secondary convergence is 1.0D-12 RMS, and 1.0D-12 maximum.
          NewPWx=T KeepS1=F KeepF1=F KeepIn=T MapXYZ=F SortEE=F KeepMc=T.
         2136 words used for storage of precomputed grid.
 Keep R1 ints in memory in canonical form, NReq=35668397.
 FoFCou: FMM=F IPFlag=           0 FMFlag=           0 FMFlg1=           0
         NFxFlg=           0 DoJE=F BraDBF=F KetDBF=F FulRan=T
         wScrn=  0.000000 ICntrl=       600 IOpCl=  0 I1Cent=           0 NGrid=           0
         NMat0=    1 NMatS0=   4851 NMatT0=    0 NMatD0=    1 NMtDS0=    0 NMtDT0=    0
 Symmetry not used in FoFCou.
 Two-electron integral symmetry not used.
          MDV=    2684354560 using IRadAn=       1.
          Solving linear equations simultaneously, MaxMat=       0.
          There are    24 degrees of freedom in the 1st order CPHF.  IDoFFX=6 NUNeed=     3.
     21 vectors produced by pass  0 Test12= 6.50D-15 4.17D-09 XBig12= 8.32D+01 4.38D+00.
 AX will form    21 AO Fock derivatives at one time.
     21 vectors produced by pass  1 Test12= 6.50D-15 4.17D-09 XBig12= 4.49D+01 2.01D+00.
     21 vectors produced by pass  2 Test12= 6.50D-15 4.17D-09 XBig12= 1.33D+00 2.90D-01.
     21 vectors produced by pass  3 Test12= 6.50D-15 4.17D-09 XBig12= 2.77D-02 4.63D-02.
     21 vectors produced by pass  4 Test12= 6.50D-15 4.17D-09 XBig12= 8.36D-05 2.22D-03.
     16 vectors produced by pass  5 Test12= 6.50D-15 4.17D-09 XBig12= 1.97D-07 9.42D-05.
      6 vectors produced by pass  6 Test12= 6.50D-15 4.17D-09 XBig12= 2.39D-10 2.94D-06.
      1 vectors produced by pass  7 Test12= 6.50D-15 4.17D-09 XBig12= 2.76D-13 1.25D-07.
      1 vectors produced by pass  8 Test12= 6.50D-15 4.17D-09 XBig12= 4.18D-16 4.56D-09.
 InvSVY:  IOpt=1 It=  1 EMax= 3.55D-15
 Solved reduced A of dimension   129 with    24 vectors.
 FullF1:  Do perturbations      1 to       3.
 Isotropic polarizability for W=    0.000000       56.45 Bohr**3.
 End of Minotr F.D. properties file   721 does not exist.
 End of Minotr F.D. properties file   722 does not exist.
 End of Minotr F.D. properties file   788 does not exist.
 Leave Link 1002 at Sun Oct 13 09:51:47 2024, MaxMem=  2684354560 cpu:              51.3 elap:               2.1
 (Enter /usr/local/g16_AVX//g16/l601.exe)
 Copying SCF densities to generalized density rwf, IOpCl= 0 IROHF=0.

 **********************************************************************

            Population analysis using the SCF Density.

 **********************************************************************

 Alpha  occ. eigenvalues -- -101.40608 -14.09562 -10.09709  -9.96021  -9.32240
 Alpha  occ. eigenvalues --   -7.08530  -7.07709  -7.07709  -0.71178  -0.64911
 Alpha  occ. eigenvalues --   -0.53641  -0.30437  -0.30436  -0.27372  -0.18316
 Alpha  occ. eigenvalues --   -0.17208  -0.17207  -0.09812  -0.09812  -0.06964
 Alpha virt. eigenvalues --    0.11034   0.13007   0.14599   0.14599   0.17305
 Alpha virt. eigenvalues --    0.20452   0.20453   0.20588   0.22145   0.22151
 Alpha virt. eigenvalues --    0.24326   0.25052   0.25054   0.27175   0.27492
 Alpha virt. eigenvalues --    0.27495   0.31489   0.33765   0.33770   0.36290
 Alpha virt. eigenvalues --    0.38626   0.38646   0.38651   0.46669   0.48233
 Alpha virt. eigenvalues --    0.65955   0.73679   0.74712   0.74712   0.77650
 Alpha virt. eigenvalues --    0.77652   0.88424   0.89687   0.89689   0.98289
 Alpha virt. eigenvalues --    0.99743   0.99746   1.04789   1.04795   1.08637
 Alpha virt. eigenvalues --    1.09847   1.09854   1.12558   1.19088   1.19090
 Alpha virt. eigenvalues --    1.25938   1.26926   1.36753   1.47925   1.60659
 Alpha virt. eigenvalues --    1.60665   1.77697   1.78077   1.78077   1.80371
 Alpha virt. eigenvalues --    1.80372   2.15952   2.20111   2.20112   2.22164
 Alpha virt. eigenvalues --    2.22170   2.29241   2.49593   2.49605   2.66842
 Alpha virt. eigenvalues --    2.83423   2.83424   2.84245   2.95999   2.96005
 Alpha virt. eigenvalues --    3.26240   3.39107   3.56075   3.56076   4.21474
 Alpha virt. eigenvalues --    4.42034   4.46081   4.57387
          Condensed to atoms (all electrons):
               1          2          3          4          5          6
     1  C    5.452958  -0.092909   0.419206   0.419148   0.419147  -0.188872
     2  Cl  -0.092909  17.371121  -0.050618  -0.050740  -0.050742   0.071734
     3  H    0.419206  -0.050618   0.508070  -0.023443  -0.023443  -0.043075
     4  H    0.419148  -0.050740  -0.023443   0.508239  -0.023470  -0.042855
     5  H    0.419147  -0.050742  -0.023443  -0.023470   0.508240  -0.042847
     6  C   -0.188872   0.071734  -0.043075  -0.042855  -0.042847   6.090216
     7  N   -0.001573  -0.002697   0.000292   0.000279   0.000278   0.662712
               7
     1  C   -0.001573
     2  Cl  -0.002697
     3  H    0.000292
     4  H    0.000279
     5  H    0.000278
     6  C    0.662712
     7  N    6.850136
 Mulliken charges:
               1
     1  C   -0.427105
     2  Cl  -0.195149
     3  H    0.213012
     4  H    0.212842
     5  H    0.212839
     6  C   -0.507012
     7  N   -0.509426
 Sum of Mulliken charges =  -1.00000
 Mulliken charges with hydrogens summed into heavy atoms:
               1
     1  C    0.211588
     2  Cl  -0.195149
     6  C   -0.507012
     7  N   -0.509426
 APT charges:
               1
     1  C    0.641536
     2  Cl  -0.668627
     3  H    0.014941
     4  H    0.014766
     5  H    0.014764
     6  C   -0.394205
     7  N   -0.623175
 Sum of APT charges =  -1.00000
 APT charges with hydrogens summed into heavy atoms:
               1
     1  C    0.686007
     2  Cl  -0.668627
     6  C   -0.394205
     7  N   -0.623175
 Electronic spatial extent (au):  <R**2>=            874.6054
 Charge=             -1.0000 electrons
 Dipole moment (field-independent basis, Debye):
    X=             -9.7844    Y=             -0.0000    Z=              0.0009  Tot=              9.7844
 Quadrupole moment (field-independent basis, Debye-Ang):
   XX=            -89.5339   YY=            -35.4283   ZZ=            -35.4276
   XY=             -0.0000   XZ=             -0.0012   YZ=             -0.0000
 Traceless Quadrupole moment (field-independent basis, Debye-Ang):
   XX=            -36.0707   YY=             18.0350   ZZ=             18.0357
   XY=             -0.0000   XZ=             -0.0012   YZ=             -0.0000
 Octapole moment (field-independent basis, Debye-Ang**2):
  XXX=           -183.2487  YYY=             -0.0062  ZZZ=             -0.8740  XYY=            -11.7604
  XXY=              0.0003  XXZ=             -0.0091  XZZ=            -11.7595  YZZ=              0.0060
  YYZ=              0.8791  XYZ=             -0.0000
 Hexadecapole moment (field-independent basis, Debye-Ang**3):
 XXXX=          -1890.7347 YYYY=            -56.0449 ZZZZ=            -56.0443 XXXY=              0.0006
 XXXZ=             -0.0410 YYYX=             -0.0016 YYYZ=             -0.0000 ZZZX=             -0.0559
 ZZZY=              0.0000 XXYY=           -225.7875 XXZZ=           -225.7868 YYZZ=            -18.6809
 XXYZ=              0.0000 YYXZ=              0.0731 ZZXY=              0.0001
 N-N= 1.107823042859D+02 E-N=-1.631309401986D+03  KE= 5.903365894360D+02
  Exact polarizability:  89.929  -0.000  39.710   0.007  -0.000  39.710
 Approx polarizability: 110.922  -0.001  49.645   0.016  -0.000  49.644
 No NMR shielding tensors so no spin-rotation constants.
 Leave Link  601 at Sun Oct 13 09:51:47 2024, MaxMem=  2684354560 cpu:               2.6 elap:               0.1
 (Enter /usr/local/g16_AVX//g16/l701.exe)
 ... and contract with generalized density number  0.
 Compute integral second derivatives.
 Leave Link  701 at Sun Oct 13 09:51:47 2024, MaxMem=  2684354560 cpu:               4.6 elap:               0.2
 (Enter /usr/local/g16_AVX//g16/l702.exe)
 L702 exits ... SP integral derivatives will be done elsewhere.
 Leave Link  702 at Sun Oct 13 09:51:47 2024, MaxMem=  2684354560 cpu:               0.5 elap:               0.0
 (Enter /usr/local/g16_AVX//g16/l703.exe)
 Integral derivatives from FoFJK, PRISM(SPDF).
 Compute integral second derivatives, UseDBF=F ICtDFT=           0.
 Calling FoFJK, ICntrl=    100127 FMM=F ISym2X=0 I1Cent= 0 IOpClX= 0 NMat=1 NMatS=1 NMatT=0.
 FoFJK:  IHMeth= 1 ICntrl=  100127 DoSepK=F KAlg= 0 I1Cent=           0 FoldK=F
 IRaf=         0 NMat=       1 IRICut=       1 DoRegI=T DoRafI=F ISym2E= 0 IDoP0=0 IntGTp=1.
 FoFCou: FMM=F IPFlag=           0 FMFlag=      100000 FMFlg1=         800
         NFxFlg=           0 DoJE=F BraDBF=F KetDBF=F FulRan=T
         wScrn=  0.000000 ICntrl=    100127 IOpCl=  0 I1Cent=           0 NGrid=           0
         NMat0=    1 NMatS0=      1 NMatT0=    0 NMatD0=    1 NMtDS0=    0 NMtDT0=    0
 Symmetry not used in FoFCou.
 Leave Link  703 at Sun Oct 13 09:51:50 2024, MaxMem=  2684354560 cpu:              65.1 elap:               2.5
 (Enter /usr/local/g16_AVX//g16/l716.exe)
 Dipole        =-3.84949778D+00-1.53781582D-05 3.47303911D-04
 Polarizability= 8.99285310D+01-2.78616390D-04 3.97103209D+01
                 7.20823160D-03-2.27202348D-05 3.97101527D+01
 Full mass-weighted force constant matrix:
 Low frequencies ---  -91.3153  -91.3057  -42.1511  -42.1431    0.0059    0.0061
 Low frequencies ---    0.0065  106.0818  114.3162
 ******    2 imaginary frequencies (negative Signs) ****** 
 Diagonal vibrational polarizability:
       79.2631937      24.3106147      24.3214303
 Harmonic frequencies (cm**-1), IR intensities (KM/Mole), Raman scattering
 activities (A**4/AMU), depolarization ratios for plane and unpolarized
 incident light, reduced masses (AMU), force constants (mDyne/A),
 and normal coordinates:
                      1                      2                      3
                      A                      A                      A
 Frequencies --    -91.1020               -91.0927               113.7947
 Red. masses --      9.4007                 9.3987                 3.7337
 Frc consts  --      0.0460                 0.0460                 0.0285
 IR Inten    --      0.0220                 0.0221                11.6218
  Atom  AN      X      Y      Z        X      Y      Z        X      Y      Z
     1   6    -0.00   0.01   0.23     0.00   0.23  -0.01    -0.00  -0.01   0.39
     2  17    -0.00  -0.00  -0.11     0.00  -0.11   0.00    -0.00   0.00  -0.10
     3   1     0.19   0.01   0.29    -0.01   0.29  -0.01     0.26  -0.01   0.49
     4   1    -0.10   0.01   0.29    -0.16   0.29  -0.01    -0.13   0.01   0.47
     5   1    -0.09   0.01   0.29     0.16   0.29  -0.00    -0.13  -0.02   0.47
     6   6    -0.00   0.02   0.61     0.00   0.61  -0.02     0.00   0.00  -0.25
     7   7     0.00  -0.01  -0.50    -0.00  -0.50   0.01     0.00  -0.00   0.02
                      4                      5                      6
                      A                      A                      A
 Frequencies --    113.8176               167.0102               599.0611
 Red. masses --      3.7346                12.1148                 9.6817
 Frc consts  --      0.0285                 0.1991                 2.0471
 IR Inten    --     11.6205                59.8530               280.6678
  Atom  AN      X      Y      Z        X      Y      Z        X      Y      Z
     1   6     0.00   0.39   0.01    -0.32   0.00  -0.00     0.73  -0.00   0.00
     2  17    -0.00  -0.10  -0.00    -0.28  -0.00   0.00    -0.29   0.00  -0.00
     3   1     0.00   0.46   0.01    -0.27   0.00   0.01     0.34   0.00  -0.11
     4   1    -0.23   0.48   0.02    -0.26  -0.01  -0.01     0.34   0.09   0.05
     5   1     0.23   0.48  -0.01    -0.26   0.01  -0.01     0.34  -0.09   0.05
     6   6    -0.00  -0.25  -0.00     0.55   0.00   0.00     0.02   0.00  -0.00
     7   7     0.00   0.02   0.00     0.56  -0.00   0.00     0.01  -0.00   0.00
                      7                      8                      9
                      A                      A                      A
 Frequencies --   1016.3985              1016.5764              1304.6175
 Red. masses --      1.1414                 1.1413                 1.0882
 Frc consts  --      0.6947                 0.6949                 1.0913
 IR Inten    --      0.1993                 0.2003                21.6013
  Atom  AN      X      Y      Z        X      Y      Z        X      Y      Z
     1   6    -0.00  -0.00  -0.10    -0.00  -0.10   0.00    -0.08  -0.00   0.00
     2  17     0.00   0.00   0.02     0.00   0.02  -0.00    -0.02   0.00  -0.00
     3   1     0.77   0.00   0.13    -0.01   0.23  -0.00     0.55  -0.00   0.17
     4   1    -0.39  -0.04   0.20    -0.66   0.16  -0.04     0.55  -0.15  -0.09
     5   1    -0.38   0.04   0.20     0.67   0.16   0.04     0.55   0.15  -0.09
     6   6    -0.00  -0.00  -0.00     0.00  -0.00   0.00    -0.00  -0.00   0.00
     7   7    -0.00  -0.00  -0.00     0.00  -0.00   0.00    -0.00   0.00  -0.00
                     10                     11                     12
                      A                      A                      A
 Frequencies --   1456.6937              1456.7798              2157.2623
 Red. masses --      1.0622                 1.0622                12.8228
 Frc consts  --      1.3280                 1.3282                35.1592
 IR Inten    --      7.3402                 7.3334                16.0065
  Atom  AN      X      Y      Z        X      Y      Z        X      Y      Z
     1   6     0.00  -0.07  -0.00    -0.00   0.00  -0.07    -0.00  -0.00   0.00
     2  17     0.00  -0.00  -0.00    -0.00   0.00  -0.00     0.00  -0.00  -0.00
     3   1    -0.00   0.76   0.00    -0.27  -0.00  -0.13    -0.02   0.00  -0.01
     4   1     0.24   0.09  -0.38     0.14  -0.39   0.53    -0.02   0.01   0.00
     5   1    -0.24   0.09   0.39     0.14   0.38   0.53    -0.02  -0.01   0.00
     6   6    -0.00  -0.00  -0.00    -0.00   0.00  -0.00     0.76  -0.00   0.00
     7   7     0.00   0.00   0.00     0.00  -0.00   0.00    -0.65   0.00  -0.00
                     13                     14                     15
                      A                      A                      A
 Frequencies --   3135.4227              3264.0443              3264.3645
 Red. masses --      1.0243                 1.1121                 1.1121
 Frc consts  --      5.9328                 6.9805                 6.9820
 IR Inten    --     12.3650                 0.1801                 0.1752
  Atom  AN      X      Y      Z        X      Y      Z        X      Y      Z
     1   6     0.04  -0.00   0.00    -0.00  -0.10   0.00     0.00  -0.00  -0.10
     2  17    -0.00   0.00  -0.00     0.00   0.00  -0.00    -0.00   0.00   0.00
     3   1    -0.15  -0.00   0.55     0.00  -0.02  -0.02    -0.23  -0.00   0.78
     4   1    -0.15  -0.48  -0.28     0.20   0.57   0.34     0.12   0.36   0.19
     5   1    -0.15   0.48  -0.28    -0.20   0.59  -0.35     0.11  -0.33   0.17
     6   6     0.00   0.00  -0.00    -0.00   0.00  -0.00     0.00   0.00   0.00
     7   7     0.00  -0.00   0.00    -0.00  -0.00   0.00     0.00  -0.00  -0.00

 -------------------
 - Thermochemistry -
 -------------------
 Temperature   298.150 Kelvin.  Pressure   1.00000 Atm.
 Atom     1 has atomic number  6 and mass  12.00000
 Atom     2 has atomic number 17 and mass  34.96885
 Atom     3 has atomic number  1 and mass   1.00783
 Atom     4 has atomic number  1 and mass   1.00783
 Atom     5 has atomic number  1 and mass   1.00783
 Atom     6 has atomic number  6 and mass  12.00000
 Atom     7 has atomic number  7 and mass  14.00307
 Molecular mass:    75.99540 amu.
 Principal axes and moments of inertia in atomic units:
                           1         2         3
     Eigenvalues --    11.529631510.054621510.05536
           X            1.00000   0.00001  -0.00000
           Y            0.00000  -0.02031   0.99979
           Z           -0.00001   0.99979   0.02031
 This molecule is an asymmetric top.
 Rotational symmetry number  1.
 Rotational temperatures (Kelvin)      7.51229     0.05736     0.05736
 Rotational constants (GHZ):         156.53071     1.19515     1.19515
    2 imaginary frequencies ignored.
 Zero-point vibrational energy     114039.1 (Joules/Mol)
                                   27.25599 (Kcal/Mol)
 Warning -- explicit consideration of   4 degrees of freedom as
           vibrations may cause significant error
 Vibrational temperatures:    163.73   163.76   240.29   861.92  1462.37
          (Kelvin)           1462.63  1877.05  2095.86  2095.98  3103.82
                             4511.17  4696.23  4696.69
 
 Zero-point correction=                           0.043435 (Hartree/Particle)
 Thermal correction to Energy=                    0.048552
 Thermal correction to Enthalpy=                  0.049496
 Thermal correction to Gibbs Free Energy=         0.014700
 Sum of electronic and zero-point Energies=           -592.950070
 Sum of electronic and thermal Energies=              -592.944953
 Sum of electronic and thermal Enthalpies=            -592.944009
 Sum of electronic and thermal Free Energies=         -592.978805
 
                     E (Thermal)             CV                S
                      KCal/Mol        Cal/Mol-Kelvin    Cal/Mol-Kelvin
 Total                   30.467             13.800             73.235
 Electronic               0.000              0.000              0.000
 Translational            0.889              2.981             38.900
 Rotational               0.889              2.981             24.778
 Vibrational             28.689              7.839              9.557
 Vibration     1          0.607              1.938              3.203
 Vibration     2          0.607              1.938              3.203
 Vibration     3          0.624              1.883              2.469
 Vibration     4          0.957              1.034              0.451
                       Q            Log10(Q)             Ln(Q)
 Total Bot       0.173237D-06         -6.761359        -15.568604
 Total V=0       0.164977D+14         13.217423         30.434240
 Vib (Bot)       0.114620D-18        -18.940740        -43.612665
 Vib (Bot)    1  0.179836D+01          0.254876          0.586874
 Vib (Bot)    2  0.179799D+01          0.254786          0.586668
 Vib (Bot)    3  0.120784D+01          0.082008          0.188830
 Vib (Bot)    4  0.249497D+00         -0.602936         -1.388310
 Vib (V=0)       0.109155D+02          1.038042          2.390179
 Vib (V=0)    1  0.236657D+01          0.374120          0.861443
 Vib (V=0)    2  0.236621D+01          0.374054          0.861291
 Vib (V=0)    3  0.180724D+01          0.257015          0.591799
 Vib (V=0)    4  0.105879D+01          0.024811          0.057129
 Electronic      0.100000D+01          0.000000          0.000000
 Translational   0.260396D+08          7.415635         17.075130
 Rotational      0.580425D+05          4.763746         10.968931
 
                                                       RxCoord=2.79903 DE=47.02
                                                             IR Spectrum
 
      3    3                                     2                          1     1          1                                       
      2    1                                     1                          4     3          0               5                1 1    
      6    3                                     5                          5     0          1               9                6 1    
      4    5                                     7                          7     5          6               9                7 4    
 
      X    X                                     X                          X     X          X               X                X X    
                                                                                  X                          X                X X    
                                                                                                             X                X      
                                                                                                             X                X      
                                                                                                             X                       
                                                                                                             X                       
                                                                                                             X                       
                                                                                                             X                       
                                                                                                             X                       
                                                                                                             X                       
                                                                                                             X                       
                                                                                                             X                       
                                                                                                             X                       
                                                                                                             X                       
                                                                                                             X                       
                                                                                                             X                       
                                                                                                             X                       
                                                                                                             X                       
                                                                                                             X                       
                                                                                                             X                       
 
 -------------------------------------------------------------------
 Center     Atomic                   Forces (Hartrees/Bohr)
 Number     Number              X              Y              Z
 -------------------------------------------------------------------
      1        6           0.004409859   -0.000000467    0.000055936
      2       17          -0.014442569   -0.000000347   -0.000018395
      3        1           0.000980764   -0.000002017    0.000829005
      4        1           0.001010327   -0.000725509   -0.000435786
      5        1           0.001009557    0.000728395   -0.000433135
      6        6           0.002298056    0.000000047   -0.000000112
      7        7           0.004734006   -0.000000102    0.000002487
 -------------------------------------------------------------------
 Cartesian Forces:  Max     0.014442569 RMS     0.003524429
 Z-matrix is all fixed cartesians, so copy forces.
 Force constants in Cartesian coordinates: 
                1             2             3             4             5 
      1  0.240055D+00
      2  0.000000D+00  0.604780D+00
      3 -0.136438D-03  0.000000D+00  0.604956D+00
      4 -0.864595D-01  0.000000D+00 -0.131423D-04  0.175639D+00
      5  0.000000D+00 -0.334166D-01  0.000000D+00  0.000000D+00  0.176204D-01
      6 -0.100746D-04  0.000000D+00 -0.334279D-01  0.322804D-04  0.000000D+00
      7 -0.531696D-01 -0.194049D-03  0.847565D-01 -0.248605D-01 -0.443558D-04
      8 -0.190727D-03 -0.493779D-01  0.641251D-03  0.141812D-04  0.639695D-03
      9  0.833011D-01  0.641053D-03 -0.329096D+00 -0.620373D-02 -0.178979D-04
     10 -0.530812D-01 -0.731388D-01 -0.424665D-01 -0.248840D-01 -0.167761D-01
     11 -0.718920D-01 -0.258580D+00 -0.121462D+00  0.535222D-02  0.649300D-02
     12 -0.417361D-01 -0.121466D+00 -0.119907D+00  0.310130D-02  0.339061D-02
     13 -0.530827D-01  0.733322D-01 -0.421309D-01 -0.248835D-01  0.168205D-01
     14  0.720820D-01 -0.259685D+00  0.120820D+00 -0.536624D-02  0.652393D-02
     15 -0.414062D-01  0.120824D+00 -0.118797D+00  0.307669D-02 -0.337270D-02
     16 -0.135409D-02  0.000000D+00 -0.593008D-05 -0.737121D-02  0.000000D+00
     17  0.000000D+00 -0.484903D-02  0.000000D+00  0.000000D+00  0.258190D-02
     18 -0.219563D-04  0.000000D+00 -0.485897D-02  0.153873D-04  0.000000D+00
     19  0.709216D-02  0.000000D+00 -0.358360D-05 -0.718040D-02  0.000000D+00
     20  0.000000D+00  0.112808D-02  0.000000D+00  0.000000D+00 -0.442326D-03
     21  0.968689D-05  0.000000D+00  0.113073D-02 -0.878545D-05  0.000000D+00
                6             7             8             9            10 
      6  0.176168D-01
      7  0.193771D-01  0.736647D-01
      8 -0.178661D-04  0.198953D-03  0.459128D-01
      9  0.847286D-02 -0.868555D-01 -0.675567D-03  0.340644D+00
     10 -0.974051D-02  0.384008D-02  0.700673D-02  0.433344D-02  0.735815D-01
     11  0.339523D-02 -0.210687D-03  0.211288D-02  0.248870D-02  0.749619D-01
     12  0.261402D-02 -0.822329D-02 -0.250350D-01 -0.110451D-01  0.435234D-01
     13 -0.966359D-02  0.384013D-02 -0.702658D-02  0.430130D-02  0.383685D-02
     14 -0.337738D-02  0.248286D-03  0.200925D-02 -0.242883D-02  0.722618D-02
     15  0.258301D-02 -0.822243D-02  0.250946D-01 -0.109415D-01  0.393176D-02
     16  0.283368D-05 -0.339710D-02  0.000000D+00  0.395741D-03 -0.337429D-02
     17  0.000000D+00  0.185409D-05 -0.165501D-02 -0.954691D-05  0.720963D-03
     18  0.258375D-02 -0.833148D-03 -0.957662D-05  0.253784D-02  0.419024D-03
     19  0.191720D-05  0.822756D-04 -0.161850D-05  0.727618D-03  0.811139D-04
     20  0.000000D+00  0.000000D+00  0.358340D-03  0.208332D-05  0.000000D+00
     21 -0.442575D-03  0.000000D+00  0.211028D-05 -0.571434D-03  0.000000D+00
               11            12            13            14            15 
     11  0.266357D+00
     12  0.127986D+00  0.120217D+00
     13 -0.724402D-02  0.389859D-02  0.735820D-01
     14 -0.175283D-01  0.137067D-01 -0.751600D-01  0.267521D+00
     15 -0.138261D-01  0.859134D-02  0.431794D-01 -0.127310D+00  0.119047D+00
     16 -0.341494D-03 -0.198760D-03 -0.337393D-02  0.342311D-03 -0.197143D-03
     17  0.148311D-02  0.182163D-02 -0.722922D-03  0.149987D-02 -0.181204D-02
     18  0.182185D-02 -0.592169D-03  0.415708D-03 -0.181223D-02 -0.608712D-03
     19 -0.625907D-03 -0.365060D-03  0.810797D-04  0.627509D-03 -0.362101D-03
     20 -0.337641D-03 -0.404016D-03  0.000000D+00 -0.341417D-03  0.401904D-03
     21 -0.404336D-03  0.121967D-03  0.000000D+00  0.402194D-03  0.125646D-03
               16            17            18            19            20 
     16  0.115141D+01
     17 -0.335495D-04 -0.561964D-03
     18  0.829521D-03  0.000000D+00 -0.563256D-03
     19 -0.113254D+01  0.335410D-04 -0.824537D-03  0.113238D+01
     20  0.335954D-04  0.150112D-02  0.000000D+00 -0.335956D-04 -0.186615D-02
     21 -0.826262D-03  0.000000D+00  0.150151D-02  0.825747D-03  0.000000D+00
               21 
     21 -0.186584D-02
 Leave Link  716 at Sun Oct 13 09:51:50 2024, MaxMem=  2684354560 cpu:               0.8 elap:               0.1
 (Enter /usr/local/g16_AVX//g16/l103.exe)

 GradGradGradGradGradGradGradGradGradGradGradGradGradGradGradGradGradGrad
 Berny optimization.
 Search for a local minimum.
 Step number   1 out of a maximum of    2
 All quantities printed in internal units (Hartrees-Bohrs-Radians)
 Second derivative matrix not updated -- analytic derivatives used.
 ITU=  0
     Eigenvalues ---   -0.00364  -0.00364   0.00239   0.00239   0.01218
     Eigenvalues ---    0.06163   0.06165   0.10904   0.10905   0.11277
     Eigenvalues ---    0.20680   0.48690   0.89447   0.89471   2.27348
 Eigenvalue     1 is  -3.64D-03 should be greater than     0.000000 Eigenvector:
                          Z6        Z7        Z2        Z5        Z4
   1                    0.68235  -0.61654  -0.18910   0.15902   0.15892
                          Z3        X3        Z1        X4        X5
   1                    0.15295   0.14702   0.10967  -0.07474  -0.07278
 Eigenvalue     2 is  -3.64D-03 should be greater than     0.000000 Eigenvector:
                          Y6        Y7        Y2        Y3        Y4
   1                    0.68225  -0.61653  -0.18915   0.16074   0.15524
                          Y5        X5        X4        Y1        Z4
   1                    0.15517   0.12812  -0.12697   0.10972  -0.00476
 Quadratic step=4.222D-01 exceeds max=3.000D-01 adjusted using Lamda=-5.242D-03.
 Angle between NR and scaled steps=   4.05 degrees.
 Angle between quadratic step and forces=  58.60 degrees.
 Linear search not attempted -- first point.
 B after Tr=     0.004816   -0.000003    0.000021
         Rot=    1.000000    0.000000    0.000003   -0.000000 Ang=   0.00 deg.
 Variable       Old X    -DE/DX   Delta X   Delta X   Delta X     New X
                                 (Linear)    (Quad)   (Total)
    X1       -0.63629   0.00441   0.00000  -0.07254  -0.06773  -0.70402
    Y1       -0.00001  -0.00000   0.00000   0.00001   0.00000  -0.00001
    Z1        0.00023   0.00006   0.00000   0.00012   0.00013   0.00036
    X2       -4.10277  -0.01444   0.00000  -0.12516  -0.12035  -4.22312
    Y2       -0.00001  -0.00000   0.00000  -0.00001  -0.00001  -0.00002
    Z2        0.00003  -0.00002   0.00000  -0.00003  -0.00004  -0.00001
    X3       -0.01706   0.00098   0.00000  -0.05979  -0.05496  -0.07202
    Y3        0.00446  -0.00000   0.00000  -0.00000  -0.00001   0.00446
    Z3       -1.95227   0.00083   0.00000   0.00356   0.00358  -1.94870
    X4       -0.01819   0.00101   0.00000  -0.05916  -0.05436  -0.07255
    Y4        1.68886  -0.00073   0.00000  -0.00304  -0.00304   1.68581
    Z4        0.98085  -0.00044   0.00000  -0.00197  -0.00195   0.97891
    X5       -0.01818   0.00101   0.00000  -0.05917  -0.05435  -0.07254
    Y5       -1.69335   0.00073   0.00000   0.00307   0.00306  -1.69029
    Z5        0.97312  -0.00043   0.00000  -0.00196  -0.00193   0.97118
    X6        4.61272   0.00230   0.00000   0.16954   0.17435   4.78707
    Y6        0.00005   0.00000   0.00000  -0.00001  -0.00001   0.00004
    Z6       -0.00108  -0.00000   0.00000   0.00017   0.00022  -0.00086
    X7        6.84178   0.00473   0.00000   0.17258   0.17740   7.01917
    Y7       -0.00002  -0.00000   0.00000  -0.00000  -0.00000  -0.00002
    Z7        0.00054   0.00000   0.00000  -0.00008  -0.00001   0.00053
         Item               Value     Threshold  Converged?
 Maximum Force            0.014443     0.000450     NO 
 RMS     Force            0.003524     0.000300     NO 
 Maximum Displacement     0.177395     0.001800     NO 
 RMS     Displacement     0.065431     0.001200     NO 
 Predicted change in Energy=-1.498722D-03
 GradGradGradGradGradGradGradGradGradGradGradGradGradGradGradGradGradGrad

 Leave Link  103 at Sun Oct 13 09:51:50 2024, MaxMem=  2684354560 cpu:               0.6 elap:               0.1
 (Enter /usr/local/g16_AVX//g16/l9999.exe)

 ----------------------------------------------------------------------

 Electric dipole moment (input orientation):
 (Debye = 10**-18 statcoulomb cm , SI units = C m)
                  (au)            (Debye)         (10**-30 SI)
   Tot        0.384950D+01      0.978445D+01      0.326374D+02
   x         -0.384950D+01     -0.978445D+01     -0.326374D+02
   y         -0.153782D-04     -0.390874D-04     -0.130381D-03
   z          0.347304D-03      0.882758D-03      0.294457D-02

 Dipole polarizability, Alpha (input orientation).
 (esu units = cm**3 , SI units = C**2 m**2 J**-1)
 Alpha(0;0):
               (au)            (10**-24 esu)      (10**-40 SI)
   iso        0.564497D+02      0.836498D+01      0.930729D+01
   aniso      0.502183D+02      0.744158D+01      0.827988D+01
   xx         0.899285D+02      0.133260D+02      0.148272D+02
   yx        -0.278616D-03     -0.412867D-04     -0.459376D-04
   yy         0.397103D+02      0.588446D+01      0.654735D+01
   zx         0.720823D-02      0.106815D-02      0.118848D-02
   zy        -0.227202D-04     -0.336679D-05     -0.374606D-05
   zz         0.397102D+02      0.588444D+01      0.654732D+01

 ----------------------------------------------------------------------

 Dipole orientation:
     6          0.00017314         -0.00000880          0.63628781
    17         -0.00034370          0.00001072          4.10277304
     1         -1.95227572          0.00445391          0.01688429
     1          0.98084639          1.68885979          0.01827225
     1          0.97312148         -1.69334561          0.01827561
     6         -0.00066665          0.00003070         -4.61271950
     7          0.00115962         -0.00004433         -6.84177792

 Electric dipole moment (dipole orientation):
 (Debye = 10**-18 statcoulomb cm , SI units = C m)
                  (au)            (Debye)         (10**-30 SI)
   Tot        0.384950D+01      0.978445D+01      0.326374D+02
   x          0.000000D+00      0.000000D+00      0.000000D+00
   y          0.000000D+00      0.000000D+00      0.000000D+00
   z          0.384950D+01      0.978445D+01      0.326374D+02

 Dipole polarizability, Alpha (dipole orientation).
 (esu units = cm**3 , SI units = C**2 m**2 J**-1)
 Alpha(0;0):
               (au)            (10**-24 esu)      (10**-40 SI)
   iso        0.564497D+02      0.836498D+01      0.930729D+01
   aniso      0.502183D+02      0.744158D+01      0.827988D+01
   xx         0.397102D+02      0.588444D+01      0.654732D+01
   yx        -0.227929D-04     -0.337756D-05     -0.375805D-05
   yy         0.397103D+02      0.588446D+01      0.654735D+01
   zx        -0.117390D-01     -0.173954D-02     -0.193549D-02
   zy         0.479182D-03      0.710074D-04      0.790064D-04
   zz         0.899285D+02      0.133260D+02      0.148272D+02

 ----------------------------------------------------------------------
 1\1\GINC-NODO7\Freq\RB3LYP\6-31++G(d,p)\C2H3Cl1N1(1-)\ALANQF\13-Oct-20
 24\0\\#p b3lyp 6-31++g(d,p) scf=verytight NoSymm freq=noraman int=ultr
 afine\\RxCoord=2.79903 DE=47.02\\-1,1\C,-0.336709,-0.000006,0.000122\C
 l,-2.171094,-0.000003,0.000014\H,-0.009028,0.002361,-1.033099\H,-0.009
 626,0.893704,0.519046\H,-0.009621,-0.896082,0.514951\C,2.440946,0.0000
 26,-0.000573\N,3.620513,-0.000009,0.000287\\Version=ES64L-G16RevB.01\H
 F=-592.9935047\RMSD=2.086e-09\RMSF=3.524e-03\ZeroPoint=0.0434352\Therm
 al=0.0485517\Dipole=-3.7994859,-0.0000159,0.0003686\DipoleDeriv=1.8043
 401,0.000003,-0.0000694,0.0000017,0.0602053,-0.0000022,0.0002041,-0.00
 00023,0.0600626,-1.4209441,-0.0000028,0.0000255,0.0000005,-0.2924614,0
 .0000002,0.0000593,0.0000002,-0.2924765,-0.0314896,0.,0.0002397,-0.000
 0392,0.0808033,0.0001958,0.0175583,0.0001954,-0.00449,-0.0317891,-0.00
 02329,-0.0001412,-0.0154015,0.0168528,-0.0371055,-0.0090138,-0.0371213
 ,0.0592339,-0.0317912,0.0002364,-0.0001413,0.0154459,0.0165118,0.03691
 17,-0.008944,0.0369278,0.0595723,-0.2639354,-0.0000116,0.0002574,-0.00
 003,-0.45935,0.0000002,0.0006759,0.0000002,-0.4593306,-1.0243907,0.000
 0079,-0.0001707,0.0000226,-0.4225618,0.,-0.0005397,0.,-0.4225716\Polar
 =89.928531,-0.0002786,39.7103209,0.0072082,-0.0000227,39.7101527\Quadr
 upole=-26.817645,13.4085451,13.4090999,-0.0000254,-0.0009148,-0.000002
 1\PG=C01 [X(C2H3Cl1N1)]\NImag=2\\0.24005497,0.00000037,0.60478007,-0.0
 0013644,0.00000084,0.60495649,-0.08645953,0.00000003,-0.00001314,0.175
 63914,0.00000007,-0.03341656,0.,0.00000006,0.01762036,-0.00001007,0.00
 000003,-0.03342790,0.00003228,-0.00000002,0.01761683,-0.05316959,-0.00
 019405,0.08475651,-0.02486050,-0.00004436,0.01937714,0.07366470,-0.000
 19073,-0.04937793,0.00064125,0.00001418,0.00063969,-0.00001787,0.00019
 895,0.04591277,0.08330112,0.00064105,-0.32909625,-0.00620373,-0.000017
 90,0.00847286,-0.08685548,-0.00067557,0.34064365,-0.05308122,-0.073138
 77,-0.04246652,-0.02488403,-0.01677611,-0.00974051,0.00384008,0.007006
 73,0.00433344,0.07358150,-0.07189204,-0.25858009,-0.12146157,0.0053522
 2,0.00649300,0.00339523,-0.00021069,0.00211288,0.00248870,0.07496192,0
 .26635705,-0.04173615,-0.12146624,-0.11990686,0.00310130,0.00339061,0.
 00261402,-0.00822329,-0.02503496,-0.01104514,0.04352335,0.12798624,0.1
 2021683,-0.05308270,0.07333215,-0.04213089,-0.02488348,0.01682047,-0.0
 0966359,0.00384013,-0.00702658,0.00430130,0.00383685,-0.00724402,0.003
 89859,0.07358205,0.07208198,-0.25968454,0.12081955,-0.00536624,0.00652
 393,-0.00337738,0.00024829,0.00200925,-0.00242883,0.00722618,-0.017528
 30,0.01370674,-0.07516003,0.26752120,-0.04140619,0.12082439,-0.1187972
 4,0.00307669,-0.00337270,0.00258301,-0.00822243,0.02509461,-0.01094153
 ,0.00393176,-0.01382612,0.00859134,0.04317941,-0.12731004,0.11904748,-
 0.00135409,0.00000015,-0.00000593,-0.00737121,-0.00000008,0.00000283,-
 0.00339710,-0.00000093,0.00039574,-0.00337429,-0.00034149,-0.00019876,
 -0.00337393,0.00034231,-0.00019714,1.15141101,0.00000072,-0.00484903,-
 0.00000009,-0.00000061,0.00258190,0.00000002,0.00000185,-0.00165501,-0
 .00000955,0.00072096,0.00148311,0.00182163,-0.00072292,0.00149987,-0.0
 0181204,-0.00003355,-0.00056196,-0.00002196,-0.00000010,-0.00485897,0.
 00001539,0.00000002,0.00258375,-0.00083315,-0.00000958,0.00253784,0.00
 041902,0.00182185,-0.00059217,0.00041571,-0.00181223,-0.00060871,0.000
 82952,0.00000001,-0.00056326,0.00709216,0.00000013,-0.00000358,-0.0071
 8040,-0.00000006,0.00000192,0.00008228,-0.00000162,0.00072762,0.000081
 11,-0.00062591,-0.00036506,0.00008108,0.00062751,-0.00036210,-1.132540
 39,0.00003354,-0.00082454,1.13238417,-0.00000037,0.00112808,0.00000003
 ,0.00000036,-0.00044233,0.,0.,0.00035834,0.00000208,-0.00000092,-0.000
 33764,-0.00040402,0.00000093,-0.00034142,0.00040190,0.00003360,0.00150
 112,0.00000003,-0.00003360,-0.00186615,0.00000969,0.00000003,0.0011307
 3,-0.00000879,0.,-0.00044258,0.00000070,0.00000211,-0.00057143,-0.0000
 0054,-0.00040434,0.00012197,-0.00000054,0.00040219,0.00012565,-0.00082
 626,0.00000003,0.00150151,0.00082575,-0.00000003,-0.00186584\\-0.00440
 986,0.00000047,-0.00005594,0.01444257,0.00000035,0.00001840,-0.0009807
 6,0.00000202,-0.00082901,-0.00101033,0.00072551,0.00043579,-0.00100956
 ,-0.00072840,0.00043314,-0.00229806,-0.00000005,0.00000011,-0.00473401
 ,0.00000010,-0.00000249\\\@


 THE ENLIGHTENED ONE, BECAUSE HE SAW MANKIND DROWNING  
 IN THE GREAT SEA OF BIRTH, DEATH, AND SORROW, LONGED TO SAVE 
 THEM, FOR THIS HE WAS MOVED TO PITY.                         
 BECAUSE HE SAW MEN OF THE WORLD STRAYING IN FALSE PATHS, AND 
 NONE TO GUIDE THEM, FOR THIS HE WAS MOVED TO PITY.           
                     ..................                       
 BECAUSE HE SAW THE MEN OF THE WORLD PLOUGHING THEIR FIELDS,  
 SOWING THE SEED, TRAFFICKING, HUCKSTERING, BUYING, SELLING,  
 AND AT THE END WINNOWING NOTHING BUT BITTERNESS,             
 FOR THIS HE WAS MOVED TO PITY......                   
                   BUDAH'S PITY - UPSAKA SILA SUTRA           
 Job cpu time:       0 days  0 hours  3 minutes 40.0 seconds.
 Elapsed time:       0 days  0 hours  0 minutes  9.4 seconds.
 File lengths (MBytes):  RWF=     88 Int=      0 D2E=      0 Chk=      2 Scr=      2
 Normal termination of Gaussian 16 at Sun Oct 13 09:51:50 2024.
