RxCoord=2.79903 DE=47.02                                                
Freq      RB3LYP                                                      6-31++G(d,p)        
Number of atoms                            I                7
Info1-9                                    I   N=           9
          16          16           0           0           0         100
           6          18        -502
Full Title                                 C   N=           2
RxCoord=2.79903 DE=47.02
Route                                      C   N=           6
#p b3lyp 6-31++g(d,p) scf=verytight NoSymm freq=noraman int=
ultrafine   
Charge                                     I               -1
Multiplicity                               I                1
Number of electrons                        I               40
Number of alpha electrons                  I               20
Number of beta electrons                   I               20
Number of basis functions                  I               98
Number of independent functions            I               98
Number of point charges in /Mol/           I                0
Number of translation vectors              I                0
Atomic numbers                             I   N=           7
           6          17           1           1           1           6
           7
Nuclear charges                            R   N=           7
  6.00000000E+00  1.70000000E+01  1.00000000E+00  1.00000000E+00  1.00000000E+00
  6.00000000E+00  7.00000000E+00
Current cartesian coordinates              R   N=          21
 -6.36287794E-01 -1.13383567E-05  2.30546587E-04 -4.10277305E+00 -5.66917837E-06
  2.64561657E-05 -1.70604475E-02  4.46164338E-03 -1.95227417E+00 -1.81905037E-02
  1.68885580E+00  9.80854786E-01 -1.81810550E-02 -1.69334957E+00  9.73116358E-01
  4.61271942E+00  4.91328792E-05 -1.08281307E-03  6.84177800E+00 -1.70075351E-05
  5.42351398E-04
Number of symbols in /Mol/                 I                0
Force Field                                I                0
Atom Types                                 C   N=           7
                                                            
                        
Int Atom Types                             I   N=           7
           0           0           0           0           0           0
           0
MM charges                                 R   N=           7
  0.00000000E+00  0.00000000E+00  0.00000000E+00  0.00000000E+00  0.00000000E+00
  0.00000000E+00  0.00000000E+00
Integer atomic weights                     I   N=           7
          12          35           1           1           1          12
          14
Real atomic weights                        R   N=           7
  1.20000000E+01  3.49688527E+01  1.00782504E+00  1.00782504E+00  1.00782504E+00
  1.20000000E+01  1.40030740E+01
Atom fragment info                         I   N=           7
           0           0           0           0           0           0
           0
Atom residue num                           I   N=           7
           0           0           0           0           0           0
           0
Nuclear spins                              I   N=           7
           0           3           1           1           1           0
           2
Nuclear ZEff                               R   N=           7
 -3.60000000E+00 -1.42400000E+01 -1.00000000E+00 -1.00000000E+00 -1.00000000E+00
 -3.60000000E+00 -4.55000000E+00
Nuclear ZNuc                               R   N=           7
  6.00000000E+00  1.70000000E+01  1.00000000E+00  1.00000000E+00  1.00000000E+00
  6.00000000E+00  7.00000000E+00
Nuclear QMom                               R   N=           7
  0.00000000E+00 -8.16500000E+00  0.00000000E+00  0.00000000E+00  0.00000000E+00
  0.00000000E+00  2.04400000E+00
Nuclear GFac                               R   N=           7
  0.00000000E+00  8.21874000E-01  2.79284600E+00  2.79284600E+00  2.79284600E+00
  0.00000000E+00  4.03761000E-01
MicOpt                                     I   N=           7
          -1          -1          -1          -1          -1          -1
          -1
Number of residues                         I                0
Number of secondary structures             I                0
Number of contracted shells                I               33
Number of primitive shells                 I               72
Pure/Cartesian d shells                    I                1
Pure/Cartesian f shells                    I                0
Highest angular momentum                   I                2
Largest degree of contraction              I                6
Shell types                                I   N=          33
           0          -1          -1          -1           2           0
          -1          -1          -1          -1           2           0
           0           0           1           0           0           0
           1           0           0           0           1           0
          -1          -1          -1           2           0          -1
          -1          -1           2
Number of primitives per shell             I   N=          33
           6           3           1           1           1           6
           6           3           1           1           1           3
           1           1           1           3           1           1
           1           3           1           1           1           6
           3           1           1           1           6           3
           1           1           1
Shell to atom map                          I   N=          33
           1           1           1           1           1           2
           2           2           2           2           2           3
           3           3           3           4           4           4
           4           5           5           5           5           6
           6           6           6           6           7           7
           7           7           7
Primitive exponents                        R   N=          72
  3.04752488E+03  4.57369518E+02  1.03948685E+02  2.92101553E+01  9.28666296E+00
  3.16392696E+00  7.86827235E+00  1.88128854E+00  5.44249258E-01  1.68714478E-01
  4.38000000E-02  8.00000000E-01  2.51801000E+04  3.78035000E+03  8.60474000E+02
  2.42145000E+02  7.73349000E+01  2.62470000E+01  4.91765000E+02  1.16984000E+02
  3.74153000E+01  1.37834000E+01  5.45215000E+00  2.22588000E+00  3.18649000E+00
  1.14427000E+00  4.20377000E-01  1.42657000E-01  4.83000000E-02  7.50000000E-01
  1.87311370E+01  2.82539436E+00  6.40121692E-01  1.61277759E-01  3.60000000E-02
  1.10000000E+00  1.87311370E+01  2.82539436E+00  6.40121692E-01  1.61277759E-01
  3.60000000E-02  1.10000000E+00  1.87311370E+01  2.82539436E+00  6.40121692E-01
  1.61277759E-01  3.60000000E-02  1.10000000E+00  3.04752488E+03  4.57369518E+02
  1.03948685E+02  2.92101553E+01  9.28666296E+00  3.16392696E+00  7.86827235E+00
  1.88128854E+00  5.44249258E-01  1.68714478E-01  4.38000000E-02  8.00000000E-01
  4.17351146E+03  6.27457911E+02  1.42902093E+02  4.02343293E+01  1.28202129E+01
  4.39043701E+00  1.16263619E+01  2.71627981E+00  7.72218397E-01  2.12031498E-01
  6.39000000E-02  8.00000000E-01
Contraction coefficients                   R   N=          72
  1.83473713E-03  1.40373228E-02  6.88426223E-02  2.32184443E-01  4.67941348E-01
  3.62311985E-01 -1.19332420E-01 -1.60854152E-01  1.14345644E+00  1.00000000E+00
  1.00000000E+00  1.00000000E+00  1.83295985E-03  1.40341988E-02  6.90973943E-02
  2.37451980E-01  4.83033960E-01  3.39855972E-01 -2.29739142E-03 -3.07137189E-02
 -1.12528069E-01  4.50163278E-02  5.89353363E-01  4.65206287E-01 -2.51828028E-01
  6.15892514E-02  1.06018433E+00  1.00000000E+00  1.00000000E+00  1.00000000E+00
  3.34946043E-02  2.34726953E-01  8.13757326E-01  1.00000000E+00  1.00000000E+00
  1.00000000E+00  3.34946043E-02  2.34726953E-01  8.13757326E-01  1.00000000E+00
  1.00000000E+00  1.00000000E+00  3.34946043E-02  2.34726953E-01  8.13757326E-01
  1.00000000E+00  1.00000000E+00  1.00000000E+00  1.83473713E-03  1.40373228E-02
  6.88426223E-02  2.32184443E-01  4.67941348E-01  3.62311985E-01 -1.19332420E-01
 -1.60854152E-01  1.14345644E+00  1.00000000E+00  1.00000000E+00  1.00000000E+00
  1.83477216E-03  1.39946270E-02  6.85865518E-02  2.32240873E-01  4.69069948E-01
  3.60455199E-01 -1.14961182E-01 -1.69117479E-01  1.14585195E+00  1.00000000E+00
  1.00000000E+00  1.00000000E+00
P(S=P) Contraction coefficients            R   N=          72
  0.00000000E+00  0.00000000E+00  0.00000000E+00  0.00000000E+00  0.00000000E+00
  0.00000000E+00  6.89990666E-02  3.16423961E-01  7.44308291E-01  1.00000000E+00
  1.00000000E+00  0.00000000E+00  0.00000000E+00  0.00000000E+00  0.00000000E+00
  0.00000000E+00  0.00000000E+00  0.00000000E+00  3.98940088E-03  3.03177067E-02
  1.29880029E-01  3.27951072E-01  4.53527100E-01  2.52154056E-01 -1.42993147E-02
  3.23572333E-01  7.43507765E-01  1.00000000E+00  1.00000000E+00  0.00000000E+00
  0.00000000E+00  0.00000000E+00  0.00000000E+00  0.00000000E+00  0.00000000E+00
  0.00000000E+00  0.00000000E+00  0.00000000E+00  0.00000000E+00  0.00000000E+00
  0.00000000E+00  0.00000000E+00  0.00000000E+00  0.00000000E+00  0.00000000E+00
  0.00000000E+00  0.00000000E+00  0.00000000E+00  0.00000000E+00  0.00000000E+00
  0.00000000E+00  0.00000000E+00  0.00000000E+00  0.00000000E+00  6.89990666E-02
  3.16423961E-01  7.44308291E-01  1.00000000E+00  1.00000000E+00  0.00000000E+00
  0.00000000E+00  0.00000000E+00  0.00000000E+00  0.00000000E+00  0.00000000E+00
  0.00000000E+00  6.75797439E-02  3.23907296E-01  7.40895140E-01  1.00000000E+00
  1.00000000E+00  0.00000000E+00
Coordinates of each shell                  R   N=          99
 -6.36287794E-01 -1.13383567E-05  2.30546587E-04 -6.36287794E-01 -1.13383567E-05
  2.30546587E-04 -6.36287794E-01 -1.13383567E-05  2.30546587E-04 -6.36287794E-01
 -1.13383567E-05  2.30546587E-04 -6.36287794E-01 -1.13383567E-05  2.30546587E-04
 -4.10277305E+00 -5.66917837E-06  2.64561657E-05 -4.10277305E+00 -5.66917837E-06
  2.64561657E-05 -4.10277305E+00 -5.66917837E-06  2.64561657E-05 -4.10277305E+00
 -5.66917837E-06  2.64561657E-05 -4.10277305E+00 -5.66917837E-06  2.64561657E-05
 -4.10277305E+00 -5.66917837E-06  2.64561657E-05 -1.70604475E-02  4.46164338E-03
 -1.95227417E+00 -1.70604475E-02  4.46164338E-03 -1.95227417E+00 -1.70604475E-02
  4.46164338E-03 -1.95227417E+00 -1.70604475E-02  4.46164338E-03 -1.95227417E+00
 -1.81905037E-02  1.68885580E+00  9.80854786E-01 -1.81905037E-02  1.68885580E+00
  9.80854786E-01 -1.81905037E-02  1.68885580E+00  9.80854786E-01 -1.81905037E-02
  1.68885580E+00  9.80854786E-01 -1.81810550E-02 -1.69334957E+00  9.73116358E-01
 -1.81810550E-02 -1.69334957E+00  9.73116358E-01 -1.81810550E-02 -1.69334957E+00
  9.73116358E-01 -1.81810550E-02 -1.69334957E+00  9.73116358E-01  4.61271942E+00
  4.91328792E-05 -1.08281307E-03  4.61271942E+00  4.91328792E-05 -1.08281307E-03
  4.61271942E+00  4.91328792E-05 -1.08281307E-03  4.61271942E+00  4.91328792E-05
 -1.08281307E-03  4.61271942E+00  4.91328792E-05 -1.08281307E-03  6.84177800E+00
 -1.70075351E-05  5.42351398E-04  6.84177800E+00 -1.70075351E-05  5.42351398E-04
  6.84177800E+00 -1.70075351E-05  5.42351398E-04  6.84177800E+00 -1.70075351E-05
  5.42351398E-04  6.84177800E+00 -1.70075351E-05  5.42351398E-04
Num ILSW                                   I              100
ILSW                                       I   N=         100
           0           1           0           0           2           0
           0           0           0           0         402          -1
           5           0           0           0           2           0
           0           0           0           0           1           0
           1           1           0           0           0           0
           0           0      100000           0          -1           0
           0           0           0           0           0           0
           0           0           0           1           0           0
           0 -2000000000           1           0           0           0
           0           0           4          52           0           0
           0           0           5           0           0           0
           0           0           0           7           0           1
           0           0           0           0           0           0
           0           0           0           0           0           0
           0           0           0           0           0           0
           0           0           0           0           0           0
           0           0           0           0
Num RLSW                                   I               52
RLSW                                       R   N=          52
  8.00000000E-01  7.20000000E-01  1.00000000E+00  8.10000000E-01  2.00000000E-01
  0.00000000E+00  0.00000000E+00  1.00000000E+00  0.00000000E+00  0.00000000E+00
  0.00000000E+00  0.00000000E+00  1.00000000E+00  0.00000000E+00  0.00000000E+00
  0.00000000E+00  0.00000000E+00  1.00000000E+00  0.00000000E+00  0.00000000E+00
  0.00000000E+00  0.00000000E+00  1.00000000E+00  0.00000000E+00  0.00000000E+00
  0.00000000E+00  0.00000000E+00  1.00000000E+00  0.00000000E+00  0.00000000E+00
  0.00000000E+00  0.00000000E+00  1.00000000E+00  0.00000000E+00  0.00000000E+00
  0.00000000E+00  0.00000000E+00  0.00000000E+00  1.00000000E+00  1.00000000E+00
  0.00000000E+00  1.00000000E+00  0.00000000E+00  0.00000000E+00  0.00000000E+00
  0.00000000E+00  0.00000000E+00  0.00000000E+00  0.00000000E+00  0.00000000E+00
  0.00000000E+00  0.00000000E+00
MxBond                                     I                4
NBond                                      I   N=           7
           4           1           1           1           1           1
           1
IBond                                      I   N=          28
           2           3           4           5           1           0
           0           0           1           0           0           0
           1           0           0           0           1           0
           0           0           7           0           0           0
           6           0           0           0
RBond                                      R   N=          28
  1.00000000E+00  1.00000000E+00  1.00000000E+00  1.00000000E+00  1.00000000E+00
  0.00000000E+00  0.00000000E+00  0.00000000E+00  1.00000000E+00  0.00000000E+00
  0.00000000E+00  0.00000000E+00  1.00000000E+00  0.00000000E+00  0.00000000E+00
  0.00000000E+00  1.00000000E+00  0.00000000E+00  0.00000000E+00  0.00000000E+00
  2.00000000E+00  0.00000000E+00  0.00000000E+00  0.00000000E+00  2.00000000E+00
  0.00000000E+00  0.00000000E+00  0.00000000E+00
Virial Ratio                               R      2.004500678602601E+00
SCF Energy                                 R     -5.929935046923871E+02
Total Energy                               R     -5.929935046923871E+02
RMS Force                                  R      3.524428789396818E-03
RMS Density                                R      2.085950632975426E-09
NImag                                      I                2
Job Status                                 I                1
Nuclear derivative order                   I                2
External E-field                           R   N=          35
  0.00000000E+00  0.00000000E+00  0.00000000E+00  0.00000000E+00  0.00000000E+00
  0.00000000E+00  0.00000000E+00  0.00000000E+00  0.00000000E+00  0.00000000E+00
  0.00000000E+00  0.00000000E+00  0.00000000E+00  0.00000000E+00  0.00000000E+00
  0.00000000E+00  0.00000000E+00  0.00000000E+00  0.00000000E+00  0.00000000E+00
  0.00000000E+00  0.00000000E+00  0.00000000E+00  0.00000000E+00  0.00000000E+00
  0.00000000E+00  0.00000000E+00  0.00000000E+00  0.00000000E+00  0.00000000E+00
  0.00000000E+00  0.00000000E+00  0.00000000E+00  0.00000000E+00  0.00000000E+00
IOpCl                                      I                0
IROHF                                      I                0
Alpha Orbital Energies                     R   N=          98
 -1.01406082E+02 -1.40956213E+01 -1.00970898E+01 -9.96021457E+00 -9.32239768E+00
 -7.08529667E+00 -7.07709470E+00 -7.07709447E+00 -7.11783006E-01 -6.49109182E-01
 -5.36408212E-01 -3.04372807E-01 -3.04363308E-01 -2.73719679E-01 -1.83159957E-01
 -1.72078817E-01 -1.72070037E-01 -9.81238269E-02 -9.81235240E-02 -6.96412509E-02
  1.10335359E-01  1.30071891E-01  1.45986285E-01  1.45986785E-01  1.73046117E-01
  2.04523611E-01  2.04526187E-01  2.05875004E-01  2.21447697E-01  2.21508477E-01
  2.43260146E-01  2.50519331E-01  2.50539698E-01  2.71748597E-01  2.74922720E-01
  2.74951596E-01  3.14889599E-01  3.37648247E-01  3.37701087E-01  3.62902272E-01
  3.86262298E-01  3.86460134E-01  3.86506485E-01  4.66690232E-01  4.82325298E-01
  6.59552815E-01  7.36789075E-01  7.47117107E-01  7.47118638E-01  7.76501029E-01
  7.76517713E-01  8.84244539E-01  8.96872156E-01  8.96889676E-01  9.82889122E-01
  9.97433179E-01  9.97464428E-01  1.04789301E+00  1.04794712E+00  1.08636506E+00
  1.09847393E+00  1.09854101E+00  1.12558350E+00  1.19088017E+00  1.19089801E+00
  1.25938238E+00  1.26926158E+00  1.36752770E+00  1.47924932E+00  1.60659301E+00
  1.60665177E+00  1.77697268E+00  1.78076884E+00  1.78077062E+00  1.80371303E+00
  1.80372328E+00  2.15952332E+00  2.20111012E+00  2.20111745E+00  2.22164214E+00
  2.22169596E+00  2.29241331E+00  2.49593278E+00  2.49605483E+00  2.66841861E+00
  2.83422955E+00  2.83424038E+00  2.84245452E+00  2.95999163E+00  2.96004730E+00
  3.26239835E+00  3.39106814E+00  3.56075303E+00  3.56076001E+00  4.21474160E+00
  4.42034132E+00  4.46080926E+00  4.57387417E+00
Alpha MO coefficients                      R   N=        9604
 -6.19794153E-06  2.47336215E-05 -5.11583079E-05  2.06089528E-10 -9.93352066E-09
  1.08573667E-04 -4.62482218E-05  8.01159322E-10  1.60825008E-08 -3.66767456E-05
 -1.22204903E-04 -1.74625901E-09  1.17552155E-08 -1.76703928E-05  1.28885644E-05
  1.29056288E-05 -2.71829243E-11 -9.46932077E-09 -6.59627496E-11  9.95996876E-01
  1.51509357E-02  3.92069951E-05 -1.43571810E-10 -1.49670745E-11 -2.10645512E-02
 -1.77466646E-05 -3.55854344E-11  3.18153932E-10  1.88091452E-03 -5.39664566E-05
  2.41784834E-10 -9.06020882E-09 -4.49503442E-04 -3.03729221E-05  3.89303173E-10
 -7.89980124E-09  7.50180679E-03  7.52506857E-03  7.52506861E-03  4.28135684E-11
 -4.22015181E-09  1.14039642E-11 -2.63014130E-05 -2.95715522E-05  4.16862055E-05
  2.36997891E-05  2.74536042E-08 -1.20371539E-05 -2.63317707E-05 -2.95247889E-05
  4.16486955E-05  2.36712197E-05  1.04083486E-05  6.04100083E-06 -2.63315907E-05
 -2.95227579E-05  4.16448705E-05  2.36718120E-05 -1.04357927E-05  5.99311163E-06
 -7.40882724E-07  1.14218634E-06  7.50682835E-07  4.14522027E-10 -9.45593616E-09
 -1.21690626E-04 -1.06372188E-04  1.53475079E-09 -4.13529596E-08  2.18324332E-05
 -9.85864699E-05 -1.82779304E-09  3.97198564E-08 -1.21000226E-05  1.21683467E-07
  1.22383136E-07  4.65554534E-10 -1.07235544E-08  4.18278620E-12 -2.29430113E-06
 -9.08458311E-06 -1.24524533E-06 -7.26189971E-12 -1.52285206E-10  1.33800983E-04
 -7.05550831E-05  2.38891392E-09 -5.74261461E-08  9.86111680E-05  1.48427350E-05
  2.46499353E-09 -5.68972071E-08  3.96148163E-06 -6.70293450E-06 -6.70305507E-06
 -5.23175567E-10  1.26573984E-08 -2.26037753E-12  3.24469800E-06  1.70558482E-05
 -1.66227882E-06  2.57094321E-10 -8.02717915E-09 -2.86969496E-05 -2.38476382E-05
 -2.73868884E-10  3.94548402E-08  1.15702795E-03  7.98004063E-05  1.22341102E-08
 -2.66841587E-07 -3.37147017E-06  8.57551180E-06  8.57153260E-06 -1.12382736E-10
  4.95344991E-10  1.86034417E-11  1.14105165E-07  2.17189924E-06 -3.09916119E-07
  3.31050439E-11 -5.87189378E-10  4.75401160E-06  1.96067072E-06 -1.90694525E-10
  3.47439259E-09 -5.35203286E-05 -2.48667234E-05  7.37191800E-10 -1.83048403E-08
 -2.10507100E-04 -8.65990357E-05 -6.38094972E-09  1.53395520E-07  4.03101530E-06
  4.06813900E-06  4.06738820E-06 -5.45436090E-11  1.03046856E-09  5.25015366E-12
  8.33431537E-06 -5.36688035E-05 -1.84285545E-04 -5.99888304E-07  8.27585374E-09
 -3.61765510E-06  8.33079224E-06 -5.36516338E-05 -1.84501520E-04 -5.76410631E-07
  3.12262662E-06  1.81212975E-06  8.33026809E-06 -5.36481766E-05 -1.84516827E-04
 -5.75782453E-07 -3.13052965E-06  1.79760219E-06  8.39030052E-05  2.07366295E-04
 -2.84557346E-04  8.19886445E-09 -2.00772409E-07 -2.51722977E-04 -4.25335878E-04
  1.40092913E-08 -3.46406910E-07  1.45519598E-03  1.03088065E-03 -2.87801515E-08
  6.76146502E-07 -7.60645172E-04 -1.30020181E-05 -1.30015342E-05  2.56772459E-08
 -6.30354582E-07  1.87232283E-11  9.92697343E-01  3.44464985E-02 -1.40153876E-03
  4.14545827E-08 -1.01965710E-06  5.22294218E-03  1.07026176E-04 -3.25480235E-09
  7.97502035E-08 -3.02384684E-03  5.71101301E-05 -3.10124018E-09  9.08690615E-08
 -7.70704884E-03 -8.42489187E-03 -8.42489193E-03 -2.44684729E-08  6.01141316E-07
 -2.63796146E-11  9.92994805E-01  4.96411356E-02 -6.93722454E-04 -8.29523756E-09
  4.35850591E-07 -1.65114823E-02  7.85379269E-04 -1.17339914E-08 -1.24787263E-06
  6.36978485E-03 -2.68798983E-03 -3.00677093E-09 -6.97846638E-07 -9.28065620E-03
 -8.85537607E-03 -8.85535470E-03 -2.02749477E-09 -1.02708956E-07 -2.09108963E-09
 -8.98956665E-06 -4.79186451E-05 -2.33415257E-06 -6.19407687E-11 -1.19240587E-08
 -1.60389537E-05  1.83958136E-04  8.79820711E-11  8.29655092E-08  3.12001323E-03
  1.82417083E-03 -4.01775633E-09 -9.76246330E-09 -5.00326909E-03 -1.71420108E-03
  6.71017957E-09  1.07156331E-07 -1.30197219E-04 -1.71214689E-04 -1.71177282E-04
 -3.08137877E-11 -6.87232596E-09 -3.34006150E-10 -1.49512337E-04  3.03268705E-03
 -8.80430516E-04  3.31700979E-05  2.22981178E-07 -9.69177899E-05 -1.49520804E-04
  3.03389471E-03 -8.80465433E-04  3.32559911E-05  8.39328957E-05  4.87932946E-05
 -1.49528577E-04  3.03388063E-03 -8.80473643E-04  3.32592812E-05 -8.41598827E-05
  4.84124060E-05 -1.75330244E-05 -7.13701661E-05  4.37922855E-05  2.56901171E-09
 -1.26521330E-07 -4.45206996E-04 -9.22374529E-04  4.14929132E-09  1.69772240E-07
  1.30711818E-03  8.13489000E-04 -2.81033036E-09  6.05014421E-07 -1.80935556E-05
 -3.72905433E-05 -3.73295001E-05  3.67951525E-09 -1.05725236E-07 -2.20332071E-10
 -3.23939484E-05 -1.22728161E-04 -8.97744696E-07 -3.38031992E-09  9.56215281E-08
  1.26137307E-03 -3.77534647E-04  2.64638263E-08 -7.23888240E-07 -9.68985258E-04
 -2.53486360E-04 -2.03105875E-08  1.26679215E-07 -3.57469825E-05 -7.68047390E-05
 -7.68005047E-05 -1.50066895E-09  5.92827762E-08  2.45852895E-11 -2.08069356E-05
 -1.00653258E-04 -9.72084729E-05  4.79727786E-10 -3.72119855E-08  4.58424338E-04
  6.16969306E-04 -5.71993013E-09  4.92869869E-07 -2.18974976E-03  4.52063393E-03
  1.14848090E-08 -1.53921857E-07 -1.06875568E-05 -3.12522687E-05 -3.12736675E-05
  2.68946492E-10  1.59911541E-08 -4.26847789E-10  1.49308107E-07  6.51432412E-06
  4.41361380E-06 -3.17953862E-11  3.35862186E-09  1.48055168E-05 -2.98589226E-05
  1.31689941E-10 -1.82604036E-08 -1.42352973E-04  3.56238984E-04  3.20224603E-10
  1.50251920E-08  5.80623113E-03  1.36840924E-03 -8.90606414E-09  1.85577948E-07
  4.78104664E-05 -1.94844987E-06 -1.95638769E-06 -6.79350578E-11 -8.28981398E-10
  3.95540556E-11 -3.77012684E-05 -4.72927943E-04 -7.68773342E-05 -3.34004986E-05
  3.11319602E-08 -1.33788666E-05 -3.76780695E-05 -4.73575980E-04 -7.55444919E-05
 -3.35632200E-05  1.16628944E-05  6.73509918E-06 -3.76792252E-05 -4.73584984E-04
 -7.55070334E-05 -3.35657452E-05 -1.16948431E-05  6.68292762E-06  9.92840292E-01
  4.93373758E-02  1.88662968E-03 -6.12240464E-08  1.50169624E-06 -1.09801420E-02
 -7.90849758E-04  4.58130734E-08 -1.13474215E-06 -7.19281178E-03 -3.97286041E-04
  1.03480661E-07 -2.61418319E-06 -8.45456956E-03 -9.70989565E-03 -9.70988469E-03
 -4.32047480E-08  1.06790819E-06  2.72446119E-11 -4.91833144E-04  4.51827716E-05
  4.40728551E-04 -1.26078850E-08  3.09168363E-07 -1.07504451E-03  5.26444768E-04
 -2.05301579E-08  5.02789987E-07  8.95795885E-03 -3.31622092E-03  6.33314229E-08
 -1.50408118E-06 -2.76864294E-04  1.70963526E-04  1.70963139E-04  1.69238975E-08
 -4.16267747E-07  1.71043009E-11 -1.06563225E-04  1.32332471E-04  3.58749625E-04
  2.00515409E-10 -3.52426738E-08  2.94824680E-03 -1.53413747E-03 -1.77860322E-08
  2.25704127E-07 -3.75660245E-02  3.75631230E-02  8.01277971E-08 -6.18126721E-07
 -7.57341841E-04 -1.21932253E-04 -1.21851458E-04  1.13603084E-09 -9.96809216E-09
 -2.48120469E-09 -2.84604081E-01  1.02274500E+00  4.78383180E-03 -2.04432332E-08
  7.80272271E-08  7.60563369E-02  5.90581247E-04  1.32200945E-10  2.14146347E-09
 -2.65952605E-02 -1.66642272E-03  9.38395053E-10  1.76042054E-08  6.49876722E-02
  1.79360870E-02 -7.06426887E-08  1.94029724E-06 -1.51925519E-02 -1.55752630E-02
 -1.55752642E-02 -1.55945058E-09  4.22340669E-08 -1.58639369E-10 -3.95832156E-05
 -7.65744899E-04  1.18293568E-03 -7.18333785E-05 -2.29656736E-08  1.06155006E-05
 -3.94794409E-05 -7.66148026E-04  1.18338325E-03 -7.21799507E-05 -9.11765915E-06
 -5.33323335E-06 -3.94785943E-05 -7.66191960E-04  1.18350301E-03 -7.21770211E-05
  9.13968533E-06 -5.28857876E-06  1.63581472E-05  7.30011411E-05  4.58730498E-05
 -1.33875577E-08  3.49281834E-07  2.07661359E-04  5.25894406E-04  3.11044369E-08
 -8.59953281E-07 -2.13840484E-02  1.09936111E-02  3.96770083E-07 -8.99818380E-06
  8.78204022E-05  1.00150170E-05  1.00234471E-05 -3.01086633E-09  7.58808572E-08
  3.67317732E-11  1.07469478E-05  5.73369558E-05 -1.82124391E-05 -7.19653255E-09
  1.59384129E-07 -7.38032255E-04  5.51409303E-04  1.45074000E-08 -2.64545044E-07
  1.01747383E-03 -2.94552873E-03 -2.14217591E-07  4.97480303E-06 -4.70413176E-05
  2.87100231E-05  2.87086504E-05  5.72258253E-09 -1.48393526E-07  5.42773085E-11
  6.39575378E-05  1.55581555E-03  3.38153049E-04 -3.99367644E-09  1.60245865E-07
 -5.77662373E-04  1.74581161E-03  8.04535597E-09 -1.74473367E-06  4.79076539E-02
 -5.70087304E-02 -1.09678618E-07  2.69844827E-06 -1.95158061E-03  1.96321801E-04
  1.96702972E-04  6.08393887E-09 -1.26176434E-07 -1.68527256E-09  1.40970437E-03
 -5.38599905E-03  9.90325734E-01 -3.13637467E-06  2.03111851E-06 -4.29752116E-04
  3.15055982E-02 -9.73885893E-08  2.44103947E-07  5.34204617E-03 -1.29305589E-02
  3.59944363E-08 -1.20894666E-07 -7.52315168E-02 -1.49063296E-02  9.75973065E-08
 -2.71144466E-06  7.33342380E-04 -4.73259853E-04 -4.73247628E-04 -2.32328616E-09
  1.21232004E-07 -1.11154522E-10 -1.86606827E-04  1.38060374E-03 -5.83382831E-03
 -3.24587789E-04  7.40167481E-08 -3.24622877E-05 -1.85681803E-04  1.38153083E-03
 -5.83514107E-03 -3.25122666E-04  2.79696321E-05  1.63214017E-05 -1.85687183E-04
  1.38153407E-03 -5.83516110E-03 -3.25117164E-04 -2.80430537E-05  1.61922670E-05
 -2.36019902E-05 -1.60902109E-04 -1.01860716E-04  1.50241699E-08 -3.75144067E-07
  3.15731130E-03  2.04588613E-03 -1.10756601E-07  2.75183771E-06  4.42637811E-02
 -1.77117578E-02 -7.18513592E-07  1.65049434E-05  1.42280187E-04 -4.53300265E-05
 -4.53387515E-05 -8.20710333E-09  1.88162349E-07 -1.05644930E-10 -2.77642761E-06
  1.54773722E-05  3.91213943E-05  1.16581001E-08 -2.67803851E-07 -1.34852213E-03
  1.06744064E-03 -8.47144584E-08  2.00338994E-06 -8.99114261E-03  6.04155325E-03
  3.02090487E-07 -7.03256931E-06 -1.36029719E-04  1.91370452E-05  1.91399851E-05
  2.16736211E-09 -5.18201834E-08 -3.80524397E-11  8.54935921E-08  5.28211816E-07
  1.86642020E-07  8.72001701E-07 -8.36743100E-05 -2.43733610E-06 -1.03973921E-06
 -3.28084804E-06  3.15050667E-04  8.76972702E-06 -2.29181215E-05 -4.36243962E-06
  4.21126940E-04  3.19953770E-08 -8.51594707E-05  8.51839273E-05 -1.46092357E-06
  1.40166993E-04  3.49619985E-07  2.44804966E-08 -1.34851687E-07 -2.15210978E-06
 -1.03245484E-02  9.90787100E-01 -4.55911491E-08  1.61906673E-07 -3.08518222E-04
  2.96068849E-02  1.21133849E-06 -6.41515230E-07  1.21307666E-04 -1.16418983E-02
 -2.58755582E-05 -6.25396308E-06 -5.41469607E-05  5.19804763E-03 -6.05146314E-08
  4.89542499E-06 -4.99551534E-06 -3.31227009E-06  3.17875011E-04 -2.15280185E-08
  6.00172845E-05 -5.76842140E-04  4.71652215E-03  2.66816789E-04  3.27523483E-07
 -5.38597288E-05 -2.93478371E-05  2.86758175E-04 -2.32642693E-03 -1.31667926E-04
 -1.21582447E-05 -3.22964865E-05 -3.01912428E-05  2.94914835E-04 -2.39264696E-03
 -1.35426596E-04  1.30670428E-05 -3.24448566E-05 -1.90767421E-08 -6.86857269E-08
 -8.90706725E-08 -5.09663050E-07  4.89672289E-05 -3.69304430E-06 -3.18768379E-06
  1.99090516E-06 -1.91711370E-04  1.74992178E-05 -9.50207352E-06 -1.05880657E-05
  1.02292631E-03 -2.16926976E-07  3.45747356E-06 -3.39418260E-06  4.64445145E-08
 -4.53113360E-06 -1.34802949E-08 -1.13576685E-07 -4.46935520E-07  4.07824741E-08
  2.12040706E-07 -2.05910453E-05  5.12654569E-06 -2.48225170E-06 -1.29408788E-06
  1.25518484E-04 -1.33309004E-06  3.05160321E-06  4.14538550E-06 -4.02698100E-04
  3.35248568E-08  1.60169562E-06 -2.19979011E-06  1.44028194E-07 -1.38557437E-05
 -7.72951681E-09  9.61403933E-10  8.36397613E-09 -5.40509841E-09 -8.37464794E-05
 -8.72616695E-07 -3.80395157E-08  4.08649439E-08  3.14280669E-04  3.27714168E-06
  6.36714510E-08  6.95817205E-08  4.19294132E-04  4.39529018E-06 -2.04808940E-09
 -3.04004380E-07  3.02565290E-07  1.40170907E-04  1.46035138E-06 -9.86211083E-05
 -1.04846702E-09  3.25287572E-09  3.11475608E-06  9.90787114E-01  1.03245479E-02
 -1.46184141E-09  9.72518782E-08  2.96068132E-02  3.08521173E-04  2.43992102E-08
 -1.49644947E-08 -1.16415509E-02 -1.21318715E-04  5.86689488E-08  1.54445008E-08
  5.19757520E-03  5.41811177E-05  6.36352235E-09  1.42058952E-08 -1.89843736E-08
  3.17908018E-04  3.31293943E-06  5.73857515E-06  4.85073271E-07 -4.69763680E-06
  3.84276650E-05  2.16738651E-06 -2.51478260E-05 -4.96485102E-07 -5.18464777E-05
  5.04223931E-04 -4.09965897E-03 -2.32363585E-04 -4.69687508E-05 -1.30220397E-05
  5.13637026E-05 -4.99500085E-04  4.06120012E-03  2.30183211E-04 -4.68213945E-05
  1.22795565E-05 -1.14122272E-10 -1.10992004E-09  1.87984366E-09  4.89374409E-05