 Entering Gaussian System, Link 0=g16
 Initial command:
 /usr/local/g16_AVX//g16/l1.exe "/scratch/alanqf/0130-54572.ixchel.mda.cinvestav.mx/Gau-40806.inp" -scrdir="/scratch/alanqf/0130-54572.ixchel.mda.cinvestav.mx/"
 Entering Link 1 = /usr/local/g16_AVX//g16/l1.exe PID=     40807.
  
 Copyright (c) 1988-2017, Gaussian, Inc.  All Rights Reserved.
  
 This is part of the Gaussian(R) 16 program.  It is based on
 the Gaussian(R) 09 system (copyright 2009, Gaussian, Inc.),
 the Gaussian(R) 03 system (copyright 2003, Gaussian, Inc.),
 the Gaussian(R) 98 system (copyright 1998, Gaussian, Inc.),
 the Gaussian(R) 94 system (copyright 1995, Gaussian, Inc.),
 the Gaussian 92(TM) system (copyright 1992, Gaussian, Inc.),
 the Gaussian 90(TM) system (copyright 1990, Gaussian, Inc.),
 the Gaussian 88(TM) system (copyright 1988, Gaussian, Inc.),
 the Gaussian 86(TM) system (copyright 1986, Carnegie Mellon
 University), and the Gaussian 82(TM) system (copyright 1983,
 Carnegie Mellon University). Gaussian is a federally registered
 trademark of Gaussian, Inc.
  
 This software contains proprietary and confidential information,
 including trade secrets, belonging to Gaussian, Inc.
  
 This software is provided under written license and may be
 used, copied, transmitted, or stored only in accord with that
 written license.
  
 The following legend is applicable only to US Government
 contracts under FAR:
  
                    RESTRICTED RIGHTS LEGEND
  
 Use, reproduction and disclosure by the US Government is
 subject to restrictions as set forth in subparagraphs (a)
 and (c) of the Commercial Computer Software - Restricted
 Rights clause in FAR 52.227-19.
  
 Gaussian, Inc.
 340 Quinnipiac St., Bldg. 40, Wallingford CT 06492
  
  
 ---------------------------------------------------------------
 Warning -- This program may not be used in any manner that
 competes with the business of Gaussian, Inc. or will provide
 assistance to any competitor of Gaussian, Inc.  The licensee
 of this program is prohibited from giving any competitor of
 Gaussian, Inc. access to this program.  By using this program,
 the user acknowledges that Gaussian, Inc. is engaged in the
 business of creating and licensing software in the field of
 computational chemistry and represents and warrants to the
 licensee that it is not a competitor of Gaussian, Inc. and that
 it will not use this program in any manner prohibited above.
 ---------------------------------------------------------------
  

 Cite this work as:
 Gaussian 16, Revision B.01,
 M. J. Frisch, G. W. Trucks, H. B. Schlegel, G. E. Scuseria, 
 M. A. Robb, J. R. Cheeseman, G. Scalmani, V. Barone, 
 G. A. Petersson, H. Nakatsuji, X. Li, M. Caricato, A. V. Marenich, 
 J. Bloino, B. G. Janesko, R. Gomperts, B. Mennucci, H. P. Hratchian, 
 J. V. Ortiz, A. F. Izmaylov, J. L. Sonnenberg, D. Williams-Young, 
 F. Ding, F. Lipparini, F. Egidi, J. Goings, B. Peng, A. Petrone, 
 T. Henderson, D. Ranasinghe, V. G. Zakrzewski, J. Gao, N. Rega, 
 G. Zheng, W. Liang, M. Hada, M. Ehara, K. Toyota, R. Fukuda, 
 J. Hasegawa, M. Ishida, T. Nakajima, Y. Honda, O. Kitao, H. Nakai, 
 T. Vreven, K. Throssell, J. A. Montgomery, Jr., J. E. Peralta, 
 F. Ogliaro, M. J. Bearpark, J. J. Heyd, E. N. Brothers, K. N. Kudin, 
 V. N. Staroverov, T. A. Keith, R. Kobayashi, J. Normand, 
 K. Raghavachari, A. P. Rendell, J. C. Burant, S. S. Iyengar, 
 J. Tomasi, M. Cossi, J. M. Millam, M. Klene, C. Adamo, R. Cammi, 
 J. W. Ochterski, R. L. Martin, K. Morokuma, O. Farkas, 
 J. B. Foresman, and D. J. Fox, Gaussian, Inc., Wallingford CT, 2016.
 
 ******************************************
 Gaussian 16:  ES64L-G16RevB.01 20-Dec-2017
                13-Oct-2024 
 ******************************************
 %NProcShared=26
 Will use up to   26 processors via shared memory.
 %MEM=20GB
 %chk=CHKfiles/0130.chk
 ---------------------------------------------------------------------
 #p b3lyp 6-31++g(d,p) scf=verytight NoSymm freq=noraman int=ultrafine
 ---------------------------------------------------------------------
 1/10=4,30=1,38=1/1,3;
 2/12=2,15=1,17=6,18=5,40=1/2;
 3/5=1,6=6,7=1111,11=2,25=1,30=1,71=2,74=-5,75=-5,140=1/1,2,3;
 4//1;
 5/5=2,17=3,38=5,98=1/2;
 8/6=4,10=90,11=11/1;
 11/6=1,8=1,9=11,15=111,16=1,31=1/1,2,10;
 10/6=1,31=1/2;
 6/7=2,8=2,9=2,10=2,28=1/1;
 7/8=1,10=1,25=1,30=1/1,2,3,16;
 1/10=4,30=1/3;
 99//99;
 Leave Link    1 at Sun Oct 13 09:51:41 2024, MaxMem=  2684354560 cpu:               1.2 elap:               0.1
 (Enter /usr/local/g16_AVX//g16/l101.exe)
 ------------------------
 RxCoord=2.89900 DE=46.86
 ------------------------
 Symbolic Z-matrix:
 Charge = -1 Multiplicity = 1
 C                    -0.34218  -0.00001   0.00025 
 Cl                   -2.17507  0.         0. 
 H                    -0.01331   0.00237  -1.03279 
 H                    -0.01403   0.89357   0.51912 
 H                    -0.01404  -0.89595   0.51502 
 C                     2.44928   0.00003  -0.00071 
 N                     3.62894  -0.00001   0.0003 
 
 ITRead=  0  0  0  0  0  0  0
 MicOpt= -1 -1 -1 -1 -1 -1 -1
 NAtoms=      7 NQM=        7 NQMF=       0 NMMI=      0 NMMIF=      0
                NMic=       0 NMicF=      0.
                    Isotopes and Nuclear Properties:
 (Nuclear quadrupole moments (NQMom) in fm**2, nuclear magnetic moments (NMagM)
  in nuclear magnetons)

  Atom         1           2           3           4           5           6           7
 IAtWgt=          12          35           1           1           1          12          14
 AtmWgt=  12.0000000  34.9688527   1.0078250   1.0078250   1.0078250  12.0000000  14.0030740
 NucSpn=           0           3           1           1           1           0           2
 AtZEff=  -0.0000000  -0.0000000  -0.0000000  -0.0000000  -0.0000000  -0.0000000  -0.0000000
 NQMom=    0.0000000  -8.1650000   0.0000000   0.0000000   0.0000000   0.0000000   2.0440000
 NMagM=    0.0000000   0.8218740   2.7928460   2.7928460   2.7928460   0.0000000   0.4037610
 AtZNuc=   6.0000000  17.0000000   1.0000000   1.0000000   1.0000000   6.0000000   7.0000000
 Leave Link  101 at Sun Oct 13 09:51:41 2024, MaxMem=  2684354560 cpu:               2.8 elap:               0.1
 (Enter /usr/local/g16_AVX//g16/l103.exe)

 GradGradGradGradGradGradGradGradGradGradGradGradGradGradGradGradGradGrad
 Berny optimization.
 Initialization pass.
 Trust Radius=3.00D-01 FncErr=1.00D-07 GrdErr=1.00D-07 EigMax=2.50D+02 EigMin=1.00D-04
 Number of steps in this run=      2 maximum allowed number of steps=      2.
 GradGradGradGradGradGradGradGradGradGradGradGradGradGradGradGradGradGrad

 Leave Link  103 at Sun Oct 13 09:51:41 2024, MaxMem=  2684354560 cpu:               0.5 elap:               0.1
 (Enter /usr/local/g16_AVX//g16/l202.exe)
                          Input orientation:                          
 ---------------------------------------------------------------------
 Center     Atomic      Atomic             Coordinates (Angstroms)
 Number     Number       Type             X           Y           Z
 ---------------------------------------------------------------------
      1          6           0       -0.342179   -0.000007    0.000245
      2         17           0       -2.175073   -0.000003    0.000000
      3          1           0       -0.013310    0.002365   -1.032785
      4          1           0       -0.014034    0.893565    0.519122
      5          1           0       -0.014035   -0.895954    0.515015
      6          6           0        2.449275    0.000029   -0.000705
      7          7           0        3.628942   -0.000010    0.000297
 ---------------------------------------------------------------------
                    Distance matrix (angstroms):
                    1          2          3          4          5
     1  C    0.000000
     2  Cl   1.832894   0.000000
     3  H    1.084118   2.395803   0.000000
     4  H    1.084151   2.395421   1.789596   0.000000
     5  H    1.084153   2.395424   1.789598   1.789524   0.000000
     6  C    2.791454   4.624348   2.670116   2.671426   2.671451
     7  N    3.971121   5.804015   3.785930   3.786678   3.786678
                    6          7
     6  C    0.000000
     7  N    1.179667   0.000000
 Symmetry turned off by external request.
 This structure is nearly, but not quite of a higher symmetry.
 Consider Symm=Loose if the higher symmetry is desired.
 Stoichiometry    C2H3ClN(1-)
 Framework group  C1[X(C2H3ClN)]
 Deg. of freedom    15
 Full point group                 C1      NOp   1
 Rotational constants (GHZ):         156.5785633           1.1895416           1.1895410
 Leave Link  202 at Sun Oct 13 09:51:41 2024, MaxMem=  2684354560 cpu:               0.2 elap:               0.0
 (Enter /usr/local/g16_AVX//g16/l301.exe)
 Standard basis: 6-31++G(d,p) (6D, 7F)
 Ernie: Thresh=  0.10000D-02 Tol=  0.10000D-05 Strict=F.
    98 basis functions,   176 primitive gaussians,    98 cartesian basis functions
    20 alpha electrons       20 beta electrons
       nuclear repulsion energy       110.6721646581 Hartrees.
 IExCor=  402 DFT=T Ex+Corr=B3LYP ExCW=0 ScaHFX=  0.200000
 ScaDFX=  0.800000  0.720000  1.000000  0.810000 ScalE2=  1.000000  1.000000
 IRadAn=      5 IRanWt=     -1 IRanGd=            0 ICorTp=0 IEmpDi=  4
 NAtoms=    7 NActive=    7 NUniq=    7 SFac= 1.00D+00 NAtFMM=   60 NAOKFM=F Big=F
 Integral buffers will be    131072 words long.
 Raffenetti 2 integral format.
 Two-electron integral symmetry is turned off.
 Leave Link  301 at Sun Oct 13 09:51:41 2024, MaxMem=  2684354560 cpu:               1.3 elap:               0.1
 (Enter /usr/local/g16_AVX//g16/l302.exe)
 NPDir=0 NMtPBC=     1 NCelOv=     1 NCel=       1 NClECP=     1 NCelD=      1
         NCelK=      1 NCelE2=     1 NClLst=     1 CellRange=     0.0.
 One-electron integrals computed using PRISM.
 NBasis=    98 RedAO= T EigKep=  1.27D-04  NBF=    98
 NBsUse=    98 1.00D-06 EigRej= -1.00D+00 NBFU=    98
 Precomputing XC quadrature grid using
 IXCGrd= 4 IRadAn=           5 IRanWt=          -1 IRanGd=           0 AccXCQ= 0.00D+00.
 Generated NRdTot=       0 NPtTot=           0 NUsed=           0 NTot=          32
 NSgBfM=    98    98    98    98    98 MxSgAt=     7 MxSgA2=     7.
 Leave Link  302 at Sun Oct 13 09:51:41 2024, MaxMem=  2684354560 cpu:               3.9 elap:               0.2
 (Enter /usr/local/g16_AVX//g16/l303.exe)
 DipDrv:  MaxL=1.
 Leave Link  303 at Sun Oct 13 09:51:41 2024, MaxMem=  2684354560 cpu:               0.7 elap:               0.1
 (Enter /usr/local/g16_AVX//g16/l401.exe)
 ExpMin= 3.60D-02 ExpMax= 2.52D+04 ExpMxC= 3.78D+03 IAcc=3 IRadAn=         5 AccDes= 0.00D+00
 Harris functional with IExCor=  402 and IRadAn=       5 diagonalized for initial guess.
 HarFok:  IExCor=  402 AccDes= 0.00D+00 IRadAn=         5 IDoV= 1 UseB2=F ITyADJ=14
 ICtDFT=  3500011 ScaDFX=  1.000000  1.000000  1.000000  1.000000
 FoFCou: FMM=F IPFlag=           0 FMFlag=      100000 FMFlg1=           0
         NFxFlg=           0 DoJE=T BraDBF=F KetDBF=T FulRan=T
         wScrn=  0.000000 ICntrl=       500 IOpCl=  0 I1Cent=   200000004 NGrid=           0
         NMat0=    1 NMatS0=      1 NMatT0=    0 NMatD0=    1 NMtDS0=    0 NMtDT0=    0
 Symmetry not used in FoFCou.
 Harris En= -593.077005373666    
 JPrj=0 DoOrth=F DoCkMO=F.
 Leave Link  401 at Sun Oct 13 09:51:42 2024, MaxMem=  2684354560 cpu:               5.8 elap:               0.3
 (Enter /usr/local/g16_AVX//g16/l502.exe)
 Keep R1 ints in memory in canonical form, NReq=35752935.
 FoFCou: FMM=F IPFlag=           0 FMFlag=           0 FMFlg1=           0
         NFxFlg=           0 DoJE=F BraDBF=F KetDBF=F FulRan=T
         wScrn=  0.000000 ICntrl=       600 IOpCl=  0 I1Cent=           0 NGrid=           0
         NMat0=    1 NMatS0=   4851 NMatT0=    0 NMatD0=    1 NMtDS0=    0 NMtDT0=    0
 Symmetry not used in FoFCou.
 Two-electron integral symmetry not used.
 Closed shell SCF:
 Using DIIS extrapolation, IDIIS=  1040.
 NGot=  2684354560 LenX=  2672563405 LenY=  2672553360
 Requested convergence on RMS density matrix=1.00D-08 within 128 cycles.
 Requested convergence on MAX density matrix=1.00D-06.
 Requested convergence on             energy=1.00D-06.
 No special actions if energy rises.

 Cycle   1  Pass 1  IDiag  1:
 E= -592.839928175406    
 DIIS: error= 3.47D-02 at cycle   1 NSaved=   1.
 NSaved= 1 IEnMin= 1 EnMin= -592.839928175406     IErMin= 1 ErrMin= 3.47D-02
 ErrMax= 3.47D-02  0.00D+00 EMaxC= 1.00D-01 BMatC= 1.33D-01 BMatP= 1.33D-01
 IDIUse=3 WtCom= 6.53D-01 WtEn= 3.47D-01
 Coeff-Com:  0.100D+01
 Coeff-En:   0.100D+01
 Coeff:      0.100D+01
 Gap=     0.627 Goal=   None    Shift=    0.000
 GapD=    0.627 DampG=2.000 DampE=0.500 DampFc=1.0000 IDamp=-1.
 RMSDP=8.99D-02 MaxDP=3.12D+00              OVMax= 3.84D-01

 Cycle   2  Pass 1  IDiag  1:
 E= -592.633813687298     Delta-E=        0.206114488108 Rises=F Damp=F
 DIIS: error= 4.82D-02 at cycle   2 NSaved=   2.
 NSaved= 2 IEnMin= 1 EnMin= -592.839928175406     IErMin= 1 ErrMin= 3.47D-02
 ErrMax= 4.82D-02  0.00D+00 EMaxC= 1.00D-01 BMatC= 3.02D-01 BMatP= 1.33D-01
 IDIUse=2 WtCom= 0.00D+00 WtEn= 1.00D+00
 Coeff-En:   0.687D+00 0.313D+00
 Coeff:      0.687D+00 0.313D+00
 Gap=     0.154 Goal=   None    Shift=    0.000
 RMSDP=8.83D-02 MaxDP=3.14D+00 DE= 2.06D-01 OVMax= 2.49D-01

 Cycle   3  Pass 1  IDiag  1:
 E= -592.982300498296     Delta-E=       -0.348486810998 Rises=F Damp=F
 DIIS: error= 8.06D-03 at cycle   3 NSaved=   3.
 NSaved= 3 IEnMin= 3 EnMin= -592.982300498296     IErMin= 3 ErrMin= 8.06D-03
 ErrMax= 8.06D-03  0.00D+00 EMaxC= 1.00D-01 BMatC= 1.04D-02 BMatP= 1.33D-01
 IDIUse=3 WtCom= 9.19D-01 WtEn= 8.06D-02
 Coeff-Com:  0.268D+00 0.103D+00 0.629D+00
 Coeff-En:   0.000D+00 0.000D+00 0.100D+01
 Coeff:      0.246D+00 0.945D-01 0.659D+00
 Gap=     0.186 Goal=   None    Shift=    0.000
 RMSDP=2.79D-03 MaxDP=4.92D-02 DE=-3.48D-01 OVMax= 5.05D-02

 Cycle   4  Pass 1  IDiag  1:
 E= -592.986962549814     Delta-E=       -0.004662051518 Rises=F Damp=F
 DIIS: error= 1.19D-02 at cycle   4 NSaved=   4.
 NSaved= 4 IEnMin= 4 EnMin= -592.986962549814     IErMin= 3 ErrMin= 8.06D-03
 ErrMax= 1.19D-02  0.00D+00 EMaxC= 1.00D-01 BMatC= 7.11D-03 BMatP= 1.04D-02
 IDIUse=3 WtCom= 8.81D-01 WtEn= 1.19D-01
 Coeff-Com:  0.518D-01-0.247D-01 0.496D+00 0.477D+00
 Coeff-En:   0.000D+00 0.000D+00 0.383D+00 0.617D+00
 Coeff:      0.456D-01-0.218D-01 0.482D+00 0.494D+00
 Gap=     0.177 Goal=   None    Shift=    0.000
 RMSDP=9.98D-04 MaxDP=1.55D-02 DE=-4.66D-03 OVMax= 2.98D-02

 Cycle   5  Pass 1  IDiag  1:
 E= -592.993337791801     Delta-E=       -0.006375241986 Rises=F Damp=F
 DIIS: error= 2.65D-03 at cycle   5 NSaved=   5.
 NSaved= 5 IEnMin= 5 EnMin= -592.993337791801     IErMin= 5 ErrMin= 2.65D-03
 ErrMax= 2.65D-03  0.00D+00 EMaxC= 1.00D-01 BMatC= 3.13D-04 BMatP= 7.11D-03
 IDIUse=3 WtCom= 9.73D-01 WtEn= 2.65D-02
 Coeff-Com:  0.169D-01-0.124D-01 0.228D+00 0.278D+00 0.490D+00
 Coeff-En:   0.000D+00 0.000D+00 0.000D+00 0.000D+00 0.100D+01
 Coeff:      0.165D-01-0.121D-01 0.222D+00 0.270D+00 0.503D+00
 Gap=     0.180 Goal=   None    Shift=    0.000
 RMSDP=3.02D-04 MaxDP=4.86D-03 DE=-6.38D-03 OVMax= 6.95D-03

 Cycle   6  Pass 1  IDiag  1:
 E= -592.993619933285     Delta-E=       -0.000282141484 Rises=F Damp=F
 DIIS: error= 8.57D-04 at cycle   6 NSaved=   6.
 NSaved= 6 IEnMin= 6 EnMin= -592.993619933285     IErMin= 6 ErrMin= 8.57D-04
 ErrMax= 8.57D-04  0.00D+00 EMaxC= 1.00D-01 BMatC= 3.08D-05 BMatP= 3.13D-04
 IDIUse=3 WtCom= 9.91D-01 WtEn= 8.57D-03
 Coeff-Com:  0.310D-02-0.601D-02 0.607D-01 0.748D-01 0.262D+00 0.605D+00
 Coeff-En:   0.000D+00 0.000D+00 0.000D+00 0.000D+00 0.730D-01 0.927D+00
 Coeff:      0.308D-02-0.596D-02 0.602D-01 0.742D-01 0.260D+00 0.608D+00
 Gap=     0.179 Goal=   None    Shift=    0.000
 RMSDP=7.63D-05 MaxDP=1.46D-03 DE=-2.82D-04 OVMax= 1.69D-03

 Cycle   7  Pass 1  IDiag  1:
 E= -592.993649349537     Delta-E=       -0.000029416252 Rises=F Damp=F
 DIIS: error= 6.80D-05 at cycle   7 NSaved=   7.
 NSaved= 7 IEnMin= 7 EnMin= -592.993649349537     IErMin= 7 ErrMin= 6.80D-05
 ErrMax= 6.80D-05  0.00D+00 EMaxC= 1.00D-01 BMatC= 4.16D-07 BMatP= 3.08D-05
 IDIUse=1 WtCom= 1.00D+00 WtEn= 0.00D+00
 Coeff-Com:  0.345D-03-0.829D-03 0.269D-02 0.212D-02 0.436D-01 0.183D+00
 Coeff-Com:  0.769D+00
 Coeff:      0.345D-03-0.829D-03 0.269D-02 0.212D-02 0.436D-01 0.183D+00
 Coeff:      0.769D+00
 Gap=     0.180 Goal=   None    Shift=    0.000
 RMSDP=1.38D-05 MaxDP=2.42D-04 DE=-2.94D-05 OVMax= 2.70D-04

 Cycle   8  Pass 1  IDiag  1:
 E= -592.993649831920     Delta-E=       -0.000000482383 Rises=F Damp=F
 DIIS: error= 1.08D-05 at cycle   8 NSaved=   8.
 NSaved= 8 IEnMin= 8 EnMin= -592.993649831920     IErMin= 8 ErrMin= 1.08D-05
 ErrMax= 1.08D-05  0.00D+00 EMaxC= 1.00D-01 BMatC= 1.68D-08 BMatP= 4.16D-07
 IDIUse=1 WtCom= 1.00D+00 WtEn= 0.00D+00
 Coeff-Com:  0.939D-04-0.128D-03 0.804D-04 0.250D-03 0.104D-01 0.462D-01
 Coeff-Com:  0.243D+00 0.700D+00
 Coeff:      0.939D-04-0.128D-03 0.804D-04 0.250D-03 0.104D-01 0.462D-01
 Coeff:      0.243D+00 0.700D+00
 Gap=     0.180 Goal=   None    Shift=    0.000
 RMSDP=2.43D-06 MaxDP=6.93D-05 DE=-4.82D-07 OVMax= 4.64D-05

 Cycle   9  Pass 1  IDiag  1:
 E= -592.993649849300     Delta-E=       -0.000000017380 Rises=F Damp=F
 DIIS: error= 3.15D-06 at cycle   9 NSaved=   9.
 NSaved= 9 IEnMin= 9 EnMin= -592.993649849300     IErMin= 9 ErrMin= 3.15D-06
 ErrMax= 3.15D-06  0.00D+00 EMaxC= 1.00D-01 BMatC= 1.75D-09 BMatP= 1.68D-08
 IDIUse=1 WtCom= 1.00D+00 WtEn= 0.00D+00
 Coeff-Com: -0.112D-04 0.138D-04-0.147D-03 0.137D-03 0.134D-02 0.485D-02
 Coeff-Com:  0.363D-01 0.268D+00 0.690D+00
 Coeff:     -0.112D-04 0.138D-04-0.147D-03 0.137D-03 0.134D-02 0.485D-02
 Coeff:      0.363D-01 0.268D+00 0.690D+00
 Gap=     0.180 Goal=   None    Shift=    0.000
 RMSDP=7.78D-07 MaxDP=2.01D-05 DE=-1.74D-08 OVMax= 1.21D-05

 Cycle  10  Pass 1  IDiag  1:
 E= -592.993649851215     Delta-E=       -0.000000001915 Rises=F Damp=F
 DIIS: error= 4.03D-07 at cycle  10 NSaved=  10.
 NSaved=10 IEnMin=10 EnMin= -592.993649851215     IErMin=10 ErrMin= 4.03D-07
 ErrMax= 4.03D-07  0.00D+00 EMaxC= 1.00D-01 BMatC= 2.31D-11 BMatP= 1.75D-09
 IDIUse=1 WtCom= 1.00D+00 WtEn= 0.00D+00
 Coeff-Com: -0.831D-05 0.677D-05-0.171D-04 0.348D-04-0.272D-04-0.613D-03
 Coeff-Com: -0.174D-02 0.212D-01 0.137D+00 0.844D+00
 Coeff:     -0.831D-05 0.677D-05-0.171D-04 0.348D-04-0.272D-04-0.613D-03
 Coeff:     -0.174D-02 0.212D-01 0.137D+00 0.844D+00
 Gap=     0.180 Goal=   None    Shift=    0.000
 RMSDP=1.61D-07 MaxDP=3.52D-06 DE=-1.92D-09 OVMax= 2.08D-06

 Cycle  11  Pass 1  IDiag  1:
 E= -592.993649851244     Delta-E=       -0.000000000029 Rises=F Damp=F
 DIIS: error= 5.37D-08 at cycle  11 NSaved=  11.
 NSaved=11 IEnMin=11 EnMin= -592.993649851244     IErMin=11 ErrMin= 5.37D-08
 ErrMax= 5.37D-08  0.00D+00 EMaxC= 1.00D-01 BMatC= 3.20D-13 BMatP= 2.31D-11
 IDIUse=1 WtCom= 1.00D+00 WtEn= 0.00D+00
 Coeff-Com: -0.116D-05 0.639D-06-0.829D-05-0.111D-04-0.516D-04-0.152D-03
 Coeff-Com: -0.209D-03-0.228D-02 0.458D-02 0.843D-01 0.914D+00
 Coeff:     -0.116D-05 0.639D-06-0.829D-05-0.111D-04-0.516D-04-0.152D-03
 Coeff:     -0.209D-03-0.228D-02 0.458D-02 0.843D-01 0.914D+00
 Gap=     0.180 Goal=   None    Shift=    0.000
 RMSDP=3.75D-08 MaxDP=7.21D-07 DE=-2.89D-11 OVMax= 3.97D-07

 Cycle  12  Pass 1  IDiag  1:
 E= -592.993649851245     Delta-E=       -0.000000000001 Rises=F Damp=F
 DIIS: error= 6.25D-09 at cycle  12 NSaved=  12.
 NSaved=12 IEnMin=12 EnMin= -592.993649851245     IErMin=12 ErrMin= 6.25D-09
 ErrMax= 6.25D-09  0.00D+00 EMaxC= 1.00D-01 BMatC= 4.25D-15 BMatP= 3.20D-13
 IDIUse=1 WtCom= 1.00D+00 WtEn= 0.00D+00
 Coeff-Com: -0.536D-07 0.115D-07-0.965D-06-0.232D-05-0.916D-05-0.204D-04
 Coeff-Com: -0.364D-04-0.818D-03-0.214D-02 0.218D-03 0.118D+00 0.885D+00
 Coeff:     -0.536D-07 0.115D-07-0.965D-06-0.232D-05-0.916D-05-0.204D-04
 Coeff:     -0.364D-04-0.818D-03-0.214D-02 0.218D-03 0.118D+00 0.885D+00
 Gap=     0.180 Goal=   None    Shift=    0.000
 RMSDP=2.06D-09 MaxDP=4.13D-08 DE=-9.09D-13 OVMax= 4.30D-08

 SCF Done:  E(RB3LYP) =  -592.993649851     A.U. after   12 cycles
            NFock= 12  Conv=0.21D-08     -V/T= 2.0045
 KE= 5.903338462282D+02 PE=-1.631074044792D+03 EE= 3.370743840546D+02
 Leave Link  502 at Sun Oct 13 09:51:43 2024, MaxMem=  2684354560 cpu:              33.8 elap:               1.6
 (Enter /usr/local/g16_AVX//g16/l801.exe)
 DoSCS=F DFT=T ScalE2(SS,OS)=  1.000000  1.000000
 Range of M.O.s used for correlation:     1    98
 NBasis=    98 NAE=    20 NBE=    20 NFC=     0 NFV=     0
 NROrb=     98 NOA=    20 NOB=    20 NVA=    78 NVB=    78

 **** Warning!!: The largest alpha MO coefficient is  0.35007148D+02

 Leave Link  801 at Sun Oct 13 09:51:43 2024, MaxMem=  2684354560 cpu:               0.7 elap:               0.1
 (Enter /usr/local/g16_AVX//g16/l1101.exe)
 Using compressed storage, NAtomX=     7.
 Will process      8 centers per pass.
 Leave Link 1101 at Sun Oct 13 09:51:43 2024, MaxMem=  2684354560 cpu:               3.3 elap:               0.2
 (Enter /usr/local/g16_AVX//g16/l1102.exe)
 Symmetrizing basis deriv contribution to polar:
 IMax=3 JMax=2 DiffMx= 0.00D+00
 Leave Link 1102 at Sun Oct 13 09:51:43 2024, MaxMem=  2684354560 cpu:               0.7 elap:               0.1
 (Enter /usr/local/g16_AVX//g16/l1110.exe)
 Forming Gx(P) for the SCF density, NAtomX=     7.
 Integral derivatives from FoFJK, PRISM(SPDF).
 Do as many integral derivatives as possible in FoFJK.
 G2DrvN: MDV=    2684353864.
 G2DrvN: will do     8 centers at a time, making    1 passes.
 Calling FoFCou, ICntrl=  3107 FMM=F I1Cent=   0 AccDes= 0.00D+00.
 FoFJK:  IHMeth= 1 ICntrl=    3107 DoSepK=F KAlg= 0 I1Cent=           0 FoldK=F
 IRaf=         0 NMat=       1 IRICut=       1 DoRegI=T DoRafI=F ISym2E= 0 IDoP0=0 IntGTp=1.
 FoFCou: FMM=F IPFlag=           0 FMFlag=      100000 FMFlg1=           0
         NFxFlg=           0 DoJE=F BraDBF=F KetDBF=F FulRan=T
         wScrn=  0.000000 ICntrl=      3107 IOpCl=  0 I1Cent=           0 NGrid=           0
         NMat0=    1 NMatS0=      1 NMatT0=    0 NMatD0=    1 NMtDS0=    0 NMtDT0=    0
 Symmetry not used in FoFCou.
 End of G2Drv F.D. properties file   721 does not exist.
 End of G2Drv F.D. properties file   722 does not exist.
 End of G2Drv F.D. properties file   788 does not exist.
 Leave Link 1110 at Sun Oct 13 09:51:45 2024, MaxMem=  2684354560 cpu:              37.5 elap:               1.5
 (Enter /usr/local/g16_AVX//g16/l1002.exe)
 Minotr:  Closed shell wavefunction.
          IDoAtm=1111111
          Direct CPHF calculation.
          Differentiating once with respect to electric field.
                with respect to dipole field.
          Differentiating once with respect to nuclear coordinates.
          Requested convergence is 1.0D-08 RMS, and 1.0D-07 maximum.
          Secondary convergence is 1.0D-12 RMS, and 1.0D-12 maximum.
          NewPWx=T KeepS1=F KeepF1=F KeepIn=T MapXYZ=F SortEE=F KeepMc=T.
         2136 words used for storage of precomputed grid.
 Keep R1 ints in memory in canonical form, NReq=35668397.
 FoFCou: FMM=F IPFlag=           0 FMFlag=           0 FMFlg1=           0
         NFxFlg=           0 DoJE=F BraDBF=F KetDBF=F FulRan=T
         wScrn=  0.000000 ICntrl=       600 IOpCl=  0 I1Cent=           0 NGrid=           0
         NMat0=    1 NMatS0=   4851 NMatT0=    0 NMatD0=    1 NMtDS0=    0 NMtDT0=    0
 Symmetry not used in FoFCou.
 Two-electron integral symmetry not used.
          MDV=    2684354560 using IRadAn=       1.
          Solving linear equations simultaneously, MaxMat=       0.
          There are    24 degrees of freedom in the 1st order CPHF.  IDoFFX=6 NUNeed=     3.
     21 vectors produced by pass  0 Test12= 6.50D-15 4.17D-09 XBig12= 8.27D+01 4.35D+00.
 AX will form    21 AO Fock derivatives at one time.
     21 vectors produced by pass  1 Test12= 6.50D-15 4.17D-09 XBig12= 4.51D+01 2.01D+00.
     21 vectors produced by pass  2 Test12= 6.50D-15 4.17D-09 XBig12= 1.35D+00 2.94D-01.
     21 vectors produced by pass  3 Test12= 6.50D-15 4.17D-09 XBig12= 2.85D-02 4.75D-02.
     21 vectors produced by pass  4 Test12= 6.50D-15 4.17D-09 XBig12= 8.46D-05 2.24D-03.
     16 vectors produced by pass  5 Test12= 6.50D-15 4.17D-09 XBig12= 1.97D-07 9.40D-05.
      6 vectors produced by pass  6 Test12= 6.50D-15 4.17D-09 XBig12= 2.38D-10 3.01D-06.
      1 vectors produced by pass  7 Test12= 6.50D-15 4.17D-09 XBig12= 2.79D-13 1.28D-07.
      1 vectors produced by pass  8 Test12= 6.50D-15 4.17D-09 XBig12= 4.26D-16 4.66D-09.
 InvSVY:  IOpt=1 It=  1 EMax= 4.44D-15
 Solved reduced A of dimension   129 with    24 vectors.
 FullF1:  Do perturbations      1 to       3.
 Isotropic polarizability for W=    0.000000       56.37 Bohr**3.
 End of Minotr F.D. properties file   721 does not exist.
 End of Minotr F.D. properties file   722 does not exist.
 End of Minotr F.D. properties file   788 does not exist.
 Leave Link 1002 at Sun Oct 13 09:51:47 2024, MaxMem=  2684354560 cpu:              51.7 elap:               2.1
 (Enter /usr/local/g16_AVX//g16/l601.exe)
 Copying SCF densities to generalized density rwf, IOpCl= 0 IROHF=0.

 **********************************************************************

            Population analysis using the SCF Density.

 **********************************************************************

 Alpha  occ. eigenvalues -- -101.40681 -14.09543 -10.09749  -9.96011  -9.32312
 Alpha  occ. eigenvalues --   -7.08604  -7.07781  -7.07781  -0.71264  -0.64886
 Alpha  occ. eigenvalues --   -0.53676  -0.30478  -0.30477  -0.27439  -0.18304
 Alpha  occ. eigenvalues --   -0.17258  -0.17258  -0.09789  -0.09789  -0.06950
 Alpha virt. eigenvalues --    0.11014   0.12976   0.14582   0.14582   0.17312
 Alpha virt. eigenvalues --    0.20431   0.20432   0.20565   0.22134   0.22141
 Alpha virt. eigenvalues --    0.24296   0.25037   0.25040   0.27164   0.27508
 Alpha virt. eigenvalues --    0.27512   0.31476   0.33718   0.33724   0.36266
 Alpha virt. eigenvalues --    0.38638   0.38641   0.38651   0.46647   0.48209
 Alpha virt. eigenvalues --    0.65787   0.73572   0.74669   0.74669   0.77605
 Alpha virt. eigenvalues --    0.77607   0.88347   0.89690   0.89692   0.98207
 Alpha virt. eigenvalues --    0.99679   0.99683   1.04729   1.04735   1.08615
 Alpha virt. eigenvalues --    1.09806   1.09813   1.12564   1.19082   1.19084
 Alpha virt. eigenvalues --    1.25575   1.26891   1.36800   1.47768   1.60608
 Alpha virt. eigenvalues --    1.60614   1.77330   1.78101   1.78101   1.80386
 Alpha virt. eigenvalues --    1.80387   2.15931   2.20127   2.20128   2.22128
 Alpha virt. eigenvalues --    2.22133   2.29335   2.49465   2.49477   2.66959
 Alpha virt. eigenvalues --    2.83438   2.83440   2.84037   2.95912   2.95916
 Alpha virt. eigenvalues --    3.26192   3.38973   3.56008   3.56010   4.21419
 Alpha virt. eigenvalues --    4.41913   4.46025   4.57373
          Condensed to atoms (all electrons):
               1          2          3          4          5          6
     1  C    5.443773  -0.085980   0.418424   0.418363   0.418361  -0.182808
     2  Cl  -0.085980  17.364455  -0.050326  -0.050498  -0.050502   0.069388
     3  H    0.418424  -0.050326   0.507948  -0.023419  -0.023419  -0.042735
     4  H    0.418363  -0.050498  -0.023419   0.508142  -0.023451  -0.042433
     5  H    0.418361  -0.050502  -0.023419  -0.023451   0.508144  -0.042424
     6  C   -0.182808   0.069388  -0.042735  -0.042433  -0.042424   6.087417
     7  N   -0.001515  -0.002587   0.000348   0.000330   0.000329   0.662030
               7
     1  C   -0.001515
     2  Cl  -0.002587
     3  H    0.000348
     4  H    0.000330
     5  H    0.000329
     6  C    0.662030
     7  N    6.849169
 Mulliken charges:
               1
     1  C   -0.428620
     2  Cl  -0.193949
     3  H    0.213179
     4  H    0.212967
     5  H    0.212962
     6  C   -0.508435
     7  N   -0.508104
 Sum of Mulliken charges =  -1.00000
 Mulliken charges with hydrogens summed into heavy atoms:
               1
     1  C    0.210488
     2  Cl  -0.193949
     6  C   -0.508435
     7  N   -0.508104
 APT charges:
               1
     1  C    0.633620
     2  Cl  -0.662689
     3  H    0.015279
     4  H    0.015069
     5  H    0.015066
     6  C   -0.393889
     7  N   -0.622456
 Sum of APT charges =  -1.00000
 APT charges with hydrogens summed into heavy atoms:
               1
     1  C    0.679034
     2  Cl  -0.662689
     6  C   -0.393889
     7  N   -0.622456
 Electronic spatial extent (au):  <R**2>=            878.3034
 Charge=             -1.0000 electrons
 Dipole moment (field-independent basis, Debye):
    X=             -9.8544    Y=             -0.0000    Z=              0.0013  Tot=              9.8544
 Quadrupole moment (field-independent basis, Debye-Ang):
   XX=            -89.7571   YY=            -35.4316   ZZ=            -35.4308
   XY=             -0.0000   XZ=             -0.0009   YZ=             -0.0000
 Traceless Quadrupole moment (field-independent basis, Debye-Ang):
   XX=            -36.2173   YY=             18.1082   ZZ=             18.1090
   XY=             -0.0000   XZ=             -0.0009   YZ=             -0.0000
 Octapole moment (field-independent basis, Debye-Ang**2):
  XXX=           -184.6948  YYY=             -0.0063  ZZZ=             -0.8726  XYY=            -11.8351
  XXY=              0.0003  XXZ=             -0.0093  XZZ=            -11.8339  YZZ=              0.0060
  YYZ=              0.8789  XYZ=              0.0000
 Hexadecapole moment (field-independent basis, Debye-Ang**3):
 XXXX=          -1902.2354 YYYY=            -56.0616 ZZZZ=            -56.0611 XXXY=              0.0007
 XXXZ=             -0.0359 YYYX=             -0.0017 YYYZ=             -0.0000 ZZZX=             -0.0451
 ZZZY=              0.0000 XXYY=           -226.7920 XXZZ=           -226.7912 YYZZ=            -18.6862
 XXYZ=              0.0000 YYXZ=              0.0710 ZZXY=              0.0000
 N-N= 1.106721646581D+02 E-N=-1.631074044652D+03  KE= 5.903338462282D+02
  Exact polarizability:  89.612  -0.000  39.747   0.009  -0.000  39.746
 Approx polarizability: 110.527  -0.001  49.667   0.019  -0.000  49.666
 No NMR shielding tensors so no spin-rotation constants.
 Leave Link  601 at Sun Oct 13 09:51:47 2024, MaxMem=  2684354560 cpu:               2.6 elap:               0.1
 (Enter /usr/local/g16_AVX//g16/l701.exe)
 ... and contract with generalized density number  0.
 Compute integral second derivatives.
 Leave Link  701 at Sun Oct 13 09:51:48 2024, MaxMem=  2684354560 cpu:               4.8 elap:               0.2
 (Enter /usr/local/g16_AVX//g16/l702.exe)
 L702 exits ... SP integral derivatives will be done elsewhere.
 Leave Link  702 at Sun Oct 13 09:51:48 2024, MaxMem=  2684354560 cpu:               0.5 elap:               0.0
 (Enter /usr/local/g16_AVX//g16/l703.exe)
 Integral derivatives from FoFJK, PRISM(SPDF).
 Compute integral second derivatives, UseDBF=F ICtDFT=           0.
 Calling FoFJK, ICntrl=    100127 FMM=F ISym2X=0 I1Cent= 0 IOpClX= 0 NMat=1 NMatS=1 NMatT=0.
 FoFJK:  IHMeth= 1 ICntrl=  100127 DoSepK=F KAlg= 0 I1Cent=           0 FoldK=F
 IRaf=         0 NMat=       1 IRICut=       1 DoRegI=T DoRafI=F ISym2E= 0 IDoP0=0 IntGTp=1.
 FoFCou: FMM=F IPFlag=           0 FMFlag=      100000 FMFlg1=         800
         NFxFlg=           0 DoJE=F BraDBF=F KetDBF=F FulRan=T
         wScrn=  0.000000 ICntrl=    100127 IOpCl=  0 I1Cent=           0 NGrid=           0
         NMat0=    1 NMatS0=      1 NMatT0=    0 NMatD0=    1 NMtDS0=    0 NMtDT0=    0
 Symmetry not used in FoFCou.
 Leave Link  703 at Sun Oct 13 09:51:50 2024, MaxMem=  2684354560 cpu:              65.2 elap:               2.6
 (Enter /usr/local/g16_AVX//g16/l716.exe)
 Dipole        =-3.87702539D+00-1.79786888D-05 5.10097572D-04
 Polarizability= 8.96115768D+01-3.07085326D-04 3.97465517D+01
                 8.68078213D-03-2.34218330D-05 3.97460835D+01
 Full mass-weighted force constant matrix:
 Low frequencies ---  -89.2566  -89.2435  -41.6470  -41.6334   -0.0052   -0.0032
 Low frequencies ---   -0.0025  109.0037  111.1653
 ******    2 imaginary frequencies (negative Signs) ****** 
 Diagonal vibrational polarizability:
       79.2017347      25.7793297      25.8005959
 Harmonic frequencies (cm**-1), IR intensities (KM/Mole), Raman scattering
 activities (A**4/AMU), depolarization ratios for plane and unpolarized
 incident light, reduced masses (AMU), force constants (mDyne/A),
 and normal coordinates:
                      1                      2                      3
                      A                      A                      A
 Frequencies --    -89.0126               -89.0002               110.5481
 Red. masses --      9.3113                 9.3094                 3.7376
 Frc consts  --      0.0435                 0.0434                 0.0269
 IR Inten    --      0.0253                 0.0254                11.6331
  Atom  AN      X      Y      Z        X      Y      Z        X      Y      Z
     1   6    -0.00   0.00   0.24     0.00   0.24  -0.00    -0.00  -0.00   0.39
     2  17    -0.00  -0.00  -0.11     0.00  -0.11   0.00    -0.00   0.00  -0.10
     3   1     0.19   0.01   0.29    -0.00   0.30  -0.01     0.26  -0.00   0.48
     4   1    -0.10   0.00   0.30    -0.16   0.30  -0.01    -0.13   0.01   0.47
     5   1    -0.09   0.01   0.30     0.16   0.30  -0.00    -0.13  -0.02   0.47
     6   6    -0.00   0.01   0.60     0.00   0.60  -0.01     0.00   0.00  -0.25
     7   7     0.00  -0.01  -0.50    -0.00  -0.50   0.01     0.00  -0.00   0.02
                      4                      5                      6
                      A                      A                      A
 Frequencies --    110.5915               164.1253               603.3868
 Red. masses --      3.7387                12.0900                 9.5962
 Frc consts  --      0.0269                 0.1919                 2.0584
 IR Inten    --     11.6317                58.5759               273.5804
  Atom  AN      X      Y      Z        X      Y      Z        X      Y      Z
     1   6     0.00   0.39   0.00    -0.31   0.00  -0.00     0.72  -0.00   0.00
     2  17     0.00  -0.10  -0.00    -0.28  -0.00   0.00    -0.29   0.00  -0.00
     3   1     0.00   0.46   0.00    -0.27   0.00   0.01     0.35   0.00  -0.10
     4   1    -0.23   0.48   0.02    -0.27  -0.01  -0.01     0.35   0.09   0.05
     5   1     0.23   0.48  -0.01    -0.27   0.01  -0.01     0.35  -0.09   0.05
     6   6    -0.00  -0.25  -0.00     0.55   0.00   0.00     0.02   0.00  -0.00
     7   7    -0.00   0.02   0.00     0.56  -0.00   0.00     0.01  -0.00   0.00
                      7                      8                      9
                      A                      A                      A
 Frequencies --   1016.0324              1016.2690              1306.9263
 Red. masses --      1.1427                 1.1427                 1.0894
 Frc consts  --      0.6950                 0.6953                 1.0963
 IR Inten    --      0.2069                 0.2080                20.9933
  Atom  AN      X      Y      Z        X      Y      Z        X      Y      Z
     1   6     0.00  -0.00  -0.10    -0.00  -0.10   0.00    -0.08  -0.00   0.00
     2  17    -0.00   0.00   0.02     0.00   0.02  -0.00    -0.02   0.00  -0.00
     3   1     0.77   0.00   0.13    -0.01   0.23  -0.00     0.55  -0.00   0.18
     4   1    -0.39  -0.04   0.20    -0.66   0.16  -0.04     0.55  -0.15  -0.09
     5   1    -0.38   0.04   0.20     0.67   0.16   0.04     0.55   0.15  -0.09
     6   6    -0.00  -0.00  -0.00     0.00  -0.00   0.00    -0.00  -0.00   0.00
     7   7    -0.00  -0.00  -0.00     0.00  -0.00   0.00    -0.00   0.00  -0.00
                     10                     11                     12
                      A                      A                      A
 Frequencies --   1457.3797              1457.4667              2156.3769
 Red. masses --      1.0620                 1.0620                12.8242
 Frc consts  --      1.3290                 1.3292                35.1343
 IR Inten    --      7.3811                 7.3752                16.1632
  Atom  AN      X      Y      Z        X      Y      Z        X      Y      Z
     1   6     0.00  -0.07  -0.00    -0.00   0.00  -0.07    -0.00  -0.00   0.00
     2  17     0.00  -0.00  -0.00    -0.00   0.00  -0.00     0.00  -0.00   0.00
     3   1    -0.00   0.75   0.00    -0.28  -0.00  -0.13    -0.02   0.00  -0.01
     4   1     0.24   0.09  -0.38     0.14  -0.39   0.53    -0.02   0.01   0.00
     5   1    -0.24   0.09   0.39     0.14   0.38   0.53    -0.02  -0.01   0.00
     6   6     0.00  -0.00  -0.00    -0.00   0.00  -0.00     0.76  -0.00   0.00
     7   7     0.00   0.00   0.00     0.00  -0.00   0.00    -0.65   0.00  -0.00
                     13                     14                     15
                      A                      A                      A
 Frequencies --   3134.0286              3261.9352              3262.3053
 Red. masses --      1.0244                 1.1119                 1.1120
 Frc consts  --      5.9282                 6.9708                 6.9725
 IR Inten    --     12.4705                 0.1961                 0.1899
  Atom  AN      X      Y      Z        X      Y      Z        X      Y      Z
     1   6     0.04  -0.00   0.00    -0.00  -0.10   0.00     0.00  -0.00  -0.10
     2  17    -0.00   0.00  -0.00     0.00   0.00  -0.00    -0.00   0.00   0.00
     3   1    -0.16  -0.00   0.55     0.00  -0.02  -0.01    -0.24  -0.00   0.78
     4   1    -0.16  -0.48  -0.28     0.20   0.57   0.34     0.12   0.35   0.19
     5   1    -0.16   0.48  -0.28    -0.21   0.58  -0.35     0.11  -0.34   0.17
     6   6     0.00   0.00  -0.00    -0.00   0.00  -0.00     0.00   0.00   0.00
     7   7     0.00  -0.00   0.00    -0.00  -0.00   0.00     0.00  -0.00  -0.00

 -------------------
 - Thermochemistry -
 -------------------
 Temperature   298.150 Kelvin.  Pressure   1.00000 Atm.
 Atom     1 has atomic number  6 and mass  12.00000
 Atom     2 has atomic number 17 and mass  34.96885
 Atom     3 has atomic number  1 and mass   1.00783
 Atom     4 has atomic number  1 and mass   1.00783
 Atom     5 has atomic number  1 and mass   1.00783
 Atom     6 has atomic number  6 and mass  12.00000
 Atom     7 has atomic number  7 and mass  14.00307
 Molecular mass:    75.99540 amu.
 Principal axes and moments of inertia in atomic units:
                           1         2         3
     Eigenvalues --    11.526111517.173721517.17438
           X            1.00000   0.00002  -0.00000
           Y            0.00000  -0.01818   0.99983
           Z           -0.00002   0.99983   0.01818
 This molecule is an asymmetric top.
 Rotational symmetry number  1.
 Rotational temperatures (Kelvin)      7.51459     0.05709     0.05709
 Rotational constants (GHZ):         156.57856     1.18954     1.18954
    2 imaginary frequencies ignored.
 Zero-point vibrational energy     113988.4 (Joules/Mol)
                                   27.24388 (Kcal/Mol)
 Warning -- explicit consideration of   4 degrees of freedom as
           vibrations may cause significant error
 Vibrational temperatures:    159.05   159.12   236.14   868.14  1461.84
          (Kelvin)           1462.18  1880.38  2096.84  2096.97  3102.55
                             4509.17  4693.20  4693.73
 
 Zero-point correction=                           0.043416 (Hartree/Particle)
 Thermal correction to Energy=                    0.048547
 Thermal correction to Enthalpy=                  0.049491
 Thermal correction to Gibbs Free Energy=         0.014625
 Sum of electronic and zero-point Energies=           -592.950234
 Sum of electronic and thermal Energies=              -592.945103
 Sum of electronic and thermal Enthalpies=            -592.944159
 Sum of electronic and thermal Free Energies=         -592.979024
 
                     E (Thermal)             CV                S
                      KCal/Mol        Cal/Mol-Kelvin    Cal/Mol-Kelvin
 Total                   30.464             13.799             73.381
 Electronic               0.000              0.000              0.000
 Translational            0.889              2.981             38.900
 Rotational               0.889              2.981             24.787
 Vibrational             28.686              7.837              9.694
 Vibration     1          0.606              1.941              3.259
 Vibration     2          0.606              1.941              3.259
 Vibration     3          0.623              1.887              2.502
 Vibration     4          0.962              1.025              0.444
                       Q            Log10(Q)             Ln(Q)
 Total Bot       0.187411D-06         -6.727206        -15.489964
 Total V=0       0.174863D+14         13.242698         30.492440
 Vib (Bot)       0.123435D-18        -18.908563        -43.538575
 Vib (Bot)    1  0.185247D+01          0.267752          0.616522
 Vib (Bot)    2  0.185173D+01          0.267578          0.616121
 Vib (Bot)    3  0.123019D+01          0.089973          0.207172
 Vib (Bot)    4  0.246606D+00         -0.607996         -1.399961
 Vib (V=0)       0.115171D+02          1.061341          2.443829
 Vib (V=0)    1  0.241877D+01          0.383594          0.883257
 Vib (V=0)    2  0.241805D+01          0.383465          0.882961
 Vib (V=0)    3  0.182792D+01          0.261958          0.603180
 Vib (V=0)    4  0.105751D+01          0.024284          0.055915
 Electronic      0.100000D+01          0.000000          0.000000
 Translational   0.260396D+08          7.415635         17.075130
 Rotational      0.583072D+05          4.765722         10.973481
 
                                                       RxCoord=2.89900 DE=46.86
                                                             IR Spectrum
 
      3   3                                      2                          1     1          1                                       
      2   1                                      1                          4     3          0               6                1 1    
      6   3                                      5                          5     0          1               0                6 1    
      2   4                                      6                          7     7          6               3                4 1    
 
      X   X                                      X                          X     X          X               X                X X    
                                                                                  X                          X                X X    
                                                                                                             X                X      
                                                                                                             X                X      
                                                                                                             X                       
                                                                                                             X                       
                                                                                                             X                       
                                                                                                             X                       
                                                                                                             X                       
                                                                                                             X                       
                                                                                                             X                       
                                                                                                             X                       
                                                                                                             X                       
                                                                                                             X                       
                                                                                                             X                       
                                                                                                             X                       
                                                                                                             X                       
                                                                                                             X                       
                                                                                                             X                       
                                                                                                             X                       
 
 -------------------------------------------------------------------
 Center     Atomic                   Forces (Hartrees/Bohr)
 Number     Number              X              Y              Z
 -------------------------------------------------------------------
      1        6           0.004765584   -0.000000705    0.000058235
      2       17          -0.014402458   -0.000000166   -0.000018433
      3        1           0.000988387   -0.000002029    0.000874198
      4        1           0.001018163   -0.000766470   -0.000460111
      5        1           0.001017784    0.000769443   -0.000457133
      6        6           0.002069785    0.000000034    0.000000648
      7        7           0.004542755   -0.000000106    0.000002595
 -------------------------------------------------------------------
 Cartesian Forces:  Max     0.014402458 RMS     0.003521903
 Z-matrix is all fixed cartesians, so copy forces.
 Force constants in Cartesian coordinates: 
                1             2             3             4             5 
      1  0.243174D+00
      2  0.134723D-05  0.603801D+00
      3 -0.165546D-03  0.000000D+00  0.603994D+00
      4 -0.881422D-01  0.000000D+00 -0.182440D-04  0.176940D+00
      5  0.000000D+00 -0.334187D-01  0.000000D+00  0.000000D+00  0.176634D-01
      6 -0.149043D-04  0.000000D+00 -0.334313D-01  0.444161D-04  0.000000D+00
      7 -0.535985D-01 -0.194627D-03  0.848085D-01 -0.248601D-01 -0.446320D-04
      8 -0.191446D-03 -0.493960D-01  0.641270D-03  0.142159D-04  0.639061D-03
      9  0.833971D-01  0.641126D-03 -0.328489D+00 -0.618254D-02 -0.179660D-04
     10 -0.534969D-01 -0.731495D-01 -0.424753D-01 -0.248821D-01 -0.168413D-01
     11 -0.719414D-01 -0.258128D+00 -0.121195D+00  0.532979D-02  0.649837D-02
     12 -0.417664D-01 -0.121199D+00 -0.119775D+00  0.308634D-02  0.339266D-02
     13 -0.534975D-01  0.733423D-01 -0.421378D-01 -0.248818D-01  0.168862D-01
     14  0.721309D-01 -0.259234D+00  0.120553D+00 -0.534363D-02  0.652935D-02
     15 -0.414345D-01  0.120557D+00 -0.118665D+00  0.306171D-02 -0.337464D-02
     16 -0.134170D-02  0.000000D+00 -0.743077D-05 -0.712603D-02  0.000000D+00
     17  0.000000D+00 -0.471593D-02  0.000000D+00  0.000000D+00  0.251850D-02
     18 -0.269800D-04  0.000000D+00 -0.472829D-02  0.184723D-04  0.000000D+00
     19  0.690337D-02  0.000000D+00 -0.418074D-05 -0.704739D-02  0.000000D+00
     20  0.000000D+00  0.109152D-02  0.000000D+00  0.000000D+00 -0.429980D-03
     21  0.113323D-04  0.000000D+00  0.109485D-02 -0.101484D-04  0.000000D+00
                6             7             8             9            10 
      6  0.176599D-01
      7  0.194488D-01  0.738331D-01
      8 -0.179743D-04  0.199756D-03  0.459422D-01
      9  0.848234D-02 -0.869915D-01 -0.675902D-03  0.340114D+00
     10 -0.978046D-02  0.389149D-02  0.704903D-02  0.433749D-02  0.737342D-01
     11  0.339911D-02 -0.193126D-03  0.210207D-02  0.247435D-02  0.750461D-01
     12  0.261482D-02 -0.825913D-02 -0.250436D-01 -0.110698D-01  0.435757D-01
     13 -0.970310D-02  0.389151D-02 -0.706899D-02  0.430504D-02  0.388763D-02
     14 -0.338111D-02  0.230969D-03  0.199807D-02 -0.241425D-02  0.724799D-02
     15  0.258372D-02 -0.825826D-02  0.251036D-01 -0.109658D-01  0.396589D-02
     16  0.331353D-05 -0.325879D-02  0.000000D+00  0.410095D-03 -0.323424D-02
     17  0.000000D+00  0.163469D-05 -0.163757D-02 -0.940090D-05  0.638286D-03
     18  0.252087D-02 -0.736982D-03 -0.942850D-05  0.248604D-02  0.371130D-03
     19  0.196539D-05  0.101386D-03 -0.160635D-05  0.724377D-03  0.999111D-04
     20  0.000000D+00  0.000000D+00  0.352197D-03  0.203777D-05  0.941363D-05
     21 -0.430320D-03 -0.113679D-04  0.206594D-05 -0.557599D-03  0.551221D-05
               11            12            13            14            15 
     11  0.265967D+00
     12  0.127750D+00  0.120113D+00
     13 -0.726613D-02  0.393257D-02  0.737341D-01
     14 -0.175593D-01  0.137044D-01 -0.752439D-01  0.267133D+00
     15 -0.138243D-01  0.858805D-02  0.432297D-01 -0.127073D+00  0.118942D+00
     16 -0.353037D-03 -0.205734D-03 -0.323378D-02  0.353896D-03 -0.204057D-03
     17  0.144879D-02  0.179159D-02 -0.640035D-03  0.146537D-02 -0.178213D-02
     18  0.179184D-02 -0.591007D-03  0.368178D-03 -0.178235D-02 -0.607320D-03
     19 -0.622229D-03 -0.363352D-03  0.998641D-04  0.623818D-03 -0.360385D-03
     20 -0.328892D-03 -0.395369D-03 -0.942826D-05 -0.332612D-03  0.393296D-03
     21 -0.395750D-03  0.120434D-03  0.546468D-05  0.393646D-03  0.124043D-03
               16            17            18            19            20 
     16  0.115000D+01
     17 -0.373936D-04 -0.500609D-03
     18  0.965747D-03  0.000000D+00 -0.502122D-03
     19 -0.113181D+01  0.373469D-04 -0.959566D-03  0.113165D+01
     20  0.374112D-04  0.142145D-02  0.000000D+00 -0.374061D-04 -0.177368D-02
     21 -0.961934D-03  0.000000D+00  0.142182D-02  0.961141D-03  0.000000D+00
               21 
     21 -0.177323D-02
 Leave Link  716 at Sun Oct 13 09:51:50 2024, MaxMem=  2684354560 cpu:               0.9 elap:               0.1
 (Enter /usr/local/g16_AVX//g16/l103.exe)

 GradGradGradGradGradGradGradGradGradGradGradGradGradGradGradGradGradGrad
 Berny optimization.
 Search for a local minimum.
 Step number   1 out of a maximum of    2
 All quantities printed in internal units (Hartrees-Bohrs-Radians)
 Second derivative matrix not updated -- analytic derivatives used.
 ITU=  0
     Eigenvalues ---   -0.00347  -0.00346   0.00226   0.00226   0.01176
     Eigenvalues ---    0.06177   0.06179   0.10909   0.10911   0.11321
     Eigenvalues ---    0.20895   0.48848   0.89304   0.89330   2.27168
 Eigenvalue     1 is  -3.47D-03 should be greater than     0.000000 Eigenvector:
                          Z6        Z7        Z2        Z5        Z4
   1                    0.67938  -0.61623  -0.19065   0.16167   0.16155
                          Z3        X3        Z1        X4        X5
   1                    0.15583   0.14885   0.11158  -0.07593  -0.07351
 Eigenvalue     2 is  -3.46D-03 should be greater than     0.000000 Eigenvector:
                          Y6        Y7        Y2        Y3        Y4
   1                    0.67926  -0.61621  -0.19071   0.16330   0.15807
                          Y5        X5        X4        Y1        Z4
   1                    0.15798   0.12987  -0.12846   0.11164  -0.00497
 Quadratic step=4.094D-01 exceeds max=3.000D-01 adjusted using Lamda=-4.532D-03.
 Angle between NR and scaled steps=   3.73 degrees.
 Angle between quadratic step and forces=  59.94 degrees.
 Linear search not attempted -- first point.
 B after Tr=     0.004920   -0.000003    0.000054
         Rot=    1.000000    0.000000    0.000001   -0.000000 Ang=   0.00 deg.
 Variable       Old X    -DE/DX   Delta X   Delta X   Delta X     New X
                                 (Linear)    (Quad)   (Total)
    X1       -0.64662   0.00477   0.00000  -0.07156  -0.06664  -0.71326
    Y1       -0.00001  -0.00000   0.00000   0.00001   0.00000  -0.00001
    Z1        0.00046   0.00006   0.00000   0.00005   0.00010   0.00056
    X2       -4.11029  -0.01440   0.00000  -0.12527  -0.12035  -4.23064
    Y2       -0.00001  -0.00000   0.00000  -0.00001  -0.00001  -0.00002
    Z2        0.00000  -0.00002   0.00000   0.00002   0.00007   0.00007
    X3       -0.02515   0.00099   0.00000  -0.06033  -0.05540  -0.08055
    Y3        0.00447  -0.00000   0.00000   0.00000  -0.00000   0.00447
    Z3       -1.95168   0.00087   0.00000   0.00326   0.00332  -1.94836
    X4       -0.02652   0.00102   0.00000  -0.05958  -0.05467  -0.08119
    Y4        1.68859  -0.00077   0.00000  -0.00288  -0.00288   1.68571
    Z4        0.98100  -0.00046   0.00000  -0.00197  -0.00191   0.97908
    X5       -0.02652   0.00102   0.00000  -0.05958  -0.05466  -0.08118
    Y5       -1.69311   0.00077   0.00000   0.00291   0.00290  -1.69020
    Z5        0.97324  -0.00046   0.00000  -0.00196  -0.00190   0.97133
    X6        4.62846   0.00207   0.00000   0.16944   0.17436   4.80282
    Y6        0.00005   0.00000   0.00000  -0.00001  -0.00001   0.00004
    Z6       -0.00133   0.00000   0.00000   0.00032   0.00039  -0.00094
    X7        6.85771   0.00454   0.00000   0.17243   0.17735   7.03506
    Y7       -0.00002  -0.00000   0.00000   0.00000   0.00000  -0.00002
    Z7        0.00056   0.00000   0.00000  -0.00012  -0.00005   0.00051
         Item               Value     Threshold  Converged?
 Maximum Force            0.014402     0.000450     NO 
 RMS     Force            0.003522     0.000300     NO 
 Maximum Displacement     0.177351     0.001800     NO 
 RMS     Displacement     0.065415     0.001200     NO 
 Predicted change in Energy=-1.416689D-03
 GradGradGradGradGradGradGradGradGradGradGradGradGradGradGradGradGradGrad

 Leave Link  103 at Sun Oct 13 09:51:50 2024, MaxMem=  2684354560 cpu:               0.6 elap:               0.1
 (Enter /usr/local/g16_AVX//g16/l9999.exe)

 ----------------------------------------------------------------------

 Electric dipole moment (input orientation):
 (Debye = 10**-18 statcoulomb cm , SI units = C m)
                  (au)            (Debye)         (10**-30 SI)
   Tot        0.387703D+01      0.985442D+01      0.328708D+02
   x         -0.387703D+01     -0.985442D+01     -0.328708D+02
   y         -0.179787D-04     -0.456973D-04     -0.152430D-03
   z          0.510098D-03      0.129654D-02      0.432479D-02

 Dipole polarizability, Alpha (input orientation).
 (esu units = cm**3 , SI units = C**2 m**2 J**-1)
 Alpha(0;0):
               (au)            (10**-24 esu)      (10**-40 SI)
   iso        0.563681D+02      0.835289D+01      0.929384D+01
   aniso      0.498653D+02      0.738927D+01      0.822167D+01
   xx         0.896116D+02      0.132791D+02      0.147750D+02
   yx        -0.307085D-03     -0.455054D-04     -0.506315D-04
   yy         0.397466D+02      0.588983D+01      0.655332D+01
   zx         0.868078D-02      0.128636D-02      0.143127D-02
   zy        -0.234218D-04     -0.347076D-05     -0.386174D-05
   zz         0.397461D+02      0.588976D+01      0.655324D+01

 ----------------------------------------------------------------------

 Dipole orientation:
     6          0.00037791         -0.00001023          0.64662465
    17         -0.00054079          0.00001339          4.11029224
     1         -1.95168411          0.00446027          0.02489545
     1          0.98098708          1.68859780          0.02664166
     1          0.97324165         -1.69310304          0.02665821
     6         -0.00072329          0.00003334         -4.62845909
     7          0.00146351         -0.00005069         -6.85770637

 Electric dipole moment (dipole orientation):
 (Debye = 10**-18 statcoulomb cm , SI units = C m)
                  (au)            (Debye)         (10**-30 SI)
   Tot        0.387703D+01      0.985442D+01      0.328708D+02
   x          0.000000D+00      0.000000D+00      0.000000D+00
   y          0.000000D+00      0.000000D+00      0.000000D+00
   z          0.387703D+01      0.985442D+01      0.328708D+02

 Dipole polarizability, Alpha (dipole orientation).
 (esu units = cm**3 , SI units = C**2 m**2 J**-1)
 Alpha(0;0):
               (au)            (10**-24 esu)      (10**-40 SI)
   iso        0.563681D+02      0.835289D+01      0.929384D+01
   aniso      0.498653D+02      0.738927D+01      0.822167D+01
   xx         0.397461D+02      0.588976D+01      0.655324D+01
   yx        -0.235351D-04     -0.348754D-05     -0.388041D-05
   yy         0.397466D+02      0.588983D+01      0.655332D+01
   zx        -0.152416D-01     -0.225857D-02     -0.251299D-02
   zy         0.538248D-03      0.797601D-04      0.887450D-04
   zz         0.896116D+02      0.132791D+02      0.147750D+02

 ----------------------------------------------------------------------
 1\1\GINC-NODO6\Freq\RB3LYP\6-31++G(d,p)\C2H3Cl1N1(1-)\ALANQF\13-Oct-20
 24\0\\#p b3lyp 6-31++g(d,p) scf=verytight NoSymm freq=noraman int=ultr
 afine\\RxCoord=2.89900 DE=46.86\\-1,1\C,-0.342179,-0.000007,0.000245\C
 l,-2.175073,-0.000003,0.\H,-0.01331,0.002365,-1.032785\H,-0.014034,0.8
 93565,0.519122\H,-0.014035,-0.895954,0.515015\C,2.449275,0.000029,-0.0
 00705\N,3.628942,-0.00001,0.000297\\Version=ES64L-G16RevB.01\HF=-592.9
 936499\RMSD=2.062e-09\RMSF=3.522e-03\ZeroPoint=0.0434159\Thermal=0.048
 547\Dipole=-3.827236,-0.0000186,0.0005426\DipoleDeriv=1.7802688,0.0000
 032,-0.000027,-0.0000004,0.0603931,-0.0000024,0.000299,-0.0000025,0.06
 01975,-1.4066503,-0.0000027,0.0000116,0.,-0.2907012,0.0000002,0.000003
 6,0.0000002,-0.2907164,-0.0303604,-0.0000007,0.0005175,-0.000041,0.081
 0702,0.0001976,0.0184953,0.0001975,-0.0048726,-0.0307199,-0.0004905,-0
 .0003051,-0.0162392,0.0166001,-0.037409,-0.0095269,-0.0374232,0.059327
 5,-0.0307249,0.0004947,-0.000304,0.0162883,0.0162541,0.0372135,-0.0094
 537,0.0372279,0.0596692,-0.259445,-0.0000128,0.0003021,-0.0000328,-0.4
 611234,0.0000002,0.0008137,0.0000002,-0.4610995,-1.0223681,0.0000088,-
 0.0001951,0.000025,-0.4224929,0.,-0.000631,0.,-0.4225058\Polar=89.6115
 768,-0.0003071,39.7465517,0.0086808,-0.0000234,39.7460835\Quadrupole=-
 26.9266531,13.4630291,13.4636239,-0.0000222,-0.0006584,-0.0000003\PG=C
 01 [X(C2H3Cl1N1)]\NImag=2\\0.24317350,0.00000135,0.60380125,-0.0001655
 5,0.00000098,0.60399422,-0.08814222,0.00000015,-0.00001824,0.17693962,
 0.00000017,-0.03341868,-0.00000003,-0.00000024,0.01766338,-0.00001490,
 0.,-0.03343128,0.00004442,-0.00000003,0.01765985,-0.05359852,-0.000194
 63,0.08480852,-0.02486013,-0.00004463,0.01944876,0.07383306,-0.0001914
 5,-0.04939600,0.00064127,0.00001422,0.00063906,-0.00001797,0.00019976,
 0.04594217,0.08339708,0.00064113,-0.32848943,-0.00618254,-0.00001797,0
 .00848234,-0.08699154,-0.00067590,0.34011424,-0.05349692,-0.07314949,-
 0.04247531,-0.02488206,-0.01684134,-0.00978046,0.00389149,0.00704903,0
 .00433749,0.07373420,-0.07194137,-0.25812785,-0.12119506,0.00532979,0.
 00649837,0.00339911,-0.00019313,0.00210207,0.00247435,0.07504610,0.265
 96683,-0.04176643,-0.12119942,-0.11977530,0.00308634,0.00339266,0.0026
 1482,-0.00825913,-0.02504364,-0.01106978,0.04357574,0.12774980,0.12011
 277,-0.05349749,0.07334230,-0.04213782,-0.02488179,0.01688620,-0.00970
 310,0.00389151,-0.00706899,0.00430504,0.00388763,-0.00726613,0.0039325
 7,0.07373407,0.07213087,-0.25923432,0.12055292,-0.00534363,0.00652935,
 -0.00338111,0.00023097,0.00199807,-0.00241425,0.00724799,-0.01755933,0
 .01370438,-0.07524392,0.26713346,-0.04143455,0.12055739,-0.11866477,0.
 00306171,-0.00337464,0.00258372,-0.00825826,0.02510361,-0.01096581,0.0
 0396589,-0.01382429,0.00858805,0.04322966,-0.12707324,0.11894209,-0.00
 134170,0.00000018,-0.00000743,-0.00712603,-0.00000009,0.00000331,-0.00
 325879,-0.00000096,0.00041010,-0.00323424,-0.00035304,-0.00020573,-0.0
 0323378,0.00035390,-0.00020406,1.15000465,0.00000084,-0.00471593,-0.00
 000011,-0.00000068,0.00251850,0.00000002,0.00000163,-0.00163757,-0.000
 00940,0.00063829,0.00144879,0.00179159,-0.00064004,0.00146537,-0.00178
 213,-0.00003739,-0.00050061,-0.00002698,-0.00000012,-0.00472829,0.0000
 1847,0.00000002,0.00252087,-0.00073698,-0.00000943,0.00248604,0.000371
 13,0.00179184,-0.00059101,0.00036818,-0.00178235,-0.00060732,0.0009657
 5,0.,-0.00050212,0.00690337,0.00000014,-0.00000418,-0.00704739,-0.0000
 0007,0.00000197,0.00010139,-0.00000161,0.00072438,0.00009991,-0.000622
 23,-0.00036335,0.00009986,0.00062382,-0.00036039,-1.13181012,0.0000373
 5,-0.00095957,1.13165299,-0.00000041,0.00109152,0.00000004,0.00000039,
 -0.00042998,0.,0.00000002,0.00035220,0.00000204,0.00000941,-0.00032889
 ,-0.00039537,-0.00000943,-0.00033261,0.00039330,0.00003741,0.00142145,
 0.00000004,-0.00003741,-0.00177368,0.00001133,0.00000004,0.00109485,-0
 .00001015,0.,-0.00043032,-0.00001137,0.00000207,-0.00055760,0.00000551
 ,-0.00039575,0.00012043,0.00000546,0.00039365,0.00012404,-0.00096193,0
 .00000004,0.00142182,0.00096114,-0.00000003,-0.00177323\\-0.00476558,0
 .00000070,-0.00005824,0.01440246,0.00000017,0.00001843,-0.00098839,0.0
 0000203,-0.00087420,-0.00101816,0.00076647,0.00046011,-0.00101778,-0.0
 0076944,0.00045713,-0.00206979,-0.00000003,-0.00000065,-0.00454275,0.0
 0000011,-0.00000259\\\@


 THE ENLIGHTENED ONE, BECAUSE HE SAW MANKIND DROWNING  
 IN THE GREAT SEA OF BIRTH, DEATH, AND SORROW, LONGED TO SAVE 
 THEM, FOR THIS HE WAS MOVED TO PITY.                         
 BECAUSE HE SAW MEN OF THE WORLD STRAYING IN FALSE PATHS, AND 
 NONE TO GUIDE THEM, FOR THIS HE WAS MOVED TO PITY.           
                     ..................                       
 BECAUSE HE SAW THE MEN OF THE WORLD PLOUGHING THEIR FIELDS,  
 SOWING THE SEED, TRAFFICKING, HUCKSTERING, BUYING, SELLING,  
 AND AT THE END WINNOWING NOTHING BUT BITTERNESS,             
 FOR THIS HE WAS MOVED TO PITY......                   
                   BUDAH'S PITY - UPSAKA SILA SUTRA           
 Job cpu time:       0 days  0 hours  3 minutes 40.1 seconds.
 Elapsed time:       0 days  0 hours  0 minutes  9.5 seconds.
 File lengths (MBytes):  RWF=     88 Int=      0 D2E=      0 Chk=      2 Scr=      2
 Normal termination of Gaussian 16 at Sun Oct 13 09:51:50 2024.
