RxCoord=2.89900 DE=46.86                                                
Freq      RB3LYP                                                      6-31++G(d,p)        
Number of atoms                            I                7
Info1-9                                    I   N=           9
          16          16           0           0           0         100
           6          18        -502
Full Title                                 C   N=           2
RxCoord=2.89900 DE=46.86
Route                                      C   N=           6
#p b3lyp 6-31++g(d,p) scf=verytight NoSymm freq=noraman int=
ultrafine   
Charge                                     I               -1
Multiplicity                               I                1
Number of electrons                        I               40
Number of alpha electrons                  I               20
Number of beta electrons                   I               20
Number of basis functions                  I               98
Number of independent functions            I               98
Number of point charges in /Mol/           I                0
Number of translation vectors              I                0
Atomic numbers                             I   N=           7
           6          17           1           1           1           6
           7
Nuclear charges                            R   N=           7
  6.00000000E+00  1.70000000E+01  1.00000000E+00  1.00000000E+00  1.00000000E+00
  6.00000000E+00  7.00000000E+00
Current cartesian coordinates              R   N=          21
 -6.46624596E-01 -1.32280829E-05  4.62982901E-04 -4.11029227E+00 -5.66917837E-06
  0.00000000E+00 -2.51522547E-02  4.46920228E-03 -1.95168080E+00 -2.65204164E-02
  1.68859312E+00  9.80998405E-01 -2.65223062E-02 -1.69310768E+00  9.73237300E-01
  4.62845895E+00  5.48020576E-05 -1.33225692E-03  6.85770650E+00 -1.88972612E-05
  5.61248659E-04
Number of symbols in /Mol/                 I                0
Force Field                                I                0
Atom Types                                 C   N=           7
                                                            
                        
Int Atom Types                             I   N=           7
           0           0           0           0           0           0
           0
MM charges                                 R   N=           7
  0.00000000E+00  0.00000000E+00  0.00000000E+00  0.00000000E+00  0.00000000E+00
  0.00000000E+00  0.00000000E+00
Integer atomic weights                     I   N=           7
          12          35           1           1           1          12
          14
Real atomic weights                        R   N=           7
  1.20000000E+01  3.49688527E+01  1.00782504E+00  1.00782504E+00  1.00782504E+00
  1.20000000E+01  1.40030740E+01
Atom fragment info                         I   N=           7
           0           0           0           0           0           0
           0
Atom residue num                           I   N=           7
           0           0           0           0           0           0
           0
Nuclear spins                              I   N=           7
           0           3           1           1           1           0
           2
Nuclear ZEff                               R   N=           7
 -3.60000000E+00 -1.42400000E+01 -1.00000000E+00 -1.00000000E+00 -1.00000000E+00
 -3.60000000E+00 -4.55000000E+00
Nuclear ZNuc                               R   N=           7
  6.00000000E+00  1.70000000E+01  1.00000000E+00  1.00000000E+00  1.00000000E+00
  6.00000000E+00  7.00000000E+00
Nuclear QMom                               R   N=           7
  0.00000000E+00 -8.16500000E+00  0.00000000E+00  0.00000000E+00  0.00000000E+00
  0.00000000E+00  2.04400000E+00
Nuclear GFac                               R   N=           7
  0.00000000E+00  8.21874000E-01  2.79284600E+00  2.79284600E+00  2.79284600E+00
  0.00000000E+00  4.03761000E-01
MicOpt                                     I   N=           7
          -1          -1          -1          -1          -1          -1
          -1
Number of residues                         I                0
Number of secondary structures             I                0
Number of contracted shells                I               33
Number of primitive shells                 I               72
Pure/Cartesian d shells                    I                1
Pure/Cartesian f shells                    I                0
Highest angular momentum                   I                2
Largest degree of contraction              I                6
Shell types                                I   N=          33
           0          -1          -1          -1           2           0
          -1          -1          -1          -1           2           0
           0           0           1           0           0           0
           1           0           0           0           1           0
          -1          -1          -1           2           0          -1
          -1          -1           2
Number of primitives per shell             I   N=          33
           6           3           1           1           1           6
           6           3           1           1           1           3
           1           1           1           3           1           1
           1           3           1           1           1           6
           3           1           1           1           6           3
           1           1           1
Shell to atom map                          I   N=          33
           1           1           1           1           1           2
           2           2           2           2           2           3
           3           3           3           4           4           4
           4           5           5           5           5           6
           6           6           6           6           7           7
           7           7           7
Primitive exponents                        R   N=          72
  3.04752488E+03  4.57369518E+02  1.03948685E+02  2.92101553E+01  9.28666296E+00
  3.16392696E+00  7.86827235E+00  1.88128854E+00  5.44249258E-01  1.68714478E-01
  4.38000000E-02  8.00000000E-01  2.51801000E+04  3.78035000E+03  8.60474000E+02
  2.42145000E+02  7.73349000E+01  2.62470000E+01  4.91765000E+02  1.16984000E+02
  3.74153000E+01  1.37834000E+01  5.45215000E+00  2.22588000E+00  3.18649000E+00
  1.14427000E+00  4.20377000E-01  1.42657000E-01  4.83000000E-02  7.50000000E-01
  1.87311370E+01  2.82539436E+00  6.40121692E-01  1.61277759E-01  3.60000000E-02
  1.10000000E+00  1.87311370E+01  2.82539436E+00  6.40121692E-01  1.61277759E-01
  3.60000000E-02  1.10000000E+00  1.87311370E+01  2.82539436E+00  6.40121692E-01
  1.61277759E-01  3.60000000E-02  1.10000000E+00  3.04752488E+03  4.57369518E+02
  1.03948685E+02  2.92101553E+01  9.28666296E+00  3.16392696E+00  7.86827235E+00
  1.88128854E+00  5.44249258E-01  1.68714478E-01  4.38000000E-02  8.00000000E-01
  4.17351146E+03  6.27457911E+02  1.42902093E+02  4.02343293E+01  1.28202129E+01
  4.39043701E+00  1.16263619E+01  2.71627981E+00  7.72218397E-01  2.12031498E-01
  6.39000000E-02  8.00000000E-01
Contraction coefficients                   R   N=          72
  1.83473713E-03  1.40373228E-02  6.88426223E-02  2.32184443E-01  4.67941348E-01
  3.62311985E-01 -1.19332420E-01 -1.60854152E-01  1.14345644E+00  1.00000000E+00
  1.00000000E+00  1.00000000E+00  1.83295985E-03  1.40341988E-02  6.90973943E-02
  2.37451980E-01  4.83033960E-01  3.39855972E-01 -2.29739142E-03 -3.07137189E-02
 -1.12528069E-01  4.50163278E-02  5.89353363E-01  4.65206287E-01 -2.51828028E-01
  6.15892514E-02  1.06018433E+00  1.00000000E+00  1.00000000E+00  1.00000000E+00
  3.34946043E-02  2.34726953E-01  8.13757326E-01  1.00000000E+00  1.00000000E+00
  1.00000000E+00  3.34946043E-02  2.34726953E-01  8.13757326E-01  1.00000000E+00
  1.00000000E+00  1.00000000E+00  3.34946043E-02  2.34726953E-01  8.13757326E-01
  1.00000000E+00  1.00000000E+00  1.00000000E+00  1.83473713E-03  1.40373228E-02
  6.88426223E-02  2.32184443E-01  4.67941348E-01  3.62311985E-01 -1.19332420E-01
 -1.60854152E-01  1.14345644E+00  1.00000000E+00  1.00000000E+00  1.00000000E+00
  1.83477216E-03  1.39946270E-02  6.85865518E-02  2.32240873E-01  4.69069948E-01
  3.60455199E-01 -1.14961182E-01 -1.69117479E-01  1.14585195E+00  1.00000000E+00
  1.00000000E+00  1.00000000E+00
P(S=P) Contraction coefficients            R   N=          72
  0.00000000E+00  0.00000000E+00  0.00000000E+00  0.00000000E+00  0.00000000E+00
  0.00000000E+00  6.89990666E-02  3.16423961E-01  7.44308291E-01  1.00000000E+00
  1.00000000E+00  0.00000000E+00  0.00000000E+00  0.00000000E+00  0.00000000E+00
  0.00000000E+00  0.00000000E+00  0.00000000E+00  3.98940088E-03  3.03177067E-02
  1.29880029E-01  3.27951072E-01  4.53527100E-01  2.52154056E-01 -1.42993147E-02
  3.23572333E-01  7.43507765E-01  1.00000000E+00  1.00000000E+00  0.00000000E+00
  0.00000000E+00  0.00000000E+00  0.00000000E+00  0.00000000E+00  0.00000000E+00
  0.00000000E+00  0.00000000E+00  0.00000000E+00  0.00000000E+00  0.00000000E+00
  0.00000000E+00  0.00000000E+00  0.00000000E+00  0.00000000E+00  0.00000000E+00
  0.00000000E+00  0.00000000E+00  0.00000000E+00  0.00000000E+00  0.00000000E+00
  0.00000000E+00  0.00000000E+00  0.00000000E+00  0.00000000E+00  6.89990666E-02
  3.16423961E-01  7.44308291E-01  1.00000000E+00  1.00000000E+00  0.00000000E+00
  0.00000000E+00  0.00000000E+00  0.00000000E+00  0.00000000E+00  0.00000000E+00
  0.00000000E+00  6.75797439E-02  3.23907296E-01  7.40895140E-01  1.00000000E+00
  1.00000000E+00  0.00000000E+00
Coordinates of each shell                  R   N=          99
 -6.46624596E-01 -1.32280829E-05  4.62982901E-04 -6.46624596E-01 -1.32280829E-05
  4.62982901E-04 -6.46624596E-01 -1.32280829E-05  4.62982901E-04 -6.46624596E-01
 -1.32280829E-05  4.62982901E-04 -6.46624596E-01 -1.32280829E-05  4.62982901E-04
 -4.11029227E+00 -5.66917837E-06  0.00000000E+00 -4.11029227E+00 -5.66917837E-06
  0.00000000E+00 -4.11029227E+00 -5.66917837E-06  0.00000000E+00 -4.11029227E+00
 -5.66917837E-06  0.00000000E+00 -4.11029227E+00 -5.66917837E-06  0.00000000E+00
 -4.11029227E+00 -5.66917837E-06  0.00000000E+00 -2.51522547E-02  4.46920228E-03
 -1.95168080E+00 -2.51522547E-02  4.46920228E-03 -1.95168080E+00 -2.51522547E-02
  4.46920228E-03 -1.95168080E+00 -2.51522547E-02  4.46920228E-03 -1.95168080E+00
 -2.65204164E-02  1.68859312E+00  9.80998405E-01 -2.65204164E-02  1.68859312E+00
  9.80998405E-01 -2.65204164E-02  1.68859312E+00  9.80998405E-01 -2.65204164E-02
  1.68859312E+00  9.80998405E-01 -2.65223062E-02 -1.69310768E+00  9.73237300E-01
 -2.65223062E-02 -1.69310768E+00  9.73237300E-01 -2.65223062E-02 -1.69310768E+00
  9.73237300E-01 -2.65223062E-02 -1.69310768E+00  9.73237300E-01  4.62845895E+00
  5.48020576E-05 -1.33225692E-03  4.62845895E+00  5.48020576E-05 -1.33225692E-03
  4.62845895E+00  5.48020576E-05 -1.33225692E-03  4.62845895E+00  5.48020576E-05
 -1.33225692E-03  4.62845895E+00  5.48020576E-05 -1.33225692E-03  6.85770650E+00
 -1.88972612E-05  5.61248659E-04  6.85770650E+00 -1.88972612E-05  5.61248659E-04
  6.85770650E+00 -1.88972612E-05  5.61248659E-04  6.85770650E+00 -1.88972612E-05
  5.61248659E-04  6.85770650E+00 -1.88972612E-05  5.61248659E-04
Num ILSW                                   I              100
ILSW                                       I   N=         100
           0           1           0           0           2           0
           0           0           0           0         402          -1
           5           0           0           0           2           0
           0           0           0           0           1           0
           1           1           0           0           0           0
           0           0      100000           0          -1           0
           0           0           0           0           0           0
           0           0           0           1           0           0
           0 -2000000000           1           0           0           0
           0           0           4          52           0           0
           0           0           5           0           0           0
           0           0           0           7           0           1
           0           0           0           0           0           0
           0           0           0           0           0           0
           0           0           0           0           0           0
           0           0           0           0           0           0
           0           0           0           0
Num RLSW                                   I               52
RLSW                                       R   N=          52
  8.00000000E-01  7.20000000E-01  1.00000000E+00  8.10000000E-01  2.00000000E-01
  0.00000000E+00  0.00000000E+00  1.00000000E+00  0.00000000E+00  0.00000000E+00
  0.00000000E+00  0.00000000E+00  1.00000000E+00  0.00000000E+00  0.00000000E+00
  0.00000000E+00  0.00000000E+00  1.00000000E+00  0.00000000E+00  0.00000000E+00
  0.00000000E+00  0.00000000E+00  1.00000000E+00  0.00000000E+00  0.00000000E+00
  0.00000000E+00  0.00000000E+00  1.00000000E+00  0.00000000E+00  0.00000000E+00
  0.00000000E+00  0.00000000E+00  1.00000000E+00  0.00000000E+00  0.00000000E+00
  0.00000000E+00  0.00000000E+00  0.00000000E+00  1.00000000E+00  1.00000000E+00
  0.00000000E+00  1.00000000E+00  0.00000000E+00  0.00000000E+00  0.00000000E+00
  0.00000000E+00  0.00000000E+00  0.00000000E+00  0.00000000E+00  0.00000000E+00
  0.00000000E+00  0.00000000E+00
MxBond                                     I                4
NBond                                      I   N=           7
           4           1           1           1           1           1
           1
IBond                                      I   N=          28
           2           3           4           5           1           0
           0           0           1           0           0           0
           1           0           0           0           1           0
           0           0           7           0           0           0
           6           0           0           0
RBond                                      R   N=          28
  1.00000000E+00  1.00000000E+00  1.00000000E+00  1.00000000E+00  1.00000000E+00
  0.00000000E+00  0.00000000E+00  0.00000000E+00  1.00000000E+00  0.00000000E+00
  0.00000000E+00  0.00000000E+00  1.00000000E+00  0.00000000E+00  0.00000000E+00
  0.00000000E+00  1.00000000E+00  0.00000000E+00  0.00000000E+00  0.00000000E+00
  2.00000000E+00  0.00000000E+00  0.00000000E+00  0.00000000E+00  2.00000000E+00
  0.00000000E+00  0.00000000E+00  0.00000000E+00
Virial Ratio                               R      2.004505592284774E+00
SCF Energy                                 R     -5.929936498512452E+02
Total Energy                               R     -5.929936498512452E+02
RMS Force                                  R      3.521903171458450E-03
RMS Density                                R      2.061722842215608E-09
NImag                                      I                2
Job Status                                 I                1
Nuclear derivative order                   I                2
External E-field                           R   N=          35
  0.00000000E+00  0.00000000E+00  0.00000000E+00  0.00000000E+00  0.00000000E+00
  0.00000000E+00  0.00000000E+00  0.00000000E+00  0.00000000E+00  0.00000000E+00
  0.00000000E+00  0.00000000E+00  0.00000000E+00  0.00000000E+00  0.00000000E+00
  0.00000000E+00  0.00000000E+00  0.00000000E+00  0.00000000E+00  0.00000000E+00
  0.00000000E+00  0.00000000E+00  0.00000000E+00  0.00000000E+00  0.00000000E+00
  0.00000000E+00  0.00000000E+00  0.00000000E+00  0.00000000E+00  0.00000000E+00
  0.00000000E+00  0.00000000E+00  0.00000000E+00  0.00000000E+00  0.00000000E+00
IOpCl                                      I                0
IROHF                                      I                0
Alpha Orbital Energies                     R   N=          98
 -1.01406810E+02 -1.40954273E+01 -1.00974940E+01 -9.96010551E+00 -9.32312411E+00
 -7.08604007E+00 -7.07781222E+00 -7.07781199E+00 -7.12641440E-01 -6.48858370E-01
 -5.36755848E-01 -3.04778303E-01 -3.04771308E-01 -2.74387637E-01 -1.83044992E-01
 -1.72584450E-01 -1.72576066E-01 -9.78895625E-02 -9.78892260E-02 -6.95040675E-02
  1.10137808E-01  1.29759453E-01  1.45819845E-01  1.45823276E-01  1.73116335E-01
  2.04312157E-01  2.04315051E-01  2.05647163E-01  2.21339552E-01  2.21412169E-01
  2.42956580E-01  2.50367806E-01  2.50395051E-01  2.71637371E-01  2.75084560E-01
  2.75121349E-01  3.14764595E-01  3.37175088E-01  3.37239189E-01  3.62662681E-01
  3.86378942E-01  3.86405258E-01  3.86513677E-01  4.66468333E-01  4.82093320E-01
  6.57870110E-01  7.35722471E-01  7.46686373E-01  7.46689760E-01  7.76045010E-01
  7.76069284E-01  8.83469749E-01  8.96901483E-01  8.96922471E-01  9.82065445E-01
  9.96794368E-01  9.96828505E-01  1.04729306E+00  1.04735219E+00  1.08615217E+00
  1.09805777E+00  1.09812805E+00  1.12563759E+00  1.19081988E+00  1.19084239E+00
  1.25575055E+00  1.26890510E+00  1.36799717E+00  1.47768201E+00  1.60608474E+00
  1.60614010E+00  1.77329820E+00  1.78100705E+00  1.78100904E+00  1.80385859E+00
  1.80387105E+00  2.15931363E+00  2.20127001E+00  2.20127904E+00  2.22128238E+00
  2.22132721E+00  2.29334640E+00  2.49464688E+00  2.49477283E+00  2.66959177E+00
  2.83438279E+00  2.83439539E+00  2.84036728E+00  2.95911790E+00  2.95916364E+00
  3.26191637E+00  3.38973232E+00  3.56007575E+00  3.56010046E+00  4.21419445E+00
  4.41913175E+00  4.46025026E+00  4.57373184E+00
Alpha MO coefficients                      R   N=        9604
 -6.22940231E-06  2.53293143E-05 -5.13760005E-05  2.70195575E-10 -1.47483561E-08
  1.09861628E-04 -4.43374741E-05  6.37709605E-10  1.04925521E-08 -3.57816810E-05
 -1.17903394E-04 -1.67895372E-09  1.80824501E-08 -1.87261469E-05  1.27623371E-05
  1.27799225E-05  6.59027224E-11 -1.23091540E-08 -8.26484080E-12  9.95996874E-01
  1.51509163E-02  3.93620656E-05 -1.41036214E-10  3.37366617E-09 -2.10647708E-02
 -1.77119362E-05 -3.00554737E-11 -5.07083891E-10  1.88170129E-03 -5.32541661E-05
  2.96822699E-10 -1.46539485E-08 -4.45970870E-04 -2.97962504E-05  4.26336405E-10
 -1.26558721E-08  7.50204250E-03  7.52503203E-03  7.52503217E-03  7.60862110E-11
 -6.42411019E-09  1.01742841E-11 -2.64961718E-05 -3.00297102E-05  4.18894078E-05
  2.37124690E-05  2.76498912E-08 -1.20842499E-05 -2.65289814E-05 -2.99678306E-05
  4.18274917E-05  2.36831084E-05  1.04493240E-05  6.06695976E-06 -2.65291033E-05
 -2.99655651E-05  4.18237028E-05  2.36833847E-05 -1.04769636E-05  6.01874611E-06
 -6.84769957E-07  1.24894025E-06  6.60828830E-07  4.48158204E-10 -1.11791025E-08
 -1.20048886E-04 -1.03706901E-04  1.71273811E-09 -4.63817843E-08  1.73478014E-05
 -9.60145316E-05 -1.96291742E-09  5.26829199E-08 -1.18618017E-05  2.32254327E-07
  2.33107428E-07  5.02734612E-10 -1.22904994E-08  6.27389787E-12 -2.23868334E-06
 -8.85838666E-06 -1.20617517E-06 -2.30152981E-12 -2.98331980E-10  1.30706752E-04
 -6.92652710E-05  2.58433935E-09 -6.49986763E-08  9.83213704E-05  1.42363257E-05
  2.69852946E-09 -6.99731677E-08  3.93492087E-06 -6.56450941E-06 -6.56466643E-06
 -5.71120748E-10  1.45956252E-08 -2.64979934E-12  3.34884408E-06  1.69694549E-05
 -9.46389214E-07  3.10034558E-10 -9.47306134E-09 -3.00468051E-05 -2.58879492E-05
 -5.79236919E-10  4.40359289E-08  1.14537828E-03  8.04493546E-05  1.34837446E-08
 -3.42707680E-07 -2.63639048E-06  8.77390834E-06  8.76913983E-06 -1.03928568E-10
  9.60740439E-10  7.17849724E-13  1.17035828E-07  2.21084282E-06 -2.92177834E-07
  3.53631468E-11 -7.54413671E-10  4.94007896E-06  1.90110316E-06 -2.04605566E-10
  4.45903228E-09 -5.47008286E-05 -2.56657877E-05  8.35843634E-10 -2.37397095E-08
 -2.07305318E-04 -8.54155905E-05 -7.11441181E-09  1.80503059E-07  3.88347401E-06
  4.16574616E-06  4.16500540E-06 -5.70286901E-11  1.03279322E-09  1.45794063E-12
  8.58190801E-06 -5.26191229E-05 -1.82983312E-04 -3.54861249E-07  8.03585924E-09
 -3.49865908E-06  8.57753138E-06 -5.25941784E-05 -1.83222591E-04 -3.25851518E-07
  3.01811269E-06  1.75158988E-06  8.57698144E-06 -5.25908245E-05 -1.83238428E-04
 -3.25084482E-07 -3.02573047E-06  1.73749176E-06  8.38506190E-05  2.07578356E-04
 -2.84071862E-04  9.11891163E-09 -2.33480595E-07 -2.51475238E-04 -4.25634669E-04
  1.56105105E-08 -4.04230473E-07  1.45715635E-03  1.02721118E-03 -3.16494976E-08
  7.82033299E-07 -7.60305585E-04 -1.30861989E-05 -1.30856386E-05  2.85880444E-08
 -7.33918081E-07  2.71169628E-11  9.92697472E-01  3.44457965E-02 -1.40084576E-03
  4.61811635E-08 -1.18803510E-06  5.22220187E-03  1.06865530E-04 -3.61112010E-09
  9.30444535E-08 -3.02130115E-03  5.77450314E-05 -3.62184676E-09  1.07605751E-07
 -7.70716657E-03 -8.42454626E-03 -8.42454625E-03 -2.72455475E-08  6.99817973E-07
 -3.22347456E-11  9.92994039E-01  4.96413445E-02 -6.98979502E-04 -1.11243205E-08
  5.06353811E-07 -1.65083395E-02  8.01380170E-04 -1.25346676E-09 -1.24131807E-06
  6.40494290E-03 -2.74686124E-03  2.19643152E-09 -8.90197963E-07 -9.28000839E-03
 -8.85769630E-03 -8.85771369E-03 -9.98656672E-10 -1.22412595E-07 -1.96154932E-09
 -9.05247301E-06 -4.79693072E-05 -2.10238005E-06  4.25839406E-11 -1.26653239E-08
 -1.47595398E-05  1.83616795E-04 -6.51149653E-10  1.00596461E-07  3.13773499E-03
  1.83117169E-03 -3.81270132E-09  1.23594287E-07 -5.07821044E-03 -1.73216929E-03
  5.96748864E-09 -3.95178042E-08 -1.32958087E-04 -1.72132920E-04 -1.72093260E-04
  7.32954226E-11 -5.55463652E-09 -1.35235942E-10 -1.49970985E-04  3.03111767E-03
 -8.86257660E-04  3.25801925E-05  2.21912689E-07 -9.64887782E-05 -1.50037612E-04
  3.03239270E-03 -8.86355020E-04  3.26892903E-05  8.36049541E-05  4.86080543E-05
 -1.50045133E-04  3.03239087E-03 -8.86365443E-04  3.26931048E-05 -8.38328213E-05
  4.82272972E-05 -1.79073169E-05 -6.86828354E-05  4.37809365E-05  3.52965517E-09
 -1.61609465E-07 -4.33847951E-04 -9.03119332E-04  1.67484750E-09  2.67746376E-07
  1.36601983E-03  7.75608424E-04 -9.42346720E-09  8.05421812E-07 -2.22066708E-05
 -3.71520927E-05 -3.72006602E-05  4.16414710E-09 -1.27139435E-07 -3.38924857E-10
 -3.18904806E-05 -1.20231076E-04 -2.05775748E-06 -3.76937535E-09  1.13469322E-07
  1.24034908E-03 -3.69797881E-04  2.96934610E-08 -8.55877190E-07 -9.79787607E-04
 -2.39766601E-04 -1.85520203E-08  1.04650906E-07 -3.44088900E-05 -7.59543543E-05
 -7.59491476E-05 -1.94218658E-09  7.38289110E-08  3.50590825E-11 -2.03491089E-05
 -9.81988288E-05 -9.62957322E-05  6.84410870E-10 -4.28540248E-08  4.63708370E-04
  6.03105786E-04 -9.10728684E-09  6.13593860E-07 -2.10639789E-03  4.31429449E-03
  1.05225552E-08 -5.70735060E-08 -1.38751351E-05 -3.12308852E-05 -3.12621757E-05
  1.20166677E-10  1.51766557E-08 -4.52294492E-10  1.44566243E-07  6.43539957E-06
  4.31406564E-06 -5.79630074E-11  4.78690098E-09  1.45455897E-05 -2.93117581E-05
  2.80349843E-10 -2.63012754E-08 -1.41424925E-04  3.45796618E-04  7.05946890E-11
  4.37632329E-08  5.58400412E-03  1.31705062E-03 -9.56183665E-09  3.52357931E-07
  4.68258575E-05 -1.85481058E-06 -1.86429882E-06 -7.46420326E-11  4.26096207E-09
  4.46099517E-12 -3.70327854E-05 -4.73876358E-04 -9.50655836E-05 -3.39728998E-05
  3.28660468E-08 -1.40170756E-05 -3.69946049E-05 -4.74713054E-04 -9.33908595E-05
 -3.41742529E-05  1.22408261E-05  7.06204280E-06 -3.69952723E-05 -4.74726867E-04
 -9.33452562E-05 -3.41779686E-05 -1.22748342E-05  7.00753332E-06  9.92840767E-01
  4.93311483E-02  1.88648713E-03 -6.80261090E-08  1.75175129E-06 -1.10023100E-02
 -8.16374534E-04  5.13330683E-08 -1.35334874E-06 -7.00333719E-03 -4.89424734E-04
  1.14210788E-07 -3.24384363E-06 -8.45524654E-03 -9.70830926E-03 -9.70829602E-03
 -4.80682345E-08  1.24308488E-06  5.12232397E-11 -4.92105665E-04  4.23386160E-05
  4.40903701E-04 -1.40408560E-08  3.62289588E-07 -1.03929758E-03  5.09614269E-04
 -2.22970224E-08  5.62431398E-07  8.94820772E-03 -3.29122839E-03  7.09954382E-08
 -1.64628360E-06 -2.76839616E-04  1.69282941E-04  1.69282476E-04  1.87646330E-08
 -4.84717541E-07  2.06377428E-11 -1.07279784E-04  1.31522994E-04  3.60936773E-04
  3.98645191E-10 -2.12140523E-08  2.95822111E-03 -1.53851394E-03 -1.80561379E-08
  3.18025919E-07 -3.77443715E-02  3.72032559E-02  7.45878805E-08  4.31393610E-07
 -7.59753802E-04 -1.22727101E-04 -1.22668019E-04  1.29074453E-09 -6.22423073E-08
 -1.84930609E-09 -2.84604079E-01  1.02274467E+00  4.80731733E-03 -2.05060284E-08
  5.19854000E-07  7.60544268E-02  5.93781619E-04 -6.56231823E-12  3.32176280E-08
 -2.65918427E-02 -1.67491549E-03  1.04893408E-09 -8.07674797E-08  6.47573051E-02
  1.78818641E-02 -8.56232352E-08  3.84621099E-06 -1.51907243E-02 -1.55758852E-02
 -1.55758899E-02 -1.90703219E-09  8.68386824E-08 -1.49961595E-10 -3.96176998E-05
 -7.61922501E-04  1.16234718E-03 -7.19234750E-05 -2.36893581E-08  1.09866904E-05
 -3.94912760E-05 -7.62715400E-04  1.16342435E-03 -7.22950251E-05 -9.40692324E-06
 -5.52318739E-06 -3.94893853E-05 -7.62759595E-04  1.16353674E-03 -7.22955540E-05
  9.42982480E-06 -5.47681032E-06  1.59967591E-05  7.14617172E-05  4.58642513E-05
 -1.51112032E-08  4.28623809E-07  2.26414705E-04  5.32659471E-04  3.53068596E-08
 -1.05973600E-06 -2.09034494E-02  1.08264115E-02  4.40580563E-07 -1.23361109E-05
  8.70272318E-05  9.32889541E-06  9.33848442E-06 -3.44213872E-09  9.83096499E-08
  7.05693418E-11  1.08786539E-05  5.78414936E-05 -1.81624800E-05 -7.91519266E-09
  2.11252832E-07 -7.45839686E-04  5.54224377E-04  1.55711229E-08 -4.31542441E-07
  9.75461132E-04 -2.91374000E-03 -2.39683174E-07  6.77038356E-06 -4.67374746E-05
  2.90056833E-05  2.90043444E-05  6.48109345E-09 -1.79750337E-07  5.03537901E-11
  6.44002124E-05  1.56209342E-03  3.48726448E-04 -5.06573058E-09  2.31221669E-07
 -5.97531573E-04  1.72317549E-03  2.19803813E-08 -1.97831331E-06  4.81673662E-02
 -5.64647836E-02 -1.17835066E-07  1.47557083E-06 -1.95761890E-03  1.96838109E-04
  1.97264136E-04  7.03844137E-09 -3.21459989E-07  4.20094301E-11  1.41663632E-03
 -5.41095060E-03  9.90324713E-01 -3.08656447E-06  8.12995940E-05 -4.30509009E-04
  3.15077504E-02 -9.75021263E-08  2.77112431E-06  5.32474266E-03 -1.29291948E-02
  3.64050987E-08 -1.11708751E-06 -7.48843057E-02 -1.48218633E-02  1.18038644E-07
 -4.99514120E-06  7.39671569E-04 -4.73057918E-04 -4.73041830E-04 -3.35517190E-09
  2.24157226E-07 -4.25348692E-11 -1.83360480E-04  1.37858386E-03 -5.79123978E-03
 -3.23803230E-04  7.26033757E-08 -3.20451744E-05 -1.82383148E-04  1.37982267E-03
 -5.79226850E-03 -3.24348758E-04  2.75566983E-05  1.60842904E-05 -1.82379940E-04
  1.37983593E-03 -5.79229636E-03 -3.24348380E-04 -2.76289283E-05  1.59557083E-05
 -2.35097214E-05 -1.60740805E-04 -1.00975137E-04  1.69572131E-08 -4.75681642E-07
  3.07746928E-03  1.97945289E-03 -1.22545747E-07  3.27345820E-06  4.34623824E-02
 -1.74947184E-02 -7.99680814E-07  2.22809782E-05  1.41360451E-04 -4.48152330E-05
 -4.48247386E-05 -8.70724636E-09  1.98079063E-07 -1.35353499E-10 -3.99713022E-06
  9.95921171E-06  3.91513228E-05  1.28555469E-08 -3.52281534E-07 -1.27267346E-03
  1.03146525E-03 -9.27788503E-08  2.50696229E-06 -8.86720170E-03  6.00201447E-03
  3.40395225E-07 -9.84884375E-06 -1.35756629E-04  1.63755050E-05  1.63793797E-05
  2.16791015E-09 -4.47901550E-08 -3.22956177E-11  9.18693384E-08  5.52483705E-07
  2.56948819E-07  5.01182739E-07 -8.38316610E-05 -2.59650617E-06 -1.49086660E-06
 -1.88819924E-06  3.16310239E-04  1.00967609E-05 -2.77627818E-05 -2.51406071E-06
  4.24782120E-04  3.87551946E-08 -8.49564326E-05  8.49998270E-05 -8.50730489E-07
  1.42265603E-04 -8.91511361E-08  3.94700131E-08 -1.97097319E-07 -8.14501312E-05
 -5.92241243E-03  9.90823484E-01 -5.16308565E-08 -2.19206359E-06 -1.76966876E-04
  2.96069727E-02  1.33673951E-06  2.63988604E-08  6.95800828E-05 -1.16419833E-02
 -3.13523273E-05 -7.88621122E-06 -3.10435999E-05  5.19675570E-03 -1.51067417E-07
  4.90170953E-06 -4.96250886E-06 -1.90890130E-06  3.19383797E-04  3.82224481E-09
  6.01587250E-05 -5.75116531E-04  4.71636457E-03  2.67109859E-04  2.13992592E-07
 -5.30143748E-05 -2.96227906E-05  2.88524789E-04 -2.34455476E-03 -1.32817823E-04
 -1.19884689E-05 -3.22385425E-05 -3.00054190E-05  2.92213852E-04 -2.37442311E-03
 -1.34521227E-04  1.24774552E-05 -3.22731363E-05 -2.38194899E-08 -8.00365454E-08
 -1.07202226E-07 -2.87474099E-07  4.81957894E-05 -4.91123585E-06 -4.19987029E-06
  1.11888103E-06 -1.88291535E-04  2.10200958E-05 -1.18469925E-05 -6.03541192E-06
  1.02116727E-03 -2.91204863E-07  3.49469105E-06 -3.41021580E-06  2.76813213E-08
 -4.75396281E-06  4.14709054E-09 -1.46709553E-07 -5.78617044E-07  4.85987064E-08
  1.19549202E-07 -2.04044394E-05  6.67995988E-06 -3.24421253E-06 -7.30542017E-07
  1.24445940E-04 -1.30311118E-06  3.81444413E-06  2.37281213E-06 -4.05104688E-04
  4.64681617E-08  1.48696609E-06 -2.25792234E-06  8.09035097E-08 -1.35949373E-05
  2.02342063E-09 -6.92624900E-11  1.71038601E-09 -6.71074669E-09 -8.39078804E-05
 -5.01442425E-07 -6.78373477E-09  4.66913930E-08  3.15504602E-04  1.88833676E-06
 -3.59504266E-08  3.02318397E-07  4.22511141E-04  2.55052897E-06 -2.22561373E-09
  7.70118945E-08 -7.84203484E-08  1.42285999E-04  8.50108314E-07 -9.83845273E-05
 -1.18846764E-09  4.33147461E-09  2.60119607E-06  9.90823506E-01  5.92241215E-03
 -7.37777878E-10  7.89549622E-08  2.96068743E-02  1.76969842E-04  8.17682716E-09
 -4.63958247E-09 -1.16415287E-02 -6.95915822E-05  3.24807280E-07  7.87560719E-08
  5.19603615E-03  3.10768096E-05  6.13027105E-09 -7.25207002E-09  4.19919128E-09
  3.19415075E-04  1.90936743E-06  5.77926427E-06  2.18703262E-07 -2.13280722E-06
  1.74583870E-05  9.81466652E-07 -2.52409358E-05 -2.54114210E-07 -5.18236912E-05
  5.01723749E-04 -4.08748705E-03 -2.32007563E-04 -4.63306436E-05 -1.25064219E-05
  5.16019193E-05 -4.99621820E-04  4.07002489E-03  2.31017654E-04 -4.62992551E-05
  1.20564832E-05  8.13597446E-11 -3.41357519E-10  2.63454850E-09  4.81546513E-05