 Entering Gaussian System, Link 0=g16
 Initial command:
 /usr/local/g16_AVX//g16/l1.exe "/scratch/alanqf/0131-54573.ixchel.mda.cinvestav.mx/Gau-45457.inp" -scrdir="/scratch/alanqf/0131-54573.ixchel.mda.cinvestav.mx/"
 Entering Link 1 = /usr/local/g16_AVX//g16/l1.exe PID=     45458.
  
 Copyright (c) 1988-2017, Gaussian, Inc.  All Rights Reserved.
  
 This is part of the Gaussian(R) 16 program.  It is based on
 the Gaussian(R) 09 system (copyright 2009, Gaussian, Inc.),
 the Gaussian(R) 03 system (copyright 2003, Gaussian, Inc.),
 the Gaussian(R) 98 system (copyright 1998, Gaussian, Inc.),
 the Gaussian(R) 94 system (copyright 1995, Gaussian, Inc.),
 the Gaussian 92(TM) system (copyright 1992, Gaussian, Inc.),
 the Gaussian 90(TM) system (copyright 1990, Gaussian, Inc.),
 the Gaussian 88(TM) system (copyright 1988, Gaussian, Inc.),
 the Gaussian 86(TM) system (copyright 1986, Carnegie Mellon
 University), and the Gaussian 82(TM) system (copyright 1983,
 Carnegie Mellon University). Gaussian is a federally registered
 trademark of Gaussian, Inc.
  
 This software contains proprietary and confidential information,
 including trade secrets, belonging to Gaussian, Inc.
  
 This software is provided under written license and may be
 used, copied, transmitted, or stored only in accord with that
 written license.
  
 The following legend is applicable only to US Government
 contracts under FAR:
  
                    RESTRICTED RIGHTS LEGEND
  
 Use, reproduction and disclosure by the US Government is
 subject to restrictions as set forth in subparagraphs (a)
 and (c) of the Commercial Computer Software - Restricted
 Rights clause in FAR 52.227-19.
  
 Gaussian, Inc.
 340 Quinnipiac St., Bldg. 40, Wallingford CT 06492
  
  
 ---------------------------------------------------------------
 Warning -- This program may not be used in any manner that
 competes with the business of Gaussian, Inc. or will provide
 assistance to any competitor of Gaussian, Inc.  The licensee
 of this program is prohibited from giving any competitor of
 Gaussian, Inc. access to this program.  By using this program,
 the user acknowledges that Gaussian, Inc. is engaged in the
 business of creating and licensing software in the field of
 computational chemistry and represents and warrants to the
 licensee that it is not a competitor of Gaussian, Inc. and that
 it will not use this program in any manner prohibited above.
 ---------------------------------------------------------------
  

 Cite this work as:
 Gaussian 16, Revision B.01,
 M. J. Frisch, G. W. Trucks, H. B. Schlegel, G. E. Scuseria, 
 M. A. Robb, J. R. Cheeseman, G. Scalmani, V. Barone, 
 G. A. Petersson, H. Nakatsuji, X. Li, M. Caricato, A. V. Marenich, 
 J. Bloino, B. G. Janesko, R. Gomperts, B. Mennucci, H. P. Hratchian, 
 J. V. Ortiz, A. F. Izmaylov, J. L. Sonnenberg, D. Williams-Young, 
 F. Ding, F. Lipparini, F. Egidi, J. Goings, B. Peng, A. Petrone, 
 T. Henderson, D. Ranasinghe, V. G. Zakrzewski, J. Gao, N. Rega, 
 G. Zheng, W. Liang, M. Hada, M. Ehara, K. Toyota, R. Fukuda, 
 J. Hasegawa, M. Ishida, T. Nakajima, Y. Honda, O. Kitao, H. Nakai, 
 T. Vreven, K. Throssell, J. A. Montgomery, Jr., J. E. Peralta, 
 F. Ogliaro, M. J. Bearpark, J. J. Heyd, E. N. Brothers, K. N. Kudin, 
 V. N. Staroverov, T. A. Keith, R. Kobayashi, J. Normand, 
 K. Raghavachari, A. P. Rendell, J. C. Burant, S. S. Iyengar, 
 J. Tomasi, M. Cossi, J. M. Millam, M. Klene, C. Adamo, R. Cammi, 
 J. W. Ochterski, R. L. Martin, K. Morokuma, O. Farkas, 
 J. B. Foresman, and D. J. Fox, Gaussian, Inc., Wallingford CT, 2016.
 
 ******************************************
 Gaussian 16:  ES64L-G16RevB.01 20-Dec-2017
                13-Oct-2024 
 ******************************************
 %NProcShared=26
 Will use up to   26 processors via shared memory.
 %MEM=20GB
 %chk=CHKfiles/0131.chk
 ---------------------------------------------------------------------
 #p b3lyp 6-31++g(d,p) scf=verytight NoSymm freq=noraman int=ultrafine
 ---------------------------------------------------------------------
 1/10=4,30=1,38=1/1,3;
 2/12=2,15=1,17=6,18=5,40=1/2;
 3/5=1,6=6,7=1111,11=2,25=1,30=1,71=2,74=-5,75=-5,140=1/1,2,3;
 4//1;
 5/5=2,17=3,38=5,98=1/2;
 8/6=4,10=90,11=11/1;
 11/6=1,8=1,9=11,15=111,16=1,31=1/1,2,10;
 10/6=1,31=1/2;
 6/7=2,8=2,9=2,10=2,28=1/1;
 7/8=1,10=1,25=1,30=1/1,2,3,16;
 1/10=4,30=1/3;
 99//99;
 Leave Link    1 at Sun Oct 13 09:51:42 2024, MaxMem=  2684354560 cpu:               1.1 elap:               0.1
 (Enter /usr/local/g16_AVX//g16/l101.exe)
 ------------------------
 RxCoord=2.99898 DE=46.72
 ------------------------
 Symbolic Z-matrix:
 Charge = -1 Multiplicity = 1
 C                    -0.34719  -0.00001   0.00039 
 Cl                   -2.1792   0.        -0.00001 
 H                    -0.01786   0.00237  -1.03248 
 H                    -0.01871   0.89345   0.51923 
 H                    -0.01871  -0.89586   0.51511 
 C                     2.45763   0.00003  -0.00086 
 N                     3.63739  -0.00001   0.00031 
 
 ITRead=  0  0  0  0  0  0  0
 MicOpt= -1 -1 -1 -1 -1 -1 -1
 NAtoms=      7 NQM=        7 NQMF=       0 NMMI=      0 NMMIF=      0
                NMic=       0 NMicF=      0.
                    Isotopes and Nuclear Properties:
 (Nuclear quadrupole moments (NQMom) in fm**2, nuclear magnetic moments (NMagM)
  in nuclear magnetons)

  Atom         1           2           3           4           5           6           7
 IAtWgt=          12          35           1           1           1          12          14
 AtmWgt=  12.0000000  34.9688527   1.0078250   1.0078250   1.0078250  12.0000000  14.0030740
 NucSpn=           0           3           1           1           1           0           2
 AtZEff=  -0.0000000  -0.0000000  -0.0000000  -0.0000000  -0.0000000  -0.0000000  -0.0000000
 NQMom=    0.0000000  -8.1650000   0.0000000   0.0000000   0.0000000   0.0000000   2.0440000
 NMagM=    0.0000000   0.8218740   2.7928460   2.7928460   2.7928460   0.0000000   0.4037610
 AtZNuc=   6.0000000  17.0000000   1.0000000   1.0000000   1.0000000   6.0000000   7.0000000
 Leave Link  101 at Sun Oct 13 09:51:42 2024, MaxMem=  2684354560 cpu:               1.7 elap:               0.1
 (Enter /usr/local/g16_AVX//g16/l103.exe)

 GradGradGradGradGradGradGradGradGradGradGradGradGradGradGradGradGradGrad
 Berny optimization.
 Initialization pass.
 Trust Radius=3.00D-01 FncErr=1.00D-07 GrdErr=1.00D-07 EigMax=2.50D+02 EigMin=1.00D-04
 Number of steps in this run=      2 maximum allowed number of steps=      2.
 GradGradGradGradGradGradGradGradGradGradGradGradGradGradGradGradGradGrad

 Leave Link  103 at Sun Oct 13 09:51:42 2024, MaxMem=  2684354560 cpu:               0.3 elap:               0.0
 (Enter /usr/local/g16_AVX//g16/l202.exe)
                          Input orientation:                          
 ---------------------------------------------------------------------
 Center     Atomic      Atomic             Coordinates (Angstroms)
 Number     Number       Type             X           Y           Z
 ---------------------------------------------------------------------
      1          6           0       -0.347191   -0.000009    0.000387
      2         17           0       -2.179201   -0.000003   -0.000014
      3          1           0       -0.017856    0.002368   -1.032480
      4          1           0       -0.018711    0.893453    0.519227
      5          1           0       -0.018710   -0.895855    0.515110
      6          6           0        2.457625    0.000032   -0.000862
      7          7           0        3.637390   -0.000010    0.000309
 ---------------------------------------------------------------------
                    Distance matrix (angstroms):
                    1          2          3          4          5
     1  C    0.000000
     2  Cl   1.832010   0.000000
     3  H    1.084104   2.395288   0.000000
     4  H    1.084144   2.394910   1.789365   0.000000
     5  H    1.084149   2.394916   1.789369   1.789313   0.000000
     6  C    2.804816   4.636826   2.681837   2.683456   2.683482
     7  N    3.984581   5.816591   3.798353   3.799293   3.799293
                    6          7
     6  C    0.000000
     7  N    1.179766   0.000000
 Symmetry turned off by external request.
 This structure is nearly, but not quite of a higher symmetry.
 Consider Symm=Loose if the higher symmetry is desired.
 Stoichiometry    C2H3ClN(1-)
 Framework group  C1[X(C2H3ClN)]
 Deg. of freedom    15
 Full point group                 C1      NOp   1
 Rotational constants (GHZ):         156.6175195           1.1839088           1.1839084
 Leave Link  202 at Sun Oct 13 09:51:42 2024, MaxMem=  2684354560 cpu:               0.2 elap:               0.0
 (Enter /usr/local/g16_AVX//g16/l301.exe)
 Standard basis: 6-31++G(d,p) (6D, 7F)
 Ernie: Thresh=  0.10000D-02 Tol=  0.10000D-05 Strict=F.
    98 basis functions,   176 primitive gaussians,    98 cartesian basis functions
    20 alpha electrons       20 beta electrons
       nuclear repulsion energy       110.5555510560 Hartrees.
 IExCor=  402 DFT=T Ex+Corr=B3LYP ExCW=0 ScaHFX=  0.200000
 ScaDFX=  0.800000  0.720000  1.000000  0.810000 ScalE2=  1.000000  1.000000
 IRadAn=      5 IRanWt=     -1 IRanGd=            0 ICorTp=0 IEmpDi=  4
 NAtoms=    7 NActive=    7 NUniq=    7 SFac= 1.00D+00 NAtFMM=   60 NAOKFM=F Big=F
 Integral buffers will be    131072 words long.
 Raffenetti 2 integral format.
 Two-electron integral symmetry is turned off.
 Leave Link  301 at Sun Oct 13 09:51:42 2024, MaxMem=  2684354560 cpu:               1.0 elap:               0.1
 (Enter /usr/local/g16_AVX//g16/l302.exe)
 NPDir=0 NMtPBC=     1 NCelOv=     1 NCel=       1 NClECP=     1 NCelD=      1
         NCelK=      1 NCelE2=     1 NClLst=     1 CellRange=     0.0.
 One-electron integrals computed using PRISM.
 NBasis=    98 RedAO= T EigKep=  1.28D-04  NBF=    98
 NBsUse=    98 1.00D-06 EigRej= -1.00D+00 NBFU=    98
 Precomputing XC quadrature grid using
 IXCGrd= 4 IRadAn=           5 IRanWt=          -1 IRanGd=           0 AccXCQ= 0.00D+00.
 Generated NRdTot=       0 NPtTot=           0 NUsed=           0 NTot=          32
 NSgBfM=    98    98    98    98    98 MxSgAt=     7 MxSgA2=     7.
 Leave Link  302 at Sun Oct 13 09:51:43 2024, MaxMem=  2684354560 cpu:               3.0 elap:               0.1
 (Enter /usr/local/g16_AVX//g16/l303.exe)
 DipDrv:  MaxL=1.
 Leave Link  303 at Sun Oct 13 09:51:43 2024, MaxMem=  2684354560 cpu:               0.5 elap:               0.0
 (Enter /usr/local/g16_AVX//g16/l401.exe)
 ExpMin= 3.60D-02 ExpMax= 2.52D+04 ExpMxC= 3.78D+03 IAcc=3 IRadAn=         5 AccDes= 0.00D+00
 Harris functional with IExCor=  402 and IRadAn=       5 diagonalized for initial guess.
 HarFok:  IExCor=  402 AccDes= 0.00D+00 IRadAn=         5 IDoV= 1 UseB2=F ITyADJ=14
 ICtDFT=  3500011 ScaDFX=  1.000000  1.000000  1.000000  1.000000
 FoFCou: FMM=F IPFlag=           0 FMFlag=      100000 FMFlg1=           0
         NFxFlg=           0 DoJE=T BraDBF=F KetDBF=T FulRan=T
         wScrn=  0.000000 ICntrl=       500 IOpCl=  0 I1Cent=   200000004 NGrid=           0
         NMat0=    1 NMatS0=      1 NMatT0=    0 NMatD0=    1 NMtDS0=    0 NMtDT0=    0
 Symmetry not used in FoFCou.
 Harris En= -593.077247943390    
 JPrj=0 DoOrth=F DoCkMO=F.
 Leave Link  401 at Sun Oct 13 09:51:43 2024, MaxMem=  2684354560 cpu:               5.1 elap:               0.2
 (Enter /usr/local/g16_AVX//g16/l502.exe)
 Keep R1 ints in memory in canonical form, NReq=35752935.
 FoFCou: FMM=F IPFlag=           0 FMFlag=           0 FMFlg1=           0
         NFxFlg=           0 DoJE=F BraDBF=F KetDBF=F FulRan=T
         wScrn=  0.000000 ICntrl=       600 IOpCl=  0 I1Cent=           0 NGrid=           0
         NMat0=    1 NMatS0=   4851 NMatT0=    0 NMatD0=    1 NMtDS0=    0 NMtDT0=    0
 Symmetry not used in FoFCou.
 Two-electron integral symmetry not used.
 Closed shell SCF:
 Using DIIS extrapolation, IDIIS=  1040.
 NGot=  2684354560 LenX=  2672563405 LenY=  2672553360
 Requested convergence on RMS density matrix=1.00D-08 within 128 cycles.
 Requested convergence on MAX density matrix=1.00D-06.
 Requested convergence on             energy=1.00D-06.
 No special actions if energy rises.

 Cycle   1  Pass 1  IDiag  1:
 E= -592.840158811039    
 DIIS: error= 3.47D-02 at cycle   1 NSaved=   1.
 NSaved= 1 IEnMin= 1 EnMin= -592.840158811039     IErMin= 1 ErrMin= 3.47D-02
 ErrMax= 3.47D-02  0.00D+00 EMaxC= 1.00D-01 BMatC= 1.33D-01 BMatP= 1.33D-01
 IDIUse=3 WtCom= 6.53D-01 WtEn= 3.47D-01
 Coeff-Com:  0.100D+01
 Coeff-En:   0.100D+01
 Coeff:      0.100D+01
 Gap=     0.627 Goal=   None    Shift=    0.000
 GapD=    0.627 DampG=2.000 DampE=0.500 DampFc=1.0000 IDamp=-1.
 RMSDP=8.83D-02 MaxDP=3.05D+00              OVMax= 3.84D-01

 Cycle   2  Pass 1  IDiag  1:
 E= -592.634343288183     Delta-E=        0.205815522856 Rises=F Damp=F
 DIIS: error= 4.84D-02 at cycle   2 NSaved=   2.
 NSaved= 2 IEnMin= 1 EnMin= -592.840158811039     IErMin= 1 ErrMin= 3.47D-02
 ErrMax= 4.84D-02  0.00D+00 EMaxC= 1.00D-01 BMatC= 3.01D-01 BMatP= 1.33D-01
 IDIUse=2 WtCom= 0.00D+00 WtEn= 1.00D+00
 Coeff-En:   0.687D+00 0.313D+00
 Coeff:      0.687D+00 0.313D+00
 Gap=     0.154 Goal=   None    Shift=    0.000
 RMSDP=8.67D-02 MaxDP=3.07D+00 DE= 2.06D-01 OVMax= 2.48D-01

 Cycle   3  Pass 1  IDiag  1:
 E= -592.982428726979     Delta-E=       -0.348085438796 Rises=F Damp=F
 DIIS: error= 8.06D-03 at cycle   3 NSaved=   3.
 NSaved= 3 IEnMin= 3 EnMin= -592.982428726979     IErMin= 3 ErrMin= 8.06D-03
 ErrMax= 8.06D-03  0.00D+00 EMaxC= 1.00D-01 BMatC= 1.05D-02 BMatP= 1.33D-01
 IDIUse=3 WtCom= 9.19D-01 WtEn= 8.06D-02
 Coeff-Com:  0.269D+00 0.104D+00 0.628D+00
 Coeff-En:   0.000D+00 0.000D+00 0.100D+01
 Coeff:      0.247D+00 0.952D-01 0.658D+00
 Gap=     0.185 Goal=   None    Shift=    0.000
 RMSDP=2.77D-03 MaxDP=4.86D-02 DE=-3.48D-01 OVMax= 5.05D-02

 Cycle   4  Pass 1  IDiag  1:
 E= -592.987105664561     Delta-E=       -0.004676937581 Rises=F Damp=F
 DIIS: error= 1.20D-02 at cycle   4 NSaved=   4.
 NSaved= 4 IEnMin= 4 EnMin= -592.987105664561     IErMin= 3 ErrMin= 8.06D-03
 ErrMax= 1.20D-02  0.00D+00 EMaxC= 1.00D-01 BMatC= 7.11D-03 BMatP= 1.05D-02
 IDIUse=3 WtCom= 8.80D-01 WtEn= 1.20D-01
 Coeff-Com:  0.517D-01-0.246D-01 0.495D+00 0.478D+00
 Coeff-En:   0.000D+00 0.000D+00 0.383D+00 0.617D+00
 Coeff:      0.455D-01-0.216D-01 0.481D+00 0.495D+00
 Gap=     0.176 Goal=   None    Shift=    0.000
 RMSDP=9.90D-04 MaxDP=1.54D-02 DE=-4.68D-03 OVMax= 2.98D-02

 Cycle   5  Pass 1  IDiag  1:
 E= -592.993483817334     Delta-E=       -0.006378152773 Rises=F Damp=F
 DIIS: error= 2.64D-03 at cycle   5 NSaved=   5.
 NSaved= 5 IEnMin= 5 EnMin= -592.993483817334     IErMin= 5 ErrMin= 2.64D-03
 ErrMax= 2.64D-03  0.00D+00 EMaxC= 1.00D-01 BMatC= 3.08D-04 BMatP= 7.11D-03
 IDIUse=3 WtCom= 9.74D-01 WtEn= 2.64D-02
 Coeff-Com:  0.169D-01-0.123D-01 0.227D+00 0.277D+00 0.491D+00
 Coeff-En:   0.000D+00 0.000D+00 0.000D+00 0.000D+00 0.100D+01
 Coeff:      0.164D-01-0.120D-01 0.221D+00 0.270D+00 0.504D+00
 Gap=     0.179 Goal=   None    Shift=    0.000
 RMSDP=2.97D-04 MaxDP=4.78D-03 DE=-6.38D-03 OVMax= 6.91D-03

 Cycle   6  Pass 1  IDiag  1:
 E= -592.993761614180     Delta-E=       -0.000277796846 Rises=F Damp=F
 DIIS: error= 8.54D-04 at cycle   6 NSaved=   6.
 NSaved= 6 IEnMin= 6 EnMin= -592.993761614180     IErMin= 6 ErrMin= 8.54D-04
 ErrMax= 8.54D-04  0.00D+00 EMaxC= 1.00D-01 BMatC= 3.05D-05 BMatP= 3.08D-04
 IDIUse=3 WtCom= 9.91D-01 WtEn= 8.54D-03
 Coeff-Com:  0.308D-02-0.598D-02 0.606D-01 0.748D-01 0.262D+00 0.605D+00
 Coeff-En:   0.000D+00 0.000D+00 0.000D+00 0.000D+00 0.735D-01 0.926D+00
 Coeff:      0.306D-02-0.593D-02 0.600D-01 0.742D-01 0.261D+00 0.608D+00
 Gap=     0.179 Goal=   None    Shift=    0.000
 RMSDP=7.55D-05 MaxDP=1.44D-03 DE=-2.78D-04 OVMax= 1.68D-03

 Cycle   7  Pass 1  IDiag  1:
 E= -592.993790763008     Delta-E=       -0.000029148827 Rises=F Damp=F
 DIIS: error= 6.75D-05 at cycle   7 NSaved=   7.
 NSaved= 7 IEnMin= 7 EnMin= -592.993790763008     IErMin= 7 ErrMin= 6.75D-05
 ErrMax= 6.75D-05  0.00D+00 EMaxC= 1.00D-01 BMatC= 4.12D-07 BMatP= 3.05D-05
 IDIUse=1 WtCom= 1.00D+00 WtEn= 0.00D+00
 Coeff-Com:  0.343D-03-0.827D-03 0.269D-02 0.211D-02 0.434D-01 0.183D+00
 Coeff-Com:  0.769D+00
 Coeff:      0.343D-03-0.827D-03 0.269D-02 0.211D-02 0.434D-01 0.183D+00
 Coeff:      0.769D+00
 Gap=     0.179 Goal=   None    Shift=    0.000
 RMSDP=1.37D-05 MaxDP=2.39D-04 DE=-2.91D-05 OVMax= 2.68D-04

 Cycle   8  Pass 1  IDiag  1:
 E= -592.993791241526     Delta-E=       -0.000000478519 Rises=F Damp=F
 DIIS: error= 1.06D-05 at cycle   8 NSaved=   8.
 NSaved= 8 IEnMin= 8 EnMin= -592.993791241526     IErMin= 8 ErrMin= 1.06D-05
 ErrMax= 1.06D-05  0.00D+00 EMaxC= 1.00D-01 BMatC= 1.64D-08 BMatP= 4.12D-07
 IDIUse=1 WtCom= 1.00D+00 WtEn= 0.00D+00
 Coeff-Com:  0.931D-04-0.127D-03 0.769D-04 0.241D-03 0.102D-01 0.457D-01
 Coeff-Com:  0.241D+00 0.702D+00
 Coeff:      0.931D-04-0.127D-03 0.769D-04 0.241D-03 0.102D-01 0.457D-01
 Coeff:      0.241D+00 0.702D+00
 Gap=     0.179 Goal=   None    Shift=    0.000
 RMSDP=2.39D-06 MaxDP=6.81D-05 DE=-4.79D-07 OVMax= 4.63D-05

 Cycle   9  Pass 1  IDiag  1:
 E= -592.993791258510     Delta-E=       -0.000000016984 Rises=F Damp=F
 DIIS: error= 3.13D-06 at cycle   9 NSaved=   9.
 NSaved= 9 IEnMin= 9 EnMin= -592.993791258510     IErMin= 9 ErrMin= 3.13D-06
 ErrMax= 3.13D-06  0.00D+00 EMaxC= 1.00D-01 BMatC= 1.71D-09 BMatP= 1.64D-08
 IDIUse=1 WtCom= 1.00D+00 WtEn= 0.00D+00
 Coeff-Com: -0.108D-04 0.133D-04-0.147D-03 0.132D-03 0.134D-02 0.488D-02
 Coeff-Com:  0.367D-01 0.269D+00 0.688D+00
 Coeff:     -0.108D-04 0.133D-04-0.147D-03 0.132D-03 0.134D-02 0.488D-02
 Coeff:      0.367D-01 0.269D+00 0.688D+00
 Gap=     0.179 Goal=   None    Shift=    0.000
 RMSDP=7.65D-07 MaxDP=2.00D-05 DE=-1.70D-08 OVMax= 1.20D-05

 Cycle  10  Pass 1  IDiag  1:
 E= -592.993791260383     Delta-E=       -0.000000001873 Rises=F Damp=F
 DIIS: error= 4.07D-07 at cycle  10 NSaved=  10.
 NSaved=10 IEnMin=10 EnMin= -592.993791260383     IErMin=10 ErrMin= 4.07D-07
 ErrMax= 4.07D-07  0.00D+00 EMaxC= 1.00D-01 BMatC= 2.32D-11 BMatP= 1.71D-09
 IDIUse=1 WtCom= 1.00D+00 WtEn= 0.00D+00
 Coeff-Com: -0.822D-05 0.674D-05-0.168D-04 0.355D-04-0.234D-04-0.605D-03
 Coeff-Com: -0.171D-02 0.216D-01 0.138D+00 0.843D+00
 Coeff:     -0.822D-05 0.674D-05-0.168D-04 0.355D-04-0.234D-04-0.605D-03
 Coeff:     -0.171D-02 0.216D-01 0.138D+00 0.843D+00
 Gap=     0.179 Goal=   None    Shift=    0.000
 RMSDP=1.60D-07 MaxDP=3.52D-06 DE=-1.87D-09 OVMax= 2.07D-06

 Cycle  11  Pass 1  IDiag  1:
 E= -592.993791260412     Delta-E=       -0.000000000029 Rises=F Damp=F
 DIIS: error= 5.29D-08 at cycle  11 NSaved=  11.
 NSaved=11 IEnMin=11 EnMin= -592.993791260412     IErMin=11 ErrMin= 5.29D-08
 ErrMax= 5.29D-08  0.00D+00 EMaxC= 1.00D-01 BMatC= 3.11D-13 BMatP= 2.32D-11
 IDIUse=1 WtCom= 1.00D+00 WtEn= 0.00D+00
 Coeff-Com: -0.115D-05 0.637D-06-0.821D-05-0.110D-04-0.512D-04-0.151D-03
 Coeff-Com: -0.212D-03-0.227D-02 0.465D-02 0.830D-01 0.915D+00
 Coeff:     -0.115D-05 0.637D-06-0.821D-05-0.110D-04-0.512D-04-0.151D-03
 Coeff:     -0.212D-03-0.227D-02 0.465D-02 0.830D-01 0.915D+00
 Gap=     0.179 Goal=   None    Shift=    0.000
 RMSDP=3.68D-08 MaxDP=7.05D-07 DE=-2.92D-11 OVMax= 3.91D-07

 Cycle  12  Pass 1  IDiag  1:
 E= -592.993791260412     Delta-E=        0.000000000000 Rises=F Damp=F
 DIIS: error= 6.19D-09 at cycle  12 NSaved=  12.
 NSaved=12 IEnMin=11 EnMin= -592.993791260412     IErMin=12 ErrMin= 6.19D-09
 ErrMax= 6.19D-09  0.00D+00 EMaxC= 1.00D-01 BMatC= 4.17D-15 BMatP= 3.11D-13
 IDIUse=1 WtCom= 1.00D+00 WtEn= 0.00D+00
 Coeff-Com: -0.542D-07 0.119D-07-0.962D-06-0.230D-05-0.913D-05-0.203D-04
 Coeff-Com: -0.366D-04-0.821D-03-0.213D-02 0.993D-04 0.118D+00 0.885D+00
 Coeff:     -0.542D-07 0.119D-07-0.962D-06-0.230D-05-0.913D-05-0.203D-04
 Coeff:     -0.366D-04-0.821D-03-0.213D-02 0.993D-04 0.118D+00 0.885D+00
 Gap=     0.179 Goal=   None    Shift=    0.000
 RMSDP=2.04D-09 MaxDP=4.06D-08 DE= 0.00D+00 OVMax= 4.25D-08

 SCF Done:  E(RB3LYP) =  -592.993791260     A.U. after   12 cycles
            NFock= 12  Conv=0.20D-08     -V/T= 2.0045
 KE= 5.903314826800D+02 PE=-1.630826673873D+03 EE= 3.369458488769D+02
 Leave Link  502 at Sun Oct 13 09:51:45 2024, MaxMem=  2684354560 cpu:              39.7 elap:               1.8
 (Enter /usr/local/g16_AVX//g16/l801.exe)
 DoSCS=F DFT=T ScalE2(SS,OS)=  1.000000  1.000000
 Range of M.O.s used for correlation:     1    98
 NBasis=    98 NAE=    20 NBE=    20 NFC=     0 NFV=     0
 NROrb=     98 NOA=    20 NOB=    20 NVA=    78 NVB=    78

 **** Warning!!: The largest alpha MO coefficient is  0.34701937D+02

 Leave Link  801 at Sun Oct 13 09:51:45 2024, MaxMem=  2684354560 cpu:               0.4 elap:               0.0
 (Enter /usr/local/g16_AVX//g16/l1101.exe)
 Using compressed storage, NAtomX=     7.
 Will process      8 centers per pass.
 Leave Link 1101 at Sun Oct 13 09:51:45 2024, MaxMem=  2684354560 cpu:               3.0 elap:               0.2
 (Enter /usr/local/g16_AVX//g16/l1102.exe)
 Symmetrizing basis deriv contribution to polar:
 IMax=3 JMax=2 DiffMx= 0.00D+00
 Leave Link 1102 at Sun Oct 13 09:51:45 2024, MaxMem=  2684354560 cpu:               0.5 elap:               0.0
 (Enter /usr/local/g16_AVX//g16/l1110.exe)
 Forming Gx(P) for the SCF density, NAtomX=     7.
 Integral derivatives from FoFJK, PRISM(SPDF).
 Do as many integral derivatives as possible in FoFJK.
 G2DrvN: MDV=    2684353864.
 G2DrvN: will do     8 centers at a time, making    1 passes.
 Calling FoFCou, ICntrl=  3107 FMM=F I1Cent=   0 AccDes= 0.00D+00.
 FoFJK:  IHMeth= 1 ICntrl=    3107 DoSepK=F KAlg= 0 I1Cent=           0 FoldK=F
 IRaf=         0 NMat=       1 IRICut=       1 DoRegI=T DoRafI=F ISym2E= 0 IDoP0=0 IntGTp=1.
 FoFCou: FMM=F IPFlag=           0 FMFlag=      100000 FMFlg1=           0
         NFxFlg=           0 DoJE=F BraDBF=F KetDBF=F FulRan=T
         wScrn=  0.000000 ICntrl=      3107 IOpCl=  0 I1Cent=           0 NGrid=           0
         NMat0=    1 NMatS0=      1 NMatT0=    0 NMatD0=    1 NMtDS0=    0 NMtDT0=    0
 Symmetry not used in FoFCou.
 End of G2Drv F.D. properties file   721 does not exist.
 End of G2Drv F.D. properties file   722 does not exist.
 End of G2Drv F.D. properties file   788 does not exist.
 Leave Link 1110 at Sun Oct 13 09:51:47 2024, MaxMem=  2684354560 cpu:              52.0 elap:               2.0
 (Enter /usr/local/g16_AVX//g16/l1002.exe)
 Minotr:  Closed shell wavefunction.
          IDoAtm=1111111
          Direct CPHF calculation.
          Differentiating once with respect to electric field.
                with respect to dipole field.
          Differentiating once with respect to nuclear coordinates.
          Requested convergence is 1.0D-08 RMS, and 1.0D-07 maximum.
          Secondary convergence is 1.0D-12 RMS, and 1.0D-12 maximum.
          NewPWx=T KeepS1=F KeepF1=F KeepIn=T MapXYZ=F SortEE=F KeepMc=T.
         2136 words used for storage of precomputed grid.
 Keep R1 ints in memory in canonical form, NReq=35668397.
 FoFCou: FMM=F IPFlag=           0 FMFlag=           0 FMFlg1=           0
         NFxFlg=           0 DoJE=F BraDBF=F KetDBF=F FulRan=T
         wScrn=  0.000000 ICntrl=       600 IOpCl=  0 I1Cent=           0 NGrid=           0
         NMat0=    1 NMatS0=   4851 NMatT0=    0 NMatD0=    1 NMtDS0=    0 NMtDT0=    0
 Symmetry not used in FoFCou.
 Two-electron integral symmetry not used.
          MDV=    2684354560 using IRadAn=       1.
          Solving linear equations simultaneously, MaxMat=       0.
          There are    24 degrees of freedom in the 1st order CPHF.  IDoFFX=6 NUNeed=     3.
     21 vectors produced by pass  0 Test12= 6.50D-15 4.17D-09 XBig12= 8.24D+01 4.34D+00.
 AX will form    21 AO Fock derivatives at one time.
     21 vectors produced by pass  1 Test12= 6.50D-15 4.17D-09 XBig12= 4.53D+01 2.02D+00.
     21 vectors produced by pass  2 Test12= 6.50D-15 4.17D-09 XBig12= 1.37D+00 2.98D-01.
     21 vectors produced by pass  3 Test12= 6.50D-15 4.17D-09 XBig12= 2.93D-02 4.87D-02.
     21 vectors produced by pass  4 Test12= 6.50D-15 4.17D-09 XBig12= 8.54D-05 2.27D-03.
     16 vectors produced by pass  5 Test12= 6.50D-15 4.17D-09 XBig12= 1.96D-07 9.37D-05.
      6 vectors produced by pass  6 Test12= 6.50D-15 4.17D-09 XBig12= 2.36D-10 3.07D-06.
      1 vectors produced by pass  7 Test12= 6.50D-15 4.17D-09 XBig12= 2.80D-13 1.31D-07.
      1 vectors produced by pass  8 Test12= 6.50D-15 4.17D-09 XBig12= 4.30D-16 4.74D-09.
 InvSVY:  IOpt=1 It=  1 EMax= 5.33D-15
 Solved reduced A of dimension   129 with    24 vectors.
 FullF1:  Do perturbations      1 to       3.
 Isotropic polarizability for W=    0.000000       56.30 Bohr**3.
 End of Minotr F.D. properties file   721 does not exist.
 End of Minotr F.D. properties file   722 does not exist.
 End of Minotr F.D. properties file   788 does not exist.
 Leave Link 1002 at Sun Oct 13 09:51:50 2024, MaxMem=  2684354560 cpu:              76.1 elap:               3.0
 (Enter /usr/local/g16_AVX//g16/l601.exe)
 Copying SCF densities to generalized density rwf, IOpCl= 0 IROHF=0.

 **********************************************************************

            Population analysis using the SCF Density.

 **********************************************************************

 Alpha  occ. eigenvalues -- -101.40745 -14.09527 -10.09792  -9.96004  -9.32376
 Alpha  occ. eigenvalues --   -7.08669  -7.07844  -7.07844  -0.71336  -0.64864
 Alpha  occ. eigenvalues --   -0.53717  -0.30526  -0.30526  -0.27491  -0.18295
 Alpha  occ. eigenvalues --   -0.17307  -0.17306  -0.09769  -0.09769  -0.06940
 Alpha virt. eigenvalues --    0.10994   0.12944   0.14565   0.14566   0.17316
 Alpha virt. eigenvalues --    0.20410   0.20411   0.20534   0.22122   0.22130
 Alpha virt. eigenvalues --    0.24265   0.25021   0.25024   0.27151   0.27524
 Alpha virt. eigenvalues --    0.27528   0.31463   0.33674   0.33682   0.36245
 Alpha virt. eigenvalues --    0.38633   0.38636   0.38664   0.46624   0.48182
 Alpha virt. eigenvalues --    0.65634   0.73472   0.74629   0.74630   0.77557
 Alpha virt. eigenvalues --    0.77561   0.88263   0.89691   0.89693   0.98124
 Alpha virt. eigenvalues --    0.99624   0.99627   1.04677   1.04683   1.08583
 Alpha virt. eigenvalues --    1.09763   1.09770   1.12555   1.19073   1.19076
 Alpha virt. eigenvalues --    1.25212   1.26869   1.36844   1.47618   1.60554
 Alpha virt. eigenvalues --    1.60559   1.76963   1.78121   1.78121   1.80396
 Alpha virt. eigenvalues --    1.80398   2.15897   2.20140   2.20141   2.22078
 Alpha virt. eigenvalues --    2.22081   2.29402   2.49397   2.49410   2.67062
 Alpha virt. eigenvalues --    2.83450   2.83452   2.83799   2.95858   2.95861
 Alpha virt. eigenvalues --    3.26144   3.38903   3.55965   3.55969   4.21360
 Alpha virt. eigenvalues --    4.41808   4.45971   4.57352
          Condensed to atoms (all electrons):
               1          2          3          4          5          6
     1  C    5.434121  -0.079206   0.417698   0.417635   0.417634  -0.176546
     2  Cl  -0.079206  17.358609  -0.050064  -0.050294  -0.050298   0.067221
     3  H    0.417698  -0.050064   0.507774  -0.023376  -0.023377  -0.042410
     4  H    0.417635  -0.050294  -0.023376   0.507993  -0.023413  -0.042018
     5  H    0.417634  -0.050298  -0.023377  -0.023413   0.507996  -0.042007
     6  C   -0.176546   0.067221  -0.042410  -0.042018  -0.042007   6.083674
     7  N   -0.001511  -0.002487   0.000402   0.000379   0.000378   0.661436
               7
     1  C   -0.001511
     2  Cl  -0.002487
     3  H    0.000402
     4  H    0.000379
     5  H    0.000378
     6  C    0.661436
     7  N    6.848277
 Mulliken charges:
               1
     1  C   -0.429825
     2  Cl  -0.193483
     3  H    0.213353
     4  H    0.213093
     5  H    0.213087
     6  C   -0.509351
     7  N   -0.506875
 Sum of Mulliken charges =  -1.00000
 Mulliken charges with hydrogens summed into heavy atoms:
               1
     1  C    0.209708
     2  Cl  -0.193483
     6  C   -0.509351
     7  N   -0.506875
 APT charges:
               1
     1  C    0.627028
     2  Cl  -0.657642
     3  H    0.015548
     4  H    0.015300
     5  H    0.015297
     6  C   -0.393720
     7  N   -0.621812
 Sum of APT charges =  -1.00000
 APT charges with hydrogens summed into heavy atoms:
               1
     1  C    0.673174
     2  Cl  -0.657642
     6  C   -0.393720
     7  N   -0.621812
 Electronic spatial extent (au):  <R**2>=            882.0553
 Charge=             -1.0000 electrons
 Dipole moment (field-independent basis, Debye):
    X=             -9.9190    Y=             -0.0001    Z=              0.0018  Tot=              9.9190
 Quadrupole moment (field-independent basis, Debye-Ang):
   XX=            -89.9884   YY=            -35.4340   ZZ=            -35.4332
   XY=             -0.0000   XZ=             -0.0004   YZ=              0.0000
 Traceless Quadrupole moment (field-independent basis, Debye-Ang):
   XX=            -36.3699   YY=             18.1845   ZZ=             18.1854
   XY=             -0.0000   XZ=             -0.0004   YZ=              0.0000
 Octapole moment (field-independent basis, Debye-Ang**2):
  XXX=           -186.0924  YYY=             -0.0063  ZZZ=             -0.8715  XYY=            -11.9042
  XXY=              0.0003  XXZ=             -0.0095  XZZ=            -11.9028  YZZ=              0.0060
  YYZ=              0.8792  XYZ=              0.0000
 Hexadecapole moment (field-independent basis, Debye-Ang**3):
 XXXX=          -1913.8940 YYYY=            -56.0743 ZZZZ=            -56.0739 XXXY=              0.0005
 XXXZ=             -0.0295 YYYX=             -0.0018 YYYZ=             -0.0000 ZZZX=             -0.0324
 ZZZY=              0.0000 XXYY=           -227.8118 XXZZ=           -227.8108 YYZZ=            -18.6901
 XXYZ=              0.0000 YYXZ=              0.0688 ZZXY=             -0.0001
 N-N= 1.105555510560D+02 E-N=-1.630826673730D+03  KE= 5.903314826800D+02
  Exact polarizability:  89.353  -0.000  39.780   0.010  -0.000  39.779
 Approx polarizability: 110.203  -0.001  49.683   0.024  -0.000  49.682
 No NMR shielding tensors so no spin-rotation constants.
 Leave Link  601 at Sun Oct 13 09:51:50 2024, MaxMem=  2684354560 cpu:               2.8 elap:               0.1
 (Enter /usr/local/g16_AVX//g16/l701.exe)
 ... and contract with generalized density number  0.
 Compute integral second derivatives.
 Leave Link  701 at Sun Oct 13 09:51:51 2024, MaxMem=  2684354560 cpu:               4.8 elap:               0.2
 (Enter /usr/local/g16_AVX//g16/l702.exe)
 L702 exits ... SP integral derivatives will be done elsewhere.
 Leave Link  702 at Sun Oct 13 09:51:51 2024, MaxMem=  2684354560 cpu:               0.4 elap:               0.0
 (Enter /usr/local/g16_AVX//g16/l703.exe)
 Integral derivatives from FoFJK, PRISM(SPDF).
 Compute integral second derivatives, UseDBF=F ICtDFT=           0.
 Calling FoFJK, ICntrl=    100127 FMM=F ISym2X=0 I1Cent= 0 IOpClX= 0 NMat=1 NMatS=1 NMatT=0.
 FoFJK:  IHMeth= 1 ICntrl=  100127 DoSepK=F KAlg= 0 I1Cent=           0 FoldK=F
 IRaf=         0 NMat=       1 IRICut=       1 DoRegI=T DoRafI=F ISym2E= 0 IDoP0=0 IntGTp=1.
 FoFCou: FMM=F IPFlag=           0 FMFlag=      100000 FMFlg1=         800
         NFxFlg=           0 DoJE=F BraDBF=F KetDBF=F FulRan=T
         wScrn=  0.000000 ICntrl=    100127 IOpCl=  0 I1Cent=           0 NGrid=           0
         NMat0=    1 NMatS0=      1 NMatT0=    0 NMatD0=    1 NMtDS0=    0 NMtDT0=    0
 Symmetry not used in FoFCou.
 Leave Link  703 at Sun Oct 13 09:51:55 2024, MaxMem=  2684354560 cpu:             109.3 elap:               4.3
 (Enter /usr/local/g16_AVX//g16/l716.exe)
 Dipole        =-3.90242911D+00-2.15740355D-05 6.99112351D-04
 Polarizability= 8.93527188D+01-3.57876183D-04 3.97799411D+01
                 1.04203288D-02-3.36670267D-05 3.97791134D+01
 Full mass-weighted force constant matrix:
 Low frequencies ---  -87.1361  -87.1177  -41.1749  -41.1523   -0.0026   -0.0016
 Low frequencies ---    0.0014  106.0642  108.2168
 ******    2 imaginary frequencies (negative Signs) ****** 
 Diagonal vibrational polarizability:
       79.7105354      27.3298544      27.3673845
 Harmonic frequencies (cm**-1), IR intensities (KM/Mole), Raman scattering
 activities (A**4/AMU), depolarization ratios for plane and unpolarized
 incident light, reduced masses (AMU), force constants (mDyne/A),
 and normal coordinates:
                      1                      2                      3
                      A                      A                      A
 Frequencies --    -86.8486               -86.8314               107.4878
 Red. masses --      9.1984                 9.1971                 3.7455
 Frc consts  --      0.0409                 0.0409                 0.0255
 IR Inten    --      0.0316                 0.0316                11.6591
  Atom  AN      X      Y      Z        X      Y      Z        X      Y      Z
     1   6    -0.00   0.01   0.24     0.00   0.24  -0.01    -0.00   0.00   0.39
     2  17    -0.00  -0.00  -0.11     0.00  -0.11   0.00    -0.00  -0.00  -0.10
     3   1     0.19   0.01   0.30    -0.01   0.30  -0.01     0.26   0.00   0.48
     4   1    -0.10   0.01   0.30    -0.16   0.30  -0.01    -0.14   0.01   0.46
     5   1    -0.09   0.01   0.30     0.17   0.30  -0.01    -0.13  -0.01   0.46
     6   6    -0.00   0.02   0.60     0.00   0.59  -0.02     0.00  -0.00  -0.26
     7   7     0.00  -0.02  -0.50    -0.00  -0.50   0.02     0.00   0.00   0.03
                      4                      5                      6
                      A                      A                      A
 Frequencies --    107.5596               161.1481               606.3670
 Red. masses --      3.7467                12.0650                 9.5371
 Frc consts  --      0.0255                 0.1846                 2.0660
 IR Inten    --     11.6575                57.5833               267.5632
  Atom  AN      X      Y      Z        X      Y      Z        X      Y      Z
     1   6     0.00   0.39  -0.00    -0.31   0.00  -0.00     0.72  -0.00   0.00
     2  17     0.00  -0.10   0.00    -0.28  -0.00   0.00    -0.29   0.00  -0.00
     3   1    -0.00   0.46  -0.00    -0.27   0.00   0.01     0.35   0.00  -0.10
     4   1    -0.23   0.48   0.01    -0.27  -0.01  -0.01     0.35   0.09   0.05
     5   1     0.23   0.48  -0.02    -0.27   0.01  -0.01     0.35  -0.09   0.05
     6   6    -0.00  -0.26   0.00     0.55   0.00   0.00     0.02   0.00  -0.00
     7   7    -0.00   0.03  -0.00     0.56  -0.00   0.00     0.01  -0.00   0.00
                      7                      8                      9
                      A                      A                      A
 Frequencies --   1015.1563              1015.4662              1308.3923
 Red. masses --      1.1439                 1.1439                 1.0903
 Frc consts  --      0.6946                 0.6950                 1.0997
 IR Inten    --      0.2115                 0.2126                20.5472
  Atom  AN      X      Y      Z        X      Y      Z        X      Y      Z
     1   6     0.00  -0.00  -0.11    -0.00  -0.11   0.00    -0.08  -0.00   0.00
     2  17    -0.00   0.00   0.02     0.00   0.02  -0.00    -0.02   0.00  -0.00
     3   1     0.77   0.00   0.13    -0.01   0.23  -0.00     0.55  -0.00   0.18
     4   1    -0.39  -0.04   0.20    -0.66   0.16  -0.04     0.55  -0.15  -0.09
     5   1    -0.37   0.04   0.20     0.67   0.16   0.04     0.55   0.15  -0.09
     6   6    -0.00  -0.00  -0.00     0.00  -0.00   0.00    -0.00  -0.00   0.00
     7   7    -0.00  -0.00  -0.00     0.00  -0.00   0.00    -0.00   0.00  -0.00
                     10                     11                     12
                      A                      A                      A
 Frequencies --   1457.7417              1457.8256              2155.5074
 Red. masses --      1.0618                 1.0619                12.8256
 Frc consts  --      1.3294                 1.3296                35.1097
 IR Inten    --      7.4166                 7.4122                16.2982
  Atom  AN      X      Y      Z        X      Y      Z        X      Y      Z
     1   6     0.00  -0.07   0.00    -0.00  -0.00  -0.07    -0.00  -0.00   0.00
     2  17     0.00  -0.00   0.00    -0.00  -0.00  -0.00     0.00  -0.00   0.00
     3   1     0.01   0.75   0.00    -0.28   0.01  -0.13    -0.02   0.00  -0.01
     4   1     0.24   0.10  -0.39     0.14  -0.38   0.52    -0.02   0.01   0.00
     5   1    -0.24   0.08   0.37     0.13   0.38   0.54    -0.02  -0.01   0.00
     6   6     0.00  -0.00   0.00    -0.00  -0.00  -0.00     0.76  -0.00   0.00
     7   7     0.00   0.00  -0.00     0.00   0.00   0.00    -0.65   0.00  -0.00
                     13                     14                     15
                      A                      A                      A
 Frequencies --   3134.2305              3261.7862              3262.2154
 Red. masses --      1.0245                 1.1119                 1.1119
 Frc consts  --      5.9294                 6.9698                 6.9718
 IR Inten    --     12.5645                 0.2051                 0.1975
  Atom  AN      X      Y      Z        X      Y      Z        X      Y      Z
     1   6     0.04  -0.00   0.00    -0.00  -0.10   0.00     0.00  -0.00  -0.10
     2  17    -0.00   0.00  -0.00     0.00   0.00  -0.00    -0.00   0.00   0.00
     3   1    -0.16  -0.00   0.55     0.01  -0.02  -0.03    -0.24  -0.00   0.78
     4   1    -0.16  -0.48  -0.28     0.20   0.56   0.34     0.12   0.36   0.19
     5   1    -0.16   0.48  -0.28    -0.21   0.59  -0.35     0.11  -0.32   0.17
     6   6     0.00   0.00  -0.00    -0.00   0.00  -0.00     0.00   0.00   0.00
     7   7     0.00  -0.00   0.00    -0.00  -0.00   0.00     0.00  -0.00  -0.00

 -------------------
 - Thermochemistry -
 -------------------
 Temperature   298.150 Kelvin.  Pressure   1.00000 Atm.
 Atom     1 has atomic number  6 and mass  12.00000
 Atom     2 has atomic number 17 and mass  34.96885
 Atom     3 has atomic number  1 and mass   1.00783
 Atom     4 has atomic number  1 and mass   1.00783
 Atom     5 has atomic number  1 and mass   1.00783
 Atom     6 has atomic number  6 and mass  12.00000
 Atom     7 has atomic number  7 and mass  14.00307
 Molecular mass:    75.99540 amu.
 Principal axes and moments of inertia in atomic units:
                           1         2         3
     Eigenvalues --    11.523241524.392071524.39258
           X            1.00000   0.00003  -0.00000
           Y            0.00000  -0.03001   0.99955
           Z           -0.00003   0.99955   0.03001
 This molecule is an asymmetric top.
 Rotational symmetry number  1.
 Rotational temperatures (Kelvin)      7.51646     0.05682     0.05682
 Rotational constants (GHZ):         156.61752     1.18391     1.18391
    2 imaginary frequencies ignored.
 Zero-point vibrational energy     113949.6 (Joules/Mol)
                                   27.23461 (Kcal/Mol)
 Warning -- explicit consideration of   4 degrees of freedom as
           vibrations may cause significant error
 Vibrational temperatures:    154.65   154.75   231.86   872.43  1460.58
          (Kelvin)           1461.03  1882.48  2097.37  2097.49  3101.29
                             4509.46  4692.98  4693.60
 
 Zero-point correction=                           0.043401 (Hartree/Particle)
 Thermal correction to Energy=                    0.048547
 Thermal correction to Enthalpy=                  0.049491
 Thermal correction to Gibbs Free Energy=         0.014556
 Sum of electronic and zero-point Energies=           -592.950390
 Sum of electronic and thermal Energies=              -592.945244
 Sum of electronic and thermal Enthalpies=            -592.944300
 Sum of electronic and thermal Free Energies=         -592.979236
 
                     E (Thermal)             CV                S
                      KCal/Mol        Cal/Mol-Kelvin    Cal/Mol-Kelvin
 Total                   30.464             13.802             73.529
 Electronic               0.000              0.000              0.000
 Translational            0.889              2.981             38.900
 Rotational               0.889              2.981             24.797
 Vibrational             28.686              7.841              9.832
 Vibration     1          0.606              1.943              3.314
 Vibration     2          0.606              1.943              3.312
 Vibration     3          0.622              1.890              2.536
 Vibration     4          0.965              1.018              0.439
                       Q            Log10(Q)             Ln(Q)
 Total Bot       0.201807D-06         -6.695064        -15.415955
 Total V=0       0.185371D+14         13.268042         30.550795
 Vib (Bot)       0.132303D-18        -18.878429        -43.469188
 Vib (Bot)    1  0.190645D+01          0.280224          0.645241
 Vib (Bot)    2  0.190514D+01          0.279928          0.644558
 Vib (Bot)    3  0.125409D+01          0.098328          0.226408
 Vib (Bot)    4  0.244639D+00         -0.611475         -1.407973
 Vib (V=0)       0.121528D+02          1.084677          2.497561
 Vib (V=0)    1  0.247092D+01          0.392859          0.904592
 Vib (V=0)    2  0.246966D+01          0.392638          0.904082
 Vib (V=0)    3  0.185009D+01          0.267192          0.615233
 Vib (V=0)    4  0.105664D+01          0.023927          0.055094
 Electronic      0.100000D+01          0.000000          0.000000
 Translational   0.260396D+08          7.415635         17.075130
 Rotational      0.585773D+05          4.767730         10.978103
 
                                                       RxCoord=2.99898 DE=46.72
                                                             IR Spectrum
 
      3   3                                      2                          1     1          1                                       
      2   1                                      1                          4     3          0               6                1 1    
      6   3                                      5                          5     0          1               0                6 0    
      2   4                                      6                          8     8          5               6                1 7    
 
      X   X                                      X                          X     X          X               X                X X    
                                                                                  X                          X                X X    
                                                                                                             X                X      
                                                                                                             X                X      
                                                                                                             X                       
                                                                                                             X                       
                                                                                                             X                       
                                                                                                             X                       
                                                                                                             X                       
                                                                                                             X                       
                                                                                                             X                       
                                                                                                             X                       
                                                                                                             X                       
                                                                                                             X                       
                                                                                                             X                       
                                                                                                             X                       
                                                                                                             X                       
                                                                                                             X                       
                                                                                                             X                       
                                                                                                             X                       
 
 -------------------------------------------------------------------
 Center     Atomic                   Forces (Hartrees/Bohr)
 Number     Number              X              Y              Z
 -------------------------------------------------------------------
      1        6           0.004827902   -0.000002451    0.000059443
      2       17          -0.014285975   -0.000000262   -0.000017754
      3        1           0.001068550   -0.000001814    0.000825009
      4        1           0.001097980   -0.000725838   -0.000436403
      5        1           0.001096724    0.000730443   -0.000434477
      6        6           0.001846921    0.000000027    0.000001469
      7        7           0.004347897   -0.000000106    0.000002712
 -------------------------------------------------------------------
 Cartesian Forces:  Max     0.014285975 RMS     0.003487306
 Z-matrix is all fixed cartesians, so copy forces.
 Force constants in Cartesian coordinates: 
                1             2             3             4             5 
      1  0.245310D+00
      2  0.317642D-05  0.603554D+00
      3 -0.196205D-03  0.456931D-05  0.603763D+00
      4 -0.893124D-01  0.000000D+00 -0.238067D-04  0.177800D+00
      5  0.000000D+00 -0.334158D-01  0.000000D+00  0.000000D+00  0.177135D-01
      6 -0.203414D-04  0.000000D+00 -0.334294D-01  0.575156D-04  0.000000D+00
      7 -0.538921D-01 -0.195213D-03  0.848549D-01 -0.248751D-01 -0.448833D-04
      8 -0.192141D-03 -0.494065D-01  0.642464D-03  0.142040D-04  0.640283D-03
      9  0.834869D-01  0.642224D-03 -0.328376D+00 -0.615794D-02 -0.180013D-04
     10 -0.537776D-01 -0.731541D-01 -0.424802D-01 -0.248947D-01 -0.169043D-01
     11 -0.719840D-01 -0.258045D+00 -0.121146D+00  0.530407D-02  0.649626D-02
     12 -0.417925D-01 -0.121150D+00 -0.119761D+00  0.306931D-02  0.338923D-02
     13 -0.537786D-01  0.733457D-01 -0.421408D-01 -0.248941D-01  0.169494D-01
     14  0.721723D-01 -0.259149D+00  0.120499D+00 -0.531774D-02  0.652728D-02
     15 -0.414585D-01  0.120503D+00 -0.118647D+00  0.304467D-02 -0.337117D-02
     16 -0.129389D-02  0.000000D+00 -0.902836D-05 -0.689949D-02  0.000000D+00
     17  0.000000D+00 -0.459558D-02  0.000000D+00  0.000000D+00  0.245628D-02
     18 -0.325751D-04  0.000000D+00 -0.461053D-02  0.220017D-04  0.000000D+00
     19  0.674503D-02  0.000000D+00 -0.484753D-05 -0.692410D-02  0.000000D+00
     20  0.000000D+00  0.105777D-02  0.000000D+00  0.000000D+00 -0.417800D-03
     21  0.132397D-04  0.000000D+00  0.106184D-02 -0.117463D-04  0.000000D+00
                6             7             8             9            10 
      6  0.177100D-01
      7  0.195177D-01  0.738964D-01
      8 -0.180166D-04  0.200481D-03  0.459369D-01
      9  0.848135D-02 -0.871155D-01 -0.677364D-03  0.340056D+00
     10 -0.981930D-02  0.394195D-02  0.709116D-02  0.433780D-02  0.737825D-01
     11  0.339762D-02 -0.172498D-03  0.210310D-02  0.246853D-02  0.751185D-01
     12  0.261417D-02 -0.829285D-02 -0.250533D-01 -0.110780D-01  0.436211D-01
     13 -0.974139D-02  0.394194D-02 -0.711110D-02  0.430503D-02  0.393741D-02
     14 -0.337958D-02  0.210623D-03  0.199866D-02 -0.240813D-02  0.726649D-02
     15  0.258297D-02 -0.829205D-02  0.251135D-01 -0.109738D-01  0.400173D-02
     16  0.384315D-05 -0.312926D-02 -0.100445D-05  0.423328D-03 -0.310379D-02
     17  0.000000D+00  0.144297D-05 -0.161810D-02 -0.925456D-05  0.563985D-03
     18  0.245921D-02 -0.650378D-03 -0.928618D-05  0.243466D-02  0.328137D-03
     19  0.201438D-05  0.116120D-03 -0.159856D-05  0.720360D-03  0.114203D-03
     20  0.000000D+00  0.000000D+00  0.345704D-03  0.199337D-05  0.183247D-04
     21 -0.418241D-03 -0.218000D-04  0.202298D-05 -0.543961D-03  0.107371D-04
               11            12            13            14            15 
     11  0.265922D+00
     12  0.127733D+00  0.120100D+00
     13 -0.728480D-02  0.396823D-02  0.737825D-01
     14 -0.175713D-01  0.137068D-01 -0.753153D-01  0.267087D+00
     15 -0.138270D-01  0.859446D-02  0.432727D-01 -0.127052D+00  0.118925D+00
     16 -0.363476D-03 -0.212051D-03 -0.310328D-02  0.364351D-03 -0.210325D-03
     17  0.141533D-02  0.176081D-02 -0.565539D-03  0.143169D-02 -0.175150D-02
     18  0.176113D-02 -0.588154D-03  0.325515D-03 -0.175178D-02 -0.604221D-03
     19 -0.617788D-03 -0.361238D-03  0.114157D-03  0.619367D-03 -0.358278D-03
     20 -0.320399D-03 -0.386659D-03 -0.183654D-04 -0.324057D-03  0.384629D-03
     21 -0.387124D-03  0.118544D-03  0.106471D-04  0.385061D-03  0.122080D-03
               16            17            18            19            20 
     16  0.114862D+01
     17 -0.402219D-04 -0.426832D-03
     18  0.112748D-02  0.000000D+00 -0.428444D-03
     19 -0.113109D+01  0.401821D-04 -0.112018D-02  0.113093D+01
     20  0.402535D-04  0.133720D-02  0.000000D+00 -0.402472D-04 -0.167843D-02
     21 -0.112325D-02  0.000000D+00  0.133749D-02  0.112217D-02  0.000000D+00
               21 
     21 -0.167775D-02
 Leave Link  716 at Sun Oct 13 09:51:55 2024, MaxMem=  2684354560 cpu:               1.2 elap:               0.1
 (Enter /usr/local/g16_AVX//g16/l103.exe)

 GradGradGradGradGradGradGradGradGradGradGradGradGradGradGradGradGradGrad
 Berny optimization.
 Search for a local minimum.
 Step number   1 out of a maximum of    2
 All quantities printed in internal units (Hartrees-Bohrs-Radians)
 Second derivative matrix not updated -- analytic derivatives used.
 ITU=  0
     Eigenvalues ---   -0.00328  -0.00328   0.00213   0.00214   0.01133
     Eigenvalues ---    0.06185   0.06187   0.10912   0.10913   0.11351
     Eigenvalues ---    0.21048   0.48976   0.89274   0.89303   2.26991
 Eigenvalue     1 is  -3.28D-03 should be greater than     0.000000 Eigenvector:
                          Z6        Z7        Z2        Z5        Z4
   1                    0.67527  -0.61572  -0.19268   0.16518   0.16503
                          Z3        X3        Z1        X4        X5
   1                    0.15958   0.15158   0.11416  -0.07806  -0.07420
 Eigenvalue     2 is  -3.28D-03 should be greater than     0.000000 Eigenvector:
                          Y6        Y7        Y2        Y3        Y4
   1                    0.67515  -0.61571  -0.19274   0.16670   0.16177
                          Y5        X5        X4        Y1        Z6
   1                    0.16166   0.13268  -0.13044   0.11422  -0.00833
 Quadratic step=3.963D-01 exceeds max=3.000D-01 adjusted using Lamda=-3.848D-03.
 Angle between NR and scaled steps=   3.39 degrees.
 Angle between quadratic step and forces=  61.06 degrees.
 Linear search not attempted -- first point.
 B after Tr=     0.004931   -0.000005    0.000102
         Rot=    1.000000    0.000000   -0.000001   -0.000000 Ang=  -0.00 deg.
 Variable       Old X    -DE/DX   Delta X   Delta X   Delta X     New X
                                 (Linear)    (Quad)   (Total)
    X1       -0.65610   0.00483   0.00000  -0.07146  -0.06653  -0.72263
    Y1       -0.00002  -0.00000   0.00000   0.00001   0.00000  -0.00001
    Z1        0.00073   0.00006   0.00000  -0.00007   0.00004   0.00077
    X2       -4.11809  -0.01429   0.00000  -0.12526  -0.12033  -4.23842
    Y2       -0.00001  -0.00000   0.00000  -0.00001  -0.00002  -0.00002
    Z2       -0.00003  -0.00002   0.00000   0.00011   0.00022   0.00019
    X3       -0.03374   0.00107   0.00000  -0.06047  -0.05555  -0.08929
    Y3        0.00447  -0.00000   0.00000   0.00000  -0.00000   0.00447
    Z3       -1.95110   0.00083   0.00000   0.00295   0.00305  -1.94805
    X4       -0.03536   0.00110   0.00000  -0.05957  -0.05464  -0.09000
    Y4        1.68838  -0.00073   0.00000  -0.00275  -0.00275   1.68563
    Z4        0.98120  -0.00044   0.00000  -0.00202  -0.00192   0.97927
    X5       -0.03536   0.00110   0.00000  -0.05957  -0.05464  -0.08999
    Y5       -1.69292   0.00073   0.00000   0.00278   0.00278  -1.69014
    Z5        0.97342  -0.00043   0.00000  -0.00201  -0.00191   0.97150
    X6        4.64424   0.00185   0.00000   0.16945   0.17438   4.81861
    Y6        0.00006   0.00000   0.00000  -0.00001  -0.00002   0.00004
    Z6       -0.00163   0.00000   0.00000   0.00053   0.00062  -0.00100
    X7        6.87367   0.00435   0.00000   0.17238   0.17731   7.05098
    Y7       -0.00002  -0.00000   0.00000   0.00000   0.00000  -0.00002
    Z7        0.00058   0.00000   0.00000  -0.00019  -0.00010   0.00049
         Item               Value     Threshold  Converged?
 Maximum Force            0.014286     0.000450     NO 
 RMS     Force            0.003487     0.000300     NO 
 Maximum Displacement     0.177310     0.001800     NO 
 RMS     Displacement     0.065407     0.001200     NO 
 Predicted change in Energy=-1.333063D-03
 GradGradGradGradGradGradGradGradGradGradGradGradGradGradGradGradGradGrad

 Leave Link  103 at Sun Oct 13 09:51:55 2024, MaxMem=  2684354560 cpu:               3.2 elap:               0.2
 (Enter /usr/local/g16_AVX//g16/l9999.exe)

 ----------------------------------------------------------------------

 Electric dipole moment (input orientation):
 (Debye = 10**-18 statcoulomb cm , SI units = C m)
                  (au)            (Debye)         (10**-30 SI)
   Tot        0.390243D+01      0.991899D+01      0.330862D+02
   x         -0.390243D+01     -0.991898D+01     -0.330862D+02
   y         -0.215740D-04     -0.548357D-04     -0.182912D-03
   z          0.699112D-03      0.177697D-02      0.592732D-02

 Dipole polarizability, Alpha (input orientation).
 (esu units = cm**3 , SI units = C**2 m**2 J**-1)
 Alpha(0;0):
               (au)            (10**-24 esu)      (10**-40 SI)
   iso        0.563039D+02      0.834338D+01      0.928326D+01
   aniso      0.495732D+02      0.734599D+01      0.817352D+01
   xx         0.893527D+02      0.132407D+02      0.147323D+02
   yx        -0.357876D-03     -0.530318D-04     -0.590058D-04
   yy         0.397799D+02      0.589478D+01      0.655883D+01
   zx         0.104203D-01      0.154413D-02      0.171808D-02
   zy        -0.336670D-04     -0.498894D-05     -0.555094D-05
   zz         0.397791D+02      0.589466D+01      0.655869D+01

 ----------------------------------------------------------------------

 Dipole orientation:
     6          0.00061379         -0.00001338          0.65609602
    17         -0.00076420          0.00001709          4.11809299
     1         -1.95111047          0.00446427          0.03339339
     1          0.98118114          1.68838709          0.03552511
     1          0.97341983         -1.69291502          0.03554052
     6         -0.00079694          0.00003479         -4.64423838
     7          0.00181533         -0.00005689         -6.87367069

 Electric dipole moment (dipole orientation):
 (Debye = 10**-18 statcoulomb cm , SI units = C m)
                  (au)            (Debye)         (10**-30 SI)
   Tot        0.390243D+01      0.991899D+01      0.330862D+02
   x          0.000000D+00      0.000000D+00      0.000000D+00
   y          0.000000D+00      0.000000D+00      0.000000D+00
   z          0.390243D+01      0.991899D+01      0.330862D+02

 Dipole polarizability, Alpha (dipole orientation).
 (esu units = cm**3 , SI units = C**2 m**2 J**-1)
 Alpha(0;0):
               (au)            (10**-24 esu)      (10**-40 SI)
   iso        0.563039D+02      0.834338D+01      0.928326D+01
   aniso      0.495732D+02      0.734599D+01      0.817352D+01
   xx         0.397791D+02      0.589466D+01      0.655869D+01
   yx        -0.338424D-04     -0.501492D-05     -0.557986D-05
   yy         0.397799D+02      0.589478D+01      0.655883D+01
   zx        -0.193013D-01     -0.286016D-02     -0.318236D-02
   zy         0.631820D-03      0.936260D-04      0.104173D-03
   zz         0.893527D+02      0.132407D+02      0.147323D+02

 ----------------------------------------------------------------------
 1\1\GINC-NODO11\Freq\RB3LYP\6-31++G(d,p)\C2H3Cl1N1(1-)\ALANQF\13-Oct-2
 024\0\\#p b3lyp 6-31++g(d,p) scf=verytight NoSymm freq=noraman int=ult
 rafine\\RxCoord=2.99898 DE=46.72\\-1,1\C,-0.347191,-0.000009,0.000387\
 Cl,-2.179201,-0.000003,-0.000014\H,-0.017856,0.002368,-1.03248\H,-0.01
 8711,0.893453,0.519227\H,-0.01871,-0.895855,0.51511\C,2.457625,0.00003
 2,-0.000862\N,3.63739,-0.00001,0.000309\\Version=ES64L-G16RevB.01\HF=-
 592.9937913\RMSD=2.038e-09\RMSF=3.487e-03\ZeroPoint=0.0434011\Thermal=
 0.0485472\Dipole=-3.8528776,-0.0000224,0.0007443\DipoleDeriv=1.7600772
 ,0.0000017,0.0000208,-0.0000024,0.0606307,-0.0000035,0.0004005,-0.0000
 036,0.0603752,-1.3941172,-0.0000024,-0.0000028,0.0000014,-0.2893972,0.
 0000001,-0.0000612,0.0000001,-0.2894119,-0.0296279,-0.0000009,0.000694
 4,-0.0000427,0.081313,0.0001994,0.0192927,0.0001991,-0.0050406,-0.0300
 561,-0.000663,-0.0004222,-0.016956,0.0164995,-0.0376104,-0.0099722,-0.
 037622,0.0594581,-0.0300597,0.0006691,-0.0004208,0.0170086,0.0161495,0
 .0374144,-0.009896,0.0374263,0.0598021,-0.2556213,-0.0000139,0.0003559
 ,-0.0000359,-0.4627836,0.0000001,0.0009758,0.0000001,-0.4627549,-1.020
 5949,0.0000094,-0.0002254,0.0000269,-0.4224119,0.,-0.0007396,0.,-0.422
 428\Polar=89.3527188,-0.0003579,39.7799411,0.0104203,-0.0000337,39.779
 1134\Quadrupole=-27.040131,13.5197568,13.5203742,-0.0000345,-0.0003247
 ,0.0000011\PG=C01 [X(C2H3Cl1N1)]\NImag=2\\0.24530951,0.00000318,0.6035
 5406,-0.00019621,0.00000457,0.60376270,-0.08931237,0.00000010,-0.00002
 381,0.17779987,0.00000024,-0.03341576,-0.00000006,-0.00000031,0.017713
 45,-0.00002034,-0.00000003,-0.03342944,0.00005752,-0.00000001,0.017709
 99,-0.05389210,-0.00019521,0.08485491,-0.02487510,-0.00004488,0.019517
 66,0.07389645,-0.00019214,-0.04940654,0.00064246,0.00001420,0.00064028
 ,-0.00001802,0.00020048,0.04593689,0.08348691,0.00064222,-0.32837628,-
 0.00615794,-0.00001800,0.00848135,-0.08711548,-0.00067736,0.34005602,-
 0.05377762,-0.07315413,-0.04248024,-0.02489469,-0.01690431,-0.00981930
 ,0.00394195,0.00709116,0.00433780,0.07378254,-0.07198398,-0.25804469,-
 0.12114608,0.00530407,0.00649626,0.00339762,-0.00017250,0.00210310,0.0
 0246853,0.07511847,0.26592175,-0.04179254,-0.12114977,-0.11976127,0.00
 306931,0.00338923,0.00261417,-0.00829285,-0.02505335,-0.01107803,0.043
 62115,0.12773294,0.12010028,-0.05377855,0.07334574,-0.04214078,-0.0248
 9413,0.01694942,-0.00974139,0.00394194,-0.00711110,0.00430503,0.003937
 41,-0.00728480,0.00396823,0.07378246,0.07217226,-0.25914927,0.12049919
 ,-0.00531774,0.00652728,-0.00337958,0.00021062,0.00199866,-0.00240813,
 0.00726649,-0.01757135,0.01370680,-0.07531535,0.26708704,-0.04145848,0
 .12050308,-0.11864702,0.00304467,-0.00337117,0.00258297,-0.00829205,0.
 02511353,-0.01097376,0.00400173,-0.01382702,0.00859446,0.04327274,-0.1
 2705155,0.11892550,-0.00129389,0.00000019,-0.00000903,-0.00689949,-0.0
 0000009,0.00000384,-0.00312926,-0.00000100,0.00042333,-0.00310379,-0.0
 0036348,-0.00021205,-0.00310328,0.00036435,-0.00021033,1.14862434,0.00
 000088,-0.00459558,-0.00000011,-0.00000073,0.00245628,0.00000002,0.000
 00144,-0.00161810,-0.00000925,0.00056399,0.00141533,0.00176081,-0.0005
 6554,0.00143169,-0.00175150,-0.00004022,-0.00042683,-0.00003258,-0.000
 00012,-0.00461053,0.00002200,0.00000002,0.00245921,-0.00065038,-0.0000
 0929,0.00243466,0.00032814,0.00176113,-0.00058815,0.00032552,-0.001751
 78,-0.00060422,0.00112748,-0.00000001,-0.00042844,0.00674503,0.0000001
 5,-0.00000485,-0.00692410,-0.00000006,0.00000201,0.00011612,-0.0000016
 0,0.00072036,0.00011420,-0.00061779,-0.00036124,0.00011416,0.00061937,
 -0.00035828,-1.13109464,0.00004018,-0.00112018,1.13092923,-0.00000043,
 0.00105777,0.00000004,0.00000041,-0.00041780,0.,0.00000005,0.00034570,
 0.00000199,0.00001832,-0.00032040,-0.00038666,-0.00001837,-0.00032406,
 0.00038463,0.00004025,0.00133720,0.00000005,-0.00004025,-0.00167843,0.
 00001324,0.00000004,0.00106184,-0.00001175,0.,-0.00041824,-0.00002180,
 0.00000202,-0.00054396,0.00001074,-0.00038712,0.00011854,0.00001065,0.
 00038506,0.00012208,-0.00112325,0.00000005,0.00133749,0.00112217,-0.00
 000004,-0.00167775\\-0.00482790,0.00000245,-0.00005944,0.01428597,0.00
 000026,0.00001775,-0.00106855,0.00000181,-0.00082501,-0.00109798,0.000
 72584,0.00043640,-0.00109672,-0.00073044,0.00043448,-0.00184692,-0.000
 00003,-0.00000147,-0.00434790,0.00000011,-0.00000271\\\@


 THERE IS MUCH PLEASURE TO BE GAINED FROM USELESS KNOWLEDGE

                                       -- BERTRAND RUSSELL
 Job cpu time:       0 days  0 hours  5 minutes  7.3 seconds.
 Elapsed time:       0 days  0 hours  0 minutes 12.9 seconds.
 File lengths (MBytes):  RWF=     88 Int=      0 D2E=      0 Chk=      2 Scr=      2
 Normal termination of Gaussian 16 at Sun Oct 13 09:51:56 2024.
