RxCoord=2.99898 DE=46.72                                                
Freq      RB3LYP                                                      6-31++G(d,p)        
Number of atoms                            I                7
Info1-9                                    I   N=           9
          16          16           0           0           0         100
           6          18        -502
Full Title                                 C   N=           2
RxCoord=2.99898 DE=46.72
Route                                      C   N=           6
#p b3lyp 6-31++g(d,p) scf=verytight NoSymm freq=noraman int=
ultrafine   
Charge                                     I               -1
Multiplicity                               I                1
Number of electrons                        I               40
Number of alpha electrons                  I               20
Number of beta electrons                   I               20
Number of basis functions                  I               98
Number of independent functions            I               98
Number of point charges in /Mol/           I                0
Number of translation vectors              I                0
Atomic numbers                             I   N=           7
           6          17           1           1           1           6
           7
Nuclear charges                            R   N=           7
  6.00000000E+00  1.70000000E+01  1.00000000E+00  1.00000000E+00  1.00000000E+00
  6.00000000E+00  7.00000000E+00
Current cartesian coordinates              R   N=          21
 -6.56095903E-01 -1.70075351E-05  7.31324010E-04 -4.11809306E+00 -5.66917837E-06
 -2.64561657E-05 -3.37429497E-02  4.47487146E-03 -1.95110443E+00 -3.53586655E-02
  1.68838148E+00  9.81196826E-01 -3.53567758E-02 -1.69292060E+00  9.73416824E-01
  4.64423817E+00  6.04712360E-05 -1.62894392E-03  6.87367091E+00 -1.88972612E-05
  5.83925372E-04
Number of symbols in /Mol/                 I                0
Force Field                                I                0
Atom Types                                 C   N=           7
                                                            
                        
Int Atom Types                             I   N=           7
           0           0           0           0           0           0
           0
MM charges                                 R   N=           7
  0.00000000E+00  0.00000000E+00  0.00000000E+00  0.00000000E+00  0.00000000E+00
  0.00000000E+00  0.00000000E+00
Integer atomic weights                     I   N=           7
          12          35           1           1           1          12
          14
Real atomic weights                        R   N=           7
  1.20000000E+01  3.49688527E+01  1.00782504E+00  1.00782504E+00  1.00782504E+00
  1.20000000E+01  1.40030740E+01
Atom fragment info                         I   N=           7
           0           0           0           0           0           0
           0
Atom residue num                           I   N=           7
           0           0           0           0           0           0
           0
Nuclear spins                              I   N=           7
           0           3           1           1           1           0
           2
Nuclear ZEff                               R   N=           7
 -3.60000000E+00 -1.42400000E+01 -1.00000000E+00 -1.00000000E+00 -1.00000000E+00
 -3.60000000E+00 -4.55000000E+00
Nuclear ZNuc                               R   N=           7
  6.00000000E+00  1.70000000E+01  1.00000000E+00  1.00000000E+00  1.00000000E+00
  6.00000000E+00  7.00000000E+00
Nuclear QMom                               R   N=           7
  0.00000000E+00 -8.16500000E+00  0.00000000E+00  0.00000000E+00  0.00000000E+00
  0.00000000E+00  2.04400000E+00
Nuclear GFac                               R   N=           7
  0.00000000E+00  8.21874000E-01  2.79284600E+00  2.79284600E+00  2.79284600E+00
  0.00000000E+00  4.03761000E-01
MicOpt                                     I   N=           7
          -1          -1          -1          -1          -1          -1
          -1
Number of residues                         I                0
Number of secondary structures             I                0
Number of contracted shells                I               33
Number of primitive shells                 I               72
Pure/Cartesian d shells                    I                1
Pure/Cartesian f shells                    I                0
Highest angular momentum                   I                2
Largest degree of contraction              I                6
Shell types                                I   N=          33
           0          -1          -1          -1           2           0
          -1          -1          -1          -1           2           0
           0           0           1           0           0           0
           1           0           0           0           1           0
          -1          -1          -1           2           0          -1
          -1          -1           2
Number of primitives per shell             I   N=          33
           6           3           1           1           1           6
           6           3           1           1           1           3
           1           1           1           3           1           1
           1           3           1           1           1           6
           3           1           1           1           6           3
           1           1           1
Shell to atom map                          I   N=          33
           1           1           1           1           1           2
           2           2           2           2           2           3
           3           3           3           4           4           4
           4           5           5           5           5           6
           6           6           6           6           7           7
           7           7           7
Primitive exponents                        R   N=          72
  3.04752488E+03  4.57369518E+02  1.03948685E+02  2.92101553E+01  9.28666296E+00
  3.16392696E+00  7.86827235E+00  1.88128854E+00  5.44249258E-01  1.68714478E-01
  4.38000000E-02  8.00000000E-01  2.51801000E+04  3.78035000E+03  8.60474000E+02
  2.42145000E+02  7.73349000E+01  2.62470000E+01  4.91765000E+02  1.16984000E+02
  3.74153000E+01  1.37834000E+01  5.45215000E+00  2.22588000E+00  3.18649000E+00
  1.14427000E+00  4.20377000E-01  1.42657000E-01  4.83000000E-02  7.50000000E-01
  1.87311370E+01  2.82539436E+00  6.40121692E-01  1.61277759E-01  3.60000000E-02
  1.10000000E+00  1.87311370E+01  2.82539436E+00  6.40121692E-01  1.61277759E-01
  3.60000000E-02  1.10000000E+00  1.87311370E+01  2.82539436E+00  6.40121692E-01
  1.61277759E-01  3.60000000E-02  1.10000000E+00  3.04752488E+03  4.57369518E+02
  1.03948685E+02  2.92101553E+01  9.28666296E+00  3.16392696E+00  7.86827235E+00
  1.88128854E+00  5.44249258E-01  1.68714478E-01  4.38000000E-02  8.00000000E-01
  4.17351146E+03  6.27457911E+02  1.42902093E+02  4.02343293E+01  1.28202129E+01
  4.39043701E+00  1.16263619E+01  2.71627981E+00  7.72218397E-01  2.12031498E-01
  6.39000000E-02  8.00000000E-01
Contraction coefficients                   R   N=          72
  1.83473713E-03  1.40373228E-02  6.88426223E-02  2.32184443E-01  4.67941348E-01
  3.62311985E-01 -1.19332420E-01 -1.60854152E-01  1.14345644E+00  1.00000000E+00
  1.00000000E+00  1.00000000E+00  1.83295985E-03  1.40341988E-02  6.90973943E-02
  2.37451980E-01  4.83033960E-01  3.39855972E-01 -2.29739142E-03 -3.07137189E-02
 -1.12528069E-01  4.50163278E-02  5.89353363E-01  4.65206287E-01 -2.51828028E-01
  6.15892514E-02  1.06018433E+00  1.00000000E+00  1.00000000E+00  1.00000000E+00
  3.34946043E-02  2.34726953E-01  8.13757326E-01  1.00000000E+00  1.00000000E+00
  1.00000000E+00  3.34946043E-02  2.34726953E-01  8.13757326E-01  1.00000000E+00
  1.00000000E+00  1.00000000E+00  3.34946043E-02  2.34726953E-01  8.13757326E-01
  1.00000000E+00  1.00000000E+00  1.00000000E+00  1.83473713E-03  1.40373228E-02
  6.88426223E-02  2.32184443E-01  4.67941348E-01  3.62311985E-01 -1.19332420E-01
 -1.60854152E-01  1.14345644E+00  1.00000000E+00  1.00000000E+00  1.00000000E+00
  1.83477216E-03  1.39946270E-02  6.85865518E-02  2.32240873E-01  4.69069948E-01
  3.60455199E-01 -1.14961182E-01 -1.69117479E-01  1.14585195E+00  1.00000000E+00
  1.00000000E+00  1.00000000E+00
P(S=P) Contraction coefficients            R   N=          72
  0.00000000E+00  0.00000000E+00  0.00000000E+00  0.00000000E+00  0.00000000E+00
  0.00000000E+00  6.89990666E-02  3.16423961E-01  7.44308291E-01  1.00000000E+00
  1.00000000E+00  0.00000000E+00  0.00000000E+00  0.00000000E+00  0.00000000E+00
  0.00000000E+00  0.00000000E+00  0.00000000E+00  3.98940088E-03  3.03177067E-02
  1.29880029E-01  3.27951072E-01  4.53527100E-01  2.52154056E-01 -1.42993147E-02
  3.23572333E-01  7.43507765E-01  1.00000000E+00  1.00000000E+00  0.00000000E+00
  0.00000000E+00  0.00000000E+00  0.00000000E+00  0.00000000E+00  0.00000000E+00
  0.00000000E+00  0.00000000E+00  0.00000000E+00  0.00000000E+00  0.00000000E+00
  0.00000000E+00  0.00000000E+00  0.00000000E+00  0.00000000E+00  0.00000000E+00
  0.00000000E+00  0.00000000E+00  0.00000000E+00  0.00000000E+00  0.00000000E+00
  0.00000000E+00  0.00000000E+00  0.00000000E+00  0.00000000E+00  6.89990666E-02
  3.16423961E-01  7.44308291E-01  1.00000000E+00  1.00000000E+00  0.00000000E+00
  0.00000000E+00  0.00000000E+00  0.00000000E+00  0.00000000E+00  0.00000000E+00
  0.00000000E+00  6.75797439E-02  3.23907296E-01  7.40895140E-01  1.00000000E+00
  1.00000000E+00  0.00000000E+00
Coordinates of each shell                  R   N=          99
 -6.56095903E-01 -1.70075351E-05  7.31324010E-04 -6.56095903E-01 -1.70075351E-05
  7.31324010E-04 -6.56095903E-01 -1.70075351E-05  7.31324010E-04 -6.56095903E-01
 -1.70075351E-05  7.31324010E-04 -6.56095903E-01 -1.70075351E-05  7.31324010E-04
 -4.11809306E+00 -5.66917837E-06 -2.64561657E-05 -4.11809306E+00 -5.66917837E-06
 -2.64561657E-05 -4.11809306E+00 -5.66917837E-06 -2.64561657E-05 -4.11809306E+00
 -5.66917837E-06 -2.64561657E-05 -4.11809306E+00 -5.66917837E-06 -2.64561657E-05
 -4.11809306E+00 -5.66917837E-06 -2.64561657E-05 -3.37429497E-02  4.47487146E-03
 -1.95110443E+00 -3.37429497E-02  4.47487146E-03 -1.95110443E+00 -3.37429497E-02
  4.47487146E-03 -1.95110443E+00 -3.37429497E-02  4.47487146E-03 -1.95110443E+00
 -3.53586655E-02  1.68838148E+00  9.81196826E-01 -3.53586655E-02  1.68838148E+00
  9.81196826E-01 -3.53586655E-02  1.68838148E+00  9.81196826E-01 -3.53586655E-02
  1.68838148E+00  9.81196826E-01 -3.53567758E-02 -1.69292060E+00  9.73416824E-01
 -3.53567758E-02 -1.69292060E+00  9.73416824E-01 -3.53567758E-02 -1.69292060E+00
  9.73416824E-01 -3.53567758E-02 -1.69292060E+00  9.73416824E-01  4.64423817E+00
  6.04712360E-05 -1.62894392E-03  4.64423817E+00  6.04712360E-05 -1.62894392E-03
  4.64423817E+00  6.04712360E-05 -1.62894392E-03  4.64423817E+00  6.04712360E-05
 -1.62894392E-03  4.64423817E+00  6.04712360E-05 -1.62894392E-03  6.87367091E+00
 -1.88972612E-05  5.83925372E-04  6.87367091E+00 -1.88972612E-05  5.83925372E-04
  6.87367091E+00 -1.88972612E-05  5.83925372E-04  6.87367091E+00 -1.88972612E-05
  5.83925372E-04  6.87367091E+00 -1.88972612E-05  5.83925372E-04
Num ILSW                                   I              100
ILSW                                       I   N=         100
           0           1           0           0           2           0
           0           0           0           0         402          -1
           5           0           0           0           2           0
           0           0           0           0           1           0
           1           1           0           0           0           0
           0           0      100000           0          -1           0
           0           0           0           0           0           0
           0           0           0           1           0           0
           0 -2000000000           1           0           0           0
           0           0           4          52           0           0
           0           0           5           0           0           0
           0           0           0           7           0           1
           0           0           0           0           0           0
           0           0           0           0           0           0
           0           0           0           0           0           0
           0           0           0           0           0           0
           0           0           0           0
Num RLSW                                   I               52
RLSW                                       R   N=          52
  8.00000000E-01  7.20000000E-01  1.00000000E+00  8.10000000E-01  2.00000000E-01
  0.00000000E+00  0.00000000E+00  1.00000000E+00  0.00000000E+00  0.00000000E+00
  0.00000000E+00  0.00000000E+00  1.00000000E+00  0.00000000E+00  0.00000000E+00
  0.00000000E+00  0.00000000E+00  1.00000000E+00  0.00000000E+00  0.00000000E+00
  0.00000000E+00  0.00000000E+00  1.00000000E+00  0.00000000E+00  0.00000000E+00
  0.00000000E+00  0.00000000E+00  1.00000000E+00  0.00000000E+00  0.00000000E+00
  0.00000000E+00  0.00000000E+00  1.00000000E+00  0.00000000E+00  0.00000000E+00
  0.00000000E+00  0.00000000E+00  0.00000000E+00  1.00000000E+00  1.00000000E+00
  0.00000000E+00  1.00000000E+00  0.00000000E+00  0.00000000E+00  0.00000000E+00
  0.00000000E+00  0.00000000E+00  0.00000000E+00  0.00000000E+00  0.00000000E+00
  0.00000000E+00  0.00000000E+00
MxBond                                     I                4
NBond                                      I   N=           7
           4           1           1           1           1           1
           1
IBond                                      I   N=          28
           2           3           4           5           1           0
           0           0           1           0           0           0
           1           0           0           0           1           0
           0           0           7           0           0           0
           6           0           0           0
RBond                                      R   N=          28
  1.00000000E+00  1.00000000E+00  1.00000000E+00  1.00000000E+00  1.00000000E+00
  0.00000000E+00  0.00000000E+00  0.00000000E+00  1.00000000E+00  0.00000000E+00
  0.00000000E+00  0.00000000E+00  1.00000000E+00  0.00000000E+00  0.00000000E+00
  0.00000000E+00  1.00000000E+00  0.00000000E+00  0.00000000E+00  0.00000000E+00
  2.00000000E+00  0.00000000E+00  0.00000000E+00  0.00000000E+00  2.00000000E+00
  0.00000000E+00  0.00000000E+00  0.00000000E+00
Virial Ratio                               R      2.004509853630627E+00
SCF Energy                                 R     -5.929937912604123E+02
Total Energy                               R     -5.929937912604123E+02
RMS Force                                  R      3.487305640009995E-03
RMS Density                                R      2.038321351501462E-09
NImag                                      I                2
Job Status                                 I                1
Nuclear derivative order                   I                2
External E-field                           R   N=          35
  0.00000000E+00  0.00000000E+00  0.00000000E+00  0.00000000E+00  0.00000000E+00
  0.00000000E+00  0.00000000E+00  0.00000000E+00  0.00000000E+00  0.00000000E+00
  0.00000000E+00  0.00000000E+00  0.00000000E+00  0.00000000E+00  0.00000000E+00
  0.00000000E+00  0.00000000E+00  0.00000000E+00  0.00000000E+00  0.00000000E+00
  0.00000000E+00  0.00000000E+00  0.00000000E+00  0.00000000E+00  0.00000000E+00
  0.00000000E+00  0.00000000E+00  0.00000000E+00  0.00000000E+00  0.00000000E+00
  0.00000000E+00  0.00000000E+00  0.00000000E+00  0.00000000E+00  0.00000000E+00
IOpCl                                      I                0
IROHF                                      I                0
Alpha Orbital Energies                     R   N=          98
 -1.01407453E+02 -1.40952681E+01 -1.00979191E+01 -9.96003609E+00 -9.32376220E+00
 -7.08669264E+00 -7.07844311E+00 -7.07844289E+00 -7.13359841E-01 -6.48643129E-01
 -5.37168592E-01 -3.05258494E-01 -3.05255008E-01 -2.74909024E-01 -1.82954101E-01
 -1.73066257E-01 -1.73058740E-01 -9.76891276E-02 -9.76887591E-02 -6.93976968E-02
  1.09941468E-01  1.29435587E-01  1.45654224E-01  1.45661199E-01  1.73156267E-01
  2.04103807E-01  2.04107036E-01  2.05337213E-01  2.21218773E-01  2.21303791E-01
  2.42648381E-01  2.50208900E-01  2.50243907E-01  2.71507504E-01  2.75235032E-01
  2.75280567E-01  3.14627215E-01  3.36740599E-01  3.36816490E-01  3.62454264E-01
  3.86332656E-01  3.86358748E-01  3.86639991E-01  4.66235103E-01  4.81815099E-01
  6.56341966E-01  7.34721445E-01  7.46292756E-01  7.46298280E-01  7.75572218E-01
  7.75605579E-01  8.82634933E-01  8.96909675E-01  8.96934070E-01  9.81243776E-01
  9.96236873E-01  9.96273482E-01  1.04676847E+00  1.04683177E+00  1.08583118E+00
  1.09763004E+00  1.09770142E+00  1.12555001E+00  1.19072886E+00  1.19075666E+00
  1.25211710E+00  1.26868620E+00  1.36843918E+00  1.47617762E+00  1.60554001E+00
  1.60558850E+00  1.76963470E+00  1.78120943E+00  1.78121165E+00  1.80396410E+00
  1.80397890E+00  2.15896647E+00  2.20139619E+00  2.20140728E+00  2.22077791E+00
  2.22080846E+00  2.29402191E+00  2.49397351E+00  2.49409936E+00  2.67062466E+00
  2.83450309E+00  2.83451682E+00  2.83799002E+00  2.95857613E+00  2.95860625E+00
  3.26143936E+00  3.38903311E+00  3.55964586E+00  3.55969494E+00  4.21359987E+00
  4.41807945E+00  4.45970625E+00  4.57352488E+00
Alpha MO coefficients                      R   N=        9604
 -6.26176452E-06  2.56235800E-05 -5.15927796E-05  4.54069453E-10 -2.02383684E-08
  1.10850248E-04 -4.26420498E-05  7.82349423E-10  2.97879629E-09 -3.55673925E-05
 -1.13288187E-04 -1.93977880E-09  2.62092563E-08 -1.93700869E-05  1.26696111E-05
  1.26872792E-05  7.19254610E-11 -1.54520164E-08  1.23873096E-10  9.95996873E-01
  1.51508929E-02  3.94881897E-05 -2.05551954E-10  7.35940685E-09 -2.10649095E-02
 -1.76972130E-05 -2.14855848E-11 -1.45665211E-09  1.88238664E-03 -5.25741555E-05
  3.88540469E-10 -2.07418605E-08 -4.41797675E-04 -2.90449172E-05  5.07453892E-10
 -1.78598889E-08  7.50220715E-03  7.52498883E-03  7.52498911E-03  1.01537959E-10
 -8.79376532E-09  1.10637019E-11 -2.66717760E-05 -3.03953538E-05  4.21259093E-05
  2.36909351E-05  2.77878548E-08 -1.21194536E-05 -2.67067043E-05 -3.03163261E-05
  4.20355569E-05  2.36613605E-05  1.04798915E-05  6.08724649E-06 -2.67064830E-05
 -3.03138898E-05  4.20309800E-05  2.36617847E-05 -1.05076832E-05  6.03873453E-06
 -6.31468410E-07  1.34367599E-06  5.76406490E-07  4.78860486E-10 -1.31445203E-08
 -1.18470062E-04 -1.01189215E-04  1.80134590E-09 -5.24713407E-08  1.28059317E-05
 -9.33936272E-05 -2.13524442E-09  6.66573990E-08 -1.16236774E-05  3.36545703E-07
  3.37553411E-07  5.33044549E-10 -1.41492552E-08  5.71094364E-12 -2.18573982E-06
 -8.64451062E-06 -1.16647058E-06 -2.79729251E-15 -4.58200161E-10  1.27761193E-04
 -6.80329058E-05  2.71587561E-09 -7.39075278E-08  9.80760847E-05  1.35977421E-05
  2.92302051E-09 -8.47623781E-08  3.90690451E-06 -6.43178356E-06 -6.43197875E-06
 -6.05571439E-10  1.68491761E-08 -2.94518901E-12  3.44013201E-06  1.68674593E-05
 -2.80068195E-07  3.49863709E-10 -1.11945628E-08 -3.12153827E-05 -2.77741000E-05
 -5.56255622E-10  4.82971419E-08  1.13274127E-03  8.23240549E-05  1.46117786E-08
 -4.31774309E-07 -1.95252205E-06  8.94736074E-06  8.94181513E-06 -1.15555654E-10
  1.56973582E-09  1.27835186E-11  1.20069895E-07  2.25041828E-06 -2.73523004E-07
  4.09335266E-11 -9.56248126E-10  5.12694153E-06  1.83349338E-06 -2.36932488E-10
  5.65012314E-09 -5.58999373E-05 -2.63739582E-05  9.75976528E-10 -3.02066763E-08
 -2.02273557E-04 -8.37817653E-05 -7.64636351E-09  2.13106343E-07  3.74773605E-06
  4.26175576E-06  4.26104866E-06 -5.47212759E-11  1.01383026E-09  4.82052078E-12
  8.81254890E-06 -5.16477074E-05 -1.81503148E-04 -1.13344710E-07  7.79673510E-09
 -3.38683530E-06  8.80641793E-06 -5.16115753E-05 -1.81774253E-04 -7.83984558E-08
  2.91952602E-06  1.69444763E-06  8.80582454E-06 -5.16078023E-05 -1.81791241E-04
 -7.76099439E-08 -2.92683766E-06  1.68072560E-06  8.37982000E-05  2.07792222E-04
 -2.83630457E-04  9.80669785E-09 -2.72435726E-07 -2.51050463E-04 -4.25764187E-04
  1.68138845E-08 -4.72673096E-07  1.45778465E-03  1.02421007E-03 -3.40500631E-08
  9.08148842E-07 -7.60009227E-04 -1.31663651E-05 -1.31657850E-05  3.07708260E-08
 -8.57164784E-07  3.26534731E-11  9.92697613E-01  3.44451255E-02 -1.40025617E-03
  4.97156011E-08 -1.38833931E-06  5.22118207E-03  1.06845723E-04 -3.89676706E-09
  1.08858164E-07 -3.01863381E-03  5.81579957E-05 -3.87144750E-09  1.27416218E-07
 -7.70723971E-03 -8.42418225E-03 -8.42418213E-03 -2.93200231E-08  8.17229526E-07
 -3.93689669E-11  9.92993272E-01  4.96429187E-02 -7.03151193E-04 -1.05618970E-08
  5.76813166E-07 -1.65077197E-02  8.16526905E-04 -7.69954011E-09 -1.18281709E-06
  6.43737431E-03 -2.81284021E-03  8.50242644E-09 -1.07892379E-06 -9.28034164E-03
 -8.85949586E-03 -8.85956136E-03 -5.75773297E-10 -1.41577883E-07 -1.57117150E-10
 -9.09990087E-06 -4.81382744E-05 -2.05863927E-06 -3.33019049E-11 -1.32015428E-08
 -1.45551481E-05  1.83947878E-04 -3.66247125E-10  1.18897181E-07  3.15380491E-03
  1.83681227E-03 -7.54175752E-09  2.77724293E-07 -5.15835797E-03 -1.75198790E-03
  8.98043548E-09 -2.24176174E-07 -1.34391099E-04 -1.72943905E-04 -1.72902758E-04
 -2.08844103E-10 -4.50969535E-09 -3.67437494E-10 -1.50721748E-04  3.03135394E-03
 -8.92054265E-04  3.20514209E-05  2.22387365E-07 -9.61619300E-05 -1.50860794E-04
  3.03267671E-03 -8.92255085E-04  3.21871280E-05  8.33708761E-05  4.84741766E-05
 -1.50866367E-04  3.03265810E-03 -8.92247470E-04  3.21910624E-05 -8.36012689E-05
  4.80956620E-05 -1.82758644E-05 -6.62015862E-05  4.37816723E-05  3.98463901E-09
 -2.01320320E-07 -4.27143925E-04 -8.88977724E-04  7.92387083E-10  3.68743330E-07
  1.42964766E-03  7.32183526E-04 -1.04792134E-08  1.04215858E-06 -2.63571000E-05
 -3.69918251E-05 -3.70504020E-05  4.44306355E-09 -1.51228531E-07 -3.53021203E-10
 -3.14971477E-05 -1.18227073E-04 -3.16167854E-06 -4.01265467E-09  1.33221918E-07
  1.22545164E-03 -3.64937805E-04  3.20125755E-08 -1.00825819E-06 -9.87789536E-04
 -2.24683922E-04 -2.01558471E-08  7.81809835E-08 -3.30738653E-05 -7.53542439E-05
 -7.53480202E-05 -2.19880281E-09  9.09718573E-08  4.14885630E-11 -1.99333418E-05
 -9.59328893E-05 -9.52432216E-05  7.35689848E-10 -4.78298469E-08  4.69616323E-04
  5.88966677E-04 -9.96765240E-09  7.35946675E-07 -2.02035931E-03  4.12098326E-03
  7.57840596E-09  4.70958587E-08 -1.68360495E-05 -3.12242565E-05 -3.12668455E-05
  1.72595722E-10  1.35057307E-08 -4.39689367E-10  1.40893353E-07  6.37093294E-06
  4.23444182E-06 -6.07194172E-11  6.27485201E-09  1.43473223E-05 -2.88848867E-05
  2.85992635E-10 -3.46849157E-08 -1.41417933E-04  3.35411753E-04  4.89499287E-11
  7.42565906E-08  5.37180388E-03  1.26860107E-03 -1.16121089E-08  5.27698122E-07
  4.58385103E-05 -1.74083081E-06 -1.75181432E-06 -8.88012870E-11  9.88408690E-09
  3.02932790E-11 -3.62482196E-05 -4.74885853E-04 -1.12333984E-04 -3.45383269E-05
  3.43557690E-08 -1.46120217E-05 -3.61920754E-05 -4.75921107E-04 -1.10276692E-04
 -3.47794402E-05  1.27830352E-05  7.36841747E-06 -3.61928939E-05 -4.75935057E-04
 -1.10230331E-04 -3.47831165E-05 -1.28188339E-05  7.31146824E-06  9.92841237E-01
  4.93250931E-02  1.88607349E-03 -7.31467589E-08  2.04780604E-06 -1.10234436E-02
 -8.40339520E-04  5.57044947E-08 -1.60902037E-06 -6.82948145E-03 -5.74501714E-04
  1.22986944E-07 -3.94390679E-06 -8.45594042E-03 -9.70674846E-03 -9.70673274E-03
 -5.16397678E-08  1.45055219E-06  4.38344319E-11 -4.92339050E-04  3.96736330E-05
  4.41002361E-04 -1.51360457E-08  4.25138006E-07 -1.00556096E-03  4.93606105E-04
 -2.33662479E-08  6.33481380E-07  8.93945778E-03 -3.26805995E-03  7.64462485E-08
 -1.84055079E-06 -2.76708974E-04  1.67693609E-04  1.67693030E-04  2.01177899E-08
 -5.65486735E-07  2.45452767E-11 -1.07734176E-04  1.31112590E-04  3.62536855E-04
  8.92818790E-11 -3.76950826E-09  2.96434473E-03 -1.54400229E-03 -2.18740155E-08
  4.23999705E-07 -3.78344812E-02  3.68184521E-02  6.43062915E-08  1.58620132E-06
 -7.61305779E-04 -1.23384266E-04 -1.23354202E-04  2.05988246E-09 -1.22814559E-07
 -2.53535549E-09 -2.84604118E-01  1.02274430E+00  4.82565843E-03 -2.88602460E-08
  1.03819156E-06  7.60519405E-02  5.96542846E-04 -4.49443510E-10  6.94401433E-08
 -2.65823847E-02 -1.68350669E-03  3.10608092E-09 -1.96950523E-07  6.44505329E-02
  1.78119172E-02 -1.14240049E-07  6.00230577E-06 -1.51899263E-02 -1.55765979E-02
 -1.55766068E-02 -2.46375793E-09  1.37937777E-07 -1.33028512E-10 -3.97122359E-05
 -7.56653012E-04  1.13683546E-03 -7.21400386E-05 -2.42302318E-08  1.13431768E-05
 -3.95599803E-05 -7.57896135E-04  1.13867351E-03 -7.25328885E-05 -9.67932316E-06
 -5.70607244E-06 -3.95591266E-05 -7.57948102E-04  1.13880258E-03 -7.25316628E-05
  9.70248629E-06 -5.65755184E-06  1.56363237E-05  6.99145510E-05  4.57911122E-05
 -1.63768545E-08  5.19275587E-07  2.43800013E-04  5.38477573E-04  3.79791184E-08
 -1.28348170E-06 -2.04228616E-02  1.06580161E-02  4.97272446E-07 -1.61296532E-05
  8.62483041E-05  8.66495054E-06  8.67567228E-06 -3.87886534E-09  1.24491566E-07
  7.22485285E-11  1.09253421E-05  5.80481336E-05 -1.80925121E-05 -8.85552766E-09
  2.71093332E-07 -7.50974514E-04  5.56302103E-04  1.84334572E-08 -6.22687065E-07
  9.29493255E-04 -2.87973965E-03 -2.70881546E-07  8.82692440E-06 -4.65670037E-05
  2.91023670E-05  2.91010930E-05  7.03403510E-09 -2.16009651E-07  6.15820084E-11
  6.52452389E-05  1.56845583E-03  3.56841380E-04 -5.94810649E-09  3.10383896E-07
 -6.21733322E-04  1.69901487E-03  1.93425139E-08 -2.20611761E-06  4.83257798E-02
 -5.59350531E-02 -1.00630552E-07  9.12057273E-08 -1.96043340E-03  1.97974913E-04
  1.98443320E-04  1.07794419E-08 -5.45502909E-07 -8.69900233E-10  1.42207201E-03
 -5.43010425E-03  9.90324209E-01 -4.66010576E-06  1.73840280E-04 -4.29597548E-04
  3.15082491E-02 -1.46739405E-07  5.71519821E-06  5.30105288E-03 -1.29292549E-02
  5.56276800E-08 -2.27566945E-06 -7.44862819E-02 -1.47292446E-02  1.52303930E-07
 -7.57992783E-06  7.43871091E-04 -4.72329408E-04 -4.72309158E-04 -4.68551853E-09
  3.40269740E-07 -7.63185018E-11 -1.79984144E-04  1.37900843E-03 -5.74564449E-03
 -3.23246488E-04  7.23524567E-08 -3.17739143E-05 -1.78967151E-04  1.38060058E-03
 -5.74634837E-03 -3.23789755E-04  2.72622893E-05  1.59139600E-05 -1.78967411E-04
  1.38061014E-03 -5.74634523E-03 -3.23786495E-04 -2.73327736E-05  1.57859343E-05
 -2.34801698E-05 -1.60629912E-04 -1.00064493E-04  1.87103674E-08 -5.92896155E-07
  2.99371220E-03  1.90910843E-03 -1.31156839E-07  3.87574652E-06  4.27024781E-02
 -1.72975417E-02 -9.01300325E-07  2.88988062E-05  1.39783993E-04 -4.43537995E-05
 -4.43639767E-05 -8.85333620E-09  2.09123796E-07 -1.36780807E-10 -5.29359716E-06
  4.11218013E-06  3.91473937E-05  1.43399181E-08 -4.49501542E-07 -1.19197915E-03
  9.92462582E-04 -1.01195711E-07  3.08298180E-06 -8.74051735E-03  5.96600113E-03
  3.90484644E-07 -1.30904805E-05 -1.35226639E-04  1.33807987E-05  1.33856664E-05
  1.99211623E-09 -3.58342835E-08 -3.64842712E-11  9.67699671E-08  5.63768323E-07
  3.35070392E-07  6.62925782E-07 -8.39358273E-05 -2.71028058E-06 -1.99600958E-06
 -2.49590758E-06  3.16119470E-04  1.13069244E-05 -3.27239834E-05 -3.34719391E-06
  4.29028206E-04  4.70319394E-08 -8.49961097E-05  8.50620576E-05 -1.13389196E-06
  1.43506805E-04  9.70237483E-08  5.65889001E-08 -2.66980333E-07 -1.74055073E-04
 -7.82571402E-03  9.90810570E-01 -5.70627136E-08 -4.94827690E-06 -2.33831031E-04
  2.96055822E-02  1.44440936E-06  8.21620951E-07  9.19371813E-05 -1.16413640E-02
 -3.69490524E-05 -9.59759618E-06 -4.10100110E-05  5.19534684E-03 -2.56648468E-07
  4.90257835E-06 -4.91363714E-06 -2.53152185E-06  3.20552863E-04 -7.88047200E-09
  5.98228542E-05 -5.74359728E-04  4.71711742E-03  2.67488625E-04  2.61048138E-07
 -5.25844980E-05 -2.93340858E-05  2.87593821E-04 -2.33711334E-03 -1.32527780E-04
 -1.17697058E-05 -3.20894048E-05 -2.99138944E-05  2.93193610E-04 -2.38254396E-03
 -1.35119677E-04  1.24318303E-05 -3.21702122E-05 -2.83019515E-08 -8.88795367E-08
 -1.27877557E-07 -3.73748835E-07  4.74346398E-05 -6.30647196E-06 -5.33327987E-06
  1.45186890E-06 -1.84952536E-04  2.45730410E-05 -1.42995804E-05 -7.96135843E-06
  1.01919893E-03 -3.75031348E-07  3.53144866E-06 -3.41986891E-06  3.83288514E-08
 -4.97312765E-06 -3.38297917E-09 -1.83794855E-07 -7.25809368E-07  5.72612978E-08
  1.56668817E-07 -2.02221818E-05  8.42208312E-06 -4.10330952E-06 -9.57733483E-07
  1.23404844E-04 -1.21536272E-06  4.61724356E-06  3.15619945E-06 -4.07429527E-04
  6.20111326E-08  1.36183433E-06 -2.32729137E-06  1.04860117E-07 -1.33397215E-05
 -2.06008169E-09  4.53490235E-10  4.96612397E-09 -6.41490037E-09 -8.40136852E-05
 -6.63591175E-07 -2.57029990E-08  4.64087400E-08  3.15296122E-04  2.49121133E-06
 -9.08780896E-09  2.32826773E-07  4.26294941E-04  3.40851471E-06 -1.91961742E-09
 -8.58566691E-08  8.39450271E-08  1.43547186E-04  1.13334311E-06 -9.84182727E-05
 -1.08968703E-09  3.76863589E-09  3.28737745E-06  9.90810609E-01  7.82571396E-03
 -9.84972080E-10  1.00799150E-07  2.96054542E-02  2.33835182E-04  1.46954750E-08
 -1.21647275E-08 -1.16407908E-02 -9.19521332E-05  2.51208157E-07  6.31662588E-08
  5.19433822E-03  4.10507344E-05  6.96852499E-09  1.02360387E-09 -5.08232423E-09
  3.20580846E-04  2.53234198E-06  5.81651010E-06  3.31384671E-07 -3.22700876E-06
  2.65176131E-05  1.49494796E-06 -2.51758268E-05 -3.53146988E-07 -5.15834716E-05
  5.01923094E-04 -4.09092426E-03 -2.32568009E-04 -4.60438775E-05 -1.24455291E-05
  5.12526050E-05 -4.98698682E-04  4.06439096E-03  2.31061638E-04 -4.59661264E-05
  1.18734062E-05 -3.19533958E-11 -8.18303109E-10  2.58100456E-09  4.73809400E-05