RxCoord=3.09896 DE=46.57                                                
Freq      RB3LYP                                                      6-31++G(d,p)        
Number of atoms                            I                7
Info1-9                                    I   N=           9
          16          16           0           0           0         100
           6          18        -502
Full Title                                 C   N=           2
RxCoord=3.09896 DE=46.57
Route                                      C   N=           6
#p b3lyp 6-31++g(d,p) scf=verytight NoSymm freq=noraman int=
ultrafine   
Charge                                     I               -1
Multiplicity                               I                1
Number of electrons                        I               40
Number of alpha electrons                  I               20
Number of beta electrons                   I               20
Number of basis functions                  I               98
Number of independent functions            I               98
Number of point charges in /Mol/           I                0
Number of translation vectors              I                0
Atomic numbers                             I   N=           7
           6          17           1           1           1           6
           7
Nuclear charges                            R   N=           7
  6.00000000E+00  1.70000000E+01  1.00000000E+00  1.00000000E+00  1.00000000E+00
  6.00000000E+00  7.00000000E+00
Current cartesian coordinates              R   N=          21
 -6.65516188E-01 -2.07869874E-05  1.03179046E-03 -4.12607337E+00 -5.66917837E-06
 -5.29123315E-05 -4.04571466E-02  4.48243037E-03 -1.95064523E+00 -4.22977398E-02
  1.68830211E+00  9.81491624E-01 -4.23147474E-02 -1.69285446E+00  9.73694614E-01
  4.66003061E+00  6.61404144E-05 -1.96720490E-03  6.88962776E+00 -1.88972612E-05
  6.06602086E-04
Number of symbols in /Mol/                 I                0
Force Field                                I                0
Atom Types                                 C   N=           7
                                                            
                        
Int Atom Types                             I   N=           7
           0           0           0           0           0           0
           0
MM charges                                 R   N=           7
  0.00000000E+00  0.00000000E+00  0.00000000E+00  0.00000000E+00  0.00000000E+00
  0.00000000E+00  0.00000000E+00
Integer atomic weights                     I   N=           7
          12          35           1           1           1          12
          14
Real atomic weights                        R   N=           7
  1.20000000E+01  3.49688527E+01  1.00782504E+00  1.00782504E+00  1.00782504E+00
  1.20000000E+01  1.40030740E+01
Atom fragment info                         I   N=           7
           0           0           0           0           0           0
           0
Atom residue num                           I   N=           7
           0           0           0           0           0           0
           0
Nuclear spins                              I   N=           7
           0           3           1           1           1           0
           2
Nuclear ZEff                               R   N=           7
 -3.60000000E+00 -1.42400000E+01 -1.00000000E+00 -1.00000000E+00 -1.00000000E+00
 -3.60000000E+00 -4.55000000E+00
Nuclear ZNuc                               R   N=           7
  6.00000000E+00  1.70000000E+01  1.00000000E+00  1.00000000E+00  1.00000000E+00
  6.00000000E+00  7.00000000E+00
Nuclear QMom                               R   N=           7
  0.00000000E+00 -8.16500000E+00  0.00000000E+00  0.00000000E+00  0.00000000E+00
  0.00000000E+00  2.04400000E+00
Nuclear GFac                               R   N=           7
  0.00000000E+00  8.21874000E-01  2.79284600E+00  2.79284600E+00  2.79284600E+00
  0.00000000E+00  4.03761000E-01
MicOpt                                     I   N=           7
          -1          -1          -1          -1          -1          -1
          -1
Number of residues                         I                0
Number of secondary structures             I                0
Number of contracted shells                I               33
Number of primitive shells                 I               72
Pure/Cartesian d shells                    I                1
Pure/Cartesian f shells                    I                0
Highest angular momentum                   I                2
Largest degree of contraction              I                6
Shell types                                I   N=          33
           0          -1          -1          -1           2           0
          -1          -1          -1          -1           2           0
           0           0           1           0           0           0
           1           0           0           0           1           0
          -1          -1          -1           2           0          -1
          -1          -1           2
Number of primitives per shell             I   N=          33
           6           3           1           1           1           6
           6           3           1           1           1           3
           1           1           1           3           1           1
           1           3           1           1           1           6
           3           1           1           1           6           3
           1           1           1
Shell to atom map                          I   N=          33
           1           1           1           1           1           2
           2           2           2           2           2           3
           3           3           3           4           4           4
           4           5           5           5           5           6
           6           6           6           6           7           7
           7           7           7
Primitive exponents                        R   N=          72
  3.04752488E+03  4.57369518E+02  1.03948685E+02  2.92101553E+01  9.28666296E+00
  3.16392696E+00  7.86827235E+00  1.88128854E+00  5.44249258E-01  1.68714478E-01
  4.38000000E-02  8.00000000E-01  2.51801000E+04  3.78035000E+03  8.60474000E+02
  2.42145000E+02  7.73349000E+01  2.62470000E+01  4.91765000E+02  1.16984000E+02
  3.74153000E+01  1.37834000E+01  5.45215000E+00  2.22588000E+00  3.18649000E+00
  1.14427000E+00  4.20377000E-01  1.42657000E-01  4.83000000E-02  7.50000000E-01
  1.87311370E+01  2.82539436E+00  6.40121692E-01  1.61277759E-01  3.60000000E-02
  1.10000000E+00  1.87311370E+01  2.82539436E+00  6.40121692E-01  1.61277759E-01
  3.60000000E-02  1.10000000E+00  1.87311370E+01  2.82539436E+00  6.40121692E-01
  1.61277759E-01  3.60000000E-02  1.10000000E+00  3.04752488E+03  4.57369518E+02
  1.03948685E+02  2.92101553E+01  9.28666296E+00  3.16392696E+00  7.86827235E+00
  1.88128854E+00  5.44249258E-01  1.68714478E-01  4.38000000E-02  8.00000000E-01
  4.17351146E+03  6.27457911E+02  1.42902093E+02  4.02343293E+01  1.28202129E+01
  4.39043701E+00  1.16263619E+01  2.71627981E+00  7.72218397E-01  2.12031498E-01
  6.39000000E-02  8.00000000E-01
Contraction coefficients                   R   N=          72
  1.83473713E-03  1.40373228E-02  6.88426223E-02  2.32184443E-01  4.67941348E-01
  3.62311985E-01 -1.19332420E-01 -1.60854152E-01  1.14345644E+00  1.00000000E+00
  1.00000000E+00  1.00000000E+00  1.83295985E-03  1.40341988E-02  6.90973943E-02
  2.37451980E-01  4.83033960E-01  3.39855972E-01 -2.29739142E-03 -3.07137189E-02
 -1.12528069E-01  4.50163278E-02  5.89353363E-01  4.65206287E-01 -2.51828028E-01
  6.15892514E-02  1.06018433E+00  1.00000000E+00  1.00000000E+00  1.00000000E+00
  3.34946043E-02  2.34726953E-01  8.13757326E-01  1.00000000E+00  1.00000000E+00
  1.00000000E+00  3.34946043E-02  2.34726953E-01  8.13757326E-01  1.00000000E+00
  1.00000000E+00  1.00000000E+00  3.34946043E-02  2.34726953E-01  8.13757326E-01
  1.00000000E+00  1.00000000E+00  1.00000000E+00  1.83473713E-03  1.40373228E-02
  6.88426223E-02  2.32184443E-01  4.67941348E-01  3.62311985E-01 -1.19332420E-01
 -1.60854152E-01  1.14345644E+00  1.00000000E+00  1.00000000E+00  1.00000000E+00
  1.83477216E-03  1.39946270E-02  6.85865518E-02  2.32240873E-01  4.69069948E-01
  3.60455199E-01 -1.14961182E-01 -1.69117479E-01  1.14585195E+00  1.00000000E+00
  1.00000000E+00  1.00000000E+00
P(S=P) Contraction coefficients            R   N=          72
  0.00000000E+00  0.00000000E+00  0.00000000E+00  0.00000000E+00  0.00000000E+00
  0.00000000E+00  6.89990666E-02  3.16423961E-01  7.44308291E-01  1.00000000E+00
  1.00000000E+00  0.00000000E+00  0.00000000E+00  0.00000000E+00  0.00000000E+00
  0.00000000E+00  0.00000000E+00  0.00000000E+00  3.98940088E-03  3.03177067E-02
  1.29880029E-01  3.27951072E-01  4.53527100E-01  2.52154056E-01 -1.42993147E-02
  3.23572333E-01  7.43507765E-01  1.00000000E+00  1.00000000E+00  0.00000000E+00
  0.00000000E+00  0.00000000E+00  0.00000000E+00  0.00000000E+00  0.00000000E+00
  0.00000000E+00  0.00000000E+00  0.00000000E+00  0.00000000E+00  0.00000000E+00
  0.00000000E+00  0.00000000E+00  0.00000000E+00  0.00000000E+00  0.00000000E+00
  0.00000000E+00  0.00000000E+00  0.00000000E+00  0.00000000E+00  0.00000000E+00
  0.00000000E+00  0.00000000E+00  0.00000000E+00  0.00000000E+00  6.89990666E-02
  3.16423961E-01  7.44308291E-01  1.00000000E+00  1.00000000E+00  0.00000000E+00
  0.00000000E+00  0.00000000E+00  0.00000000E+00  0.00000000E+00  0.00000000E+00
  0.00000000E+00  6.75797439E-02  3.23907296E-01  7.40895140E-01  1.00000000E+00
  1.00000000E+00  0.00000000E+00
Coordinates of each shell                  R   N=          99
 -6.65516188E-01 -2.07869874E-05  1.03179046E-03 -6.65516188E-01 -2.07869874E-05
  1.03179046E-03 -6.65516188E-01 -2.07869874E-05  1.03179046E-03 -6.65516188E-01
 -2.07869874E-05  1.03179046E-03 -6.65516188E-01 -2.07869874E-05  1.03179046E-03
 -4.12607337E+00 -5.66917837E-06 -5.29123315E-05 -4.12607337E+00 -5.66917837E-06
 -5.29123315E-05 -4.12607337E+00 -5.66917837E-06 -5.29123315E-05 -4.12607337E+00
 -5.66917837E-06 -5.29123315E-05 -4.12607337E+00 -5.66917837E-06 -5.29123315E-05
 -4.12607337E+00 -5.66917837E-06 -5.29123315E-05 -4.04571466E-02  4.48243037E-03
 -1.95064523E+00 -4.04571466E-02  4.48243037E-03 -1.95064523E+00 -4.04571466E-02
  4.48243037E-03 -1.95064523E+00 -4.04571466E-02  4.48243037E-03 -1.95064523E+00
 -4.22977398E-02  1.68830211E+00  9.81491624E-01 -4.22977398E-02  1.68830211E+00
  9.81491624E-01 -4.22977398E-02  1.68830211E+00  9.81491624E-01 -4.22977398E-02
  1.68830211E+00  9.81491624E-01 -4.23147474E-02 -1.69285446E+00  9.73694614E-01
 -4.23147474E-02 -1.69285446E+00  9.73694614E-01 -4.23147474E-02 -1.69285446E+00
  9.73694614E-01 -4.23147474E-02 -1.69285446E+00  9.73694614E-01  4.66003061E+00
  6.61404144E-05 -1.96720490E-03  4.66003061E+00  6.61404144E-05 -1.96720490E-03
  4.66003061E+00  6.61404144E-05 -1.96720490E-03  4.66003061E+00  6.61404144E-05
 -1.96720490E-03  4.66003061E+00  6.61404144E-05 -1.96720490E-03  6.88962776E+00
 -1.88972612E-05  6.06602086E-04  6.88962776E+00 -1.88972612E-05  6.06602086E-04
  6.88962776E+00 -1.88972612E-05  6.06602086E-04  6.88962776E+00 -1.88972612E-05
  6.06602086E-04  6.88962776E+00 -1.88972612E-05  6.06602086E-04
Num ILSW                                   I              100
ILSW                                       I   N=         100
           0           1           0           0           2           0
           0           0           0           0         402          -1
           5           0           0           0           2           0
           0           0           0           0           1           0
           1           1           0           0           0           0
           0           0      100000           0          -1           0
           0           0           0           0           0           0
           0           0           0           1           0           0
           0 -2000000000           1           0           0           0
           0           0           4          52           0           0
           0           0           5           0           0           0
           0           0           0           7           0           1
           0           0           0           0           0           0
           0           0           0           0           0           0
           0           0           0           0           0           0
           0           0           0           0           0           0
           0           0           0           0
Num RLSW                                   I               52
RLSW                                       R   N=          52
  8.00000000E-01  7.20000000E-01  1.00000000E+00  8.10000000E-01  2.00000000E-01
  0.00000000E+00  0.00000000E+00  1.00000000E+00  0.00000000E+00  0.00000000E+00
  0.00000000E+00  0.00000000E+00  1.00000000E+00  0.00000000E+00  0.00000000E+00
  0.00000000E+00  0.00000000E+00  1.00000000E+00  0.00000000E+00  0.00000000E+00
  0.00000000E+00  0.00000000E+00  1.00000000E+00  0.00000000E+00  0.00000000E+00
  0.00000000E+00  0.00000000E+00  1.00000000E+00  0.00000000E+00  0.00000000E+00
  0.00000000E+00  0.00000000E+00  1.00000000E+00  0.00000000E+00  0.00000000E+00
  0.00000000E+00  0.00000000E+00  0.00000000E+00  1.00000000E+00  1.00000000E+00
  0.00000000E+00  1.00000000E+00  0.00000000E+00  0.00000000E+00  0.00000000E+00
  0.00000000E+00  0.00000000E+00  0.00000000E+00  0.00000000E+00  0.00000000E+00
  0.00000000E+00  0.00000000E+00
MxBond                                     I                4
NBond                                      I   N=           7
           4           1           1           1           1           1
           1
IBond                                      I   N=          28
           2           3           4           5           1           0
           0           0           1           0           0           0
           1           0           0           0           1           0
           0           0           7           0           0           0
           6           0           0           0
RBond                                      R   N=          28
  1.00000000E+00  1.00000000E+00  1.00000000E+00  1.00000000E+00  1.00000000E+00
  0.00000000E+00  0.00000000E+00  0.00000000E+00  1.00000000E+00  0.00000000E+00
  0.00000000E+00  0.00000000E+00  1.00000000E+00  0.00000000E+00  0.00000000E+00
  0.00000000E+00  1.00000000E+00  0.00000000E+00  0.00000000E+00  0.00000000E+00
  2.00000000E+00  0.00000000E+00  0.00000000E+00  0.00000000E+00  2.00000000E+00
  0.00000000E+00  0.00000000E+00  0.00000000E+00
Virial Ratio                               R      2.004517103134084E+00
SCF Energy                                 R     -5.929939311028329E+02
Total Energy                               R     -5.929939311028329E+02
RMS Force                                  R      3.445238171474091E-03
RMS Density                                R      2.020876318769379E-09
NImag                                      I                2
Job Status                                 I                1
Nuclear derivative order                   I                2
External E-field                           R   N=          35
  0.00000000E+00  0.00000000E+00  0.00000000E+00  0.00000000E+00  0.00000000E+00
  0.00000000E+00  0.00000000E+00  0.00000000E+00  0.00000000E+00  0.00000000E+00
  0.00000000E+00  0.00000000E+00  0.00000000E+00  0.00000000E+00  0.00000000E+00
  0.00000000E+00  0.00000000E+00  0.00000000E+00  0.00000000E+00  0.00000000E+00
  0.00000000E+00  0.00000000E+00  0.00000000E+00  0.00000000E+00  0.00000000E+00
  0.00000000E+00  0.00000000E+00  0.00000000E+00  0.00000000E+00  0.00000000E+00
  0.00000000E+00  0.00000000E+00  0.00000000E+00  0.00000000E+00  0.00000000E+00
IOpCl                                      I                0
IROHF                                      I                0
Alpha Orbital Energies                     R   N=          98
 -1.01408135E+02 -1.40951209E+01 -1.00984048E+01 -9.95997553E+00 -9.32443297E+00
 -7.08737986E+00 -7.07910651E+00 -7.07910632E+00 -7.14020684E-01 -6.48445853E-01
 -5.37519132E-01 -3.05556509E-01 -3.05555115E-01 -2.75502341E-01 -1.82871166E-01
 -1.73552294E-01 -1.73546202E-01 -9.75042118E-02 -9.75038128E-02 -6.93012748E-02
  1.09750097E-01  1.29082777E-01  1.45497081E-01  1.45508003E-01  1.73180891E-01
  2.03890865E-01  2.03894520E-01  2.04991120E-01  2.21114258E-01  2.21212105E-01
  2.42353452E-01  2.50043561E-01  2.50087152E-01  2.71353397E-01  2.75353002E-01
  2.75407813E-01  3.14484112E-01  3.36240431E-01  3.36327721E-01  3.62222529E-01
  3.86255525E-01  3.86298621E-01  3.86797812E-01  4.65999550E-01  4.81555873E-01
  6.54796738E-01  7.33723566E-01  7.45877366E-01  7.45885459E-01  7.75173767E-01
  7.75216896E-01  8.81823050E-01  8.96898055E-01  8.96925669E-01  9.80416372E-01
  9.95700588E-01  9.95738788E-01  1.04627520E+00  1.04634133E+00  1.08539291E+00
  1.09712493E+00  1.09719527E+00  1.12551544E+00  1.19063136E+00  1.19066505E+00
  1.24852916E+00  1.26829387E+00  1.36884650E+00  1.47462880E+00  1.60488376E+00
  1.60492223E+00  1.76611688E+00  1.78139579E+00  1.78139829E+00  1.80406701E+00
  1.80408425E+00  2.15874886E+00  2.20151194E+00  2.20152536E+00  2.22031657E+00
  2.22033203E+00  2.29417954E+00  2.49230616E+00  2.49242662E+00  2.67160965E+00
  2.83461276E+00  2.83462439E+00  2.83602378E+00  2.95736487E+00  2.95737739E+00
  3.26092094E+00  3.38715656E+00  3.55865949E+00  3.55873186E+00  4.21303011E+00
  4.41700351E+00  4.45912605E+00  4.57313510E+00
Alpha MO coefficients                      R   N=        9604
 -6.29007915E-06  2.58673217E-05 -5.17847506E-05  3.59468373E-10 -2.58451416E-08
  1.11632805E-04 -4.09856079E-05  7.74788348E-10 -6.19445050E-09 -3.51225251E-05
 -1.08840523E-04 -1.74503915E-09  3.59857443E-08 -1.99029703E-05  1.25751674E-05
  1.25919817E-05  2.15136252E-10 -1.86885150E-08 -8.80414370E-11  9.95996876E-01
  1.51508618E-02  3.96224624E-05 -2.21559141E-10  1.19660833E-08 -2.10650206E-02
 -1.76761246E-05 -2.38462729E-12 -2.54840119E-09  1.88304259E-03 -5.19135142E-05
  4.33368539E-10 -2.72137435E-08 -4.37786202E-04 -2.83443411E-05  5.48960107E-10
 -2.33962710E-08  7.50236656E-03  7.52494644E-03  7.52494687E-03  1.42419301E-10
 -1.12892588E-08  1.03412372E-11 -2.67605700E-05 -3.07680755E-05  4.22996966E-05
  2.37217875E-05  2.78640257E-08 -1.21414003E-05 -2.67966339E-05 -3.06709024E-05
  4.21765121E-05  2.36937805E-05  1.04991087E-05  6.10132776E-06 -2.67971671E-05
 -3.06680713E-05  4.21723773E-05  2.36938021E-05 -1.05271223E-05  6.05263477E-06
 -5.81003068E-07  1.42639617E-06  4.95381581E-07  5.00376036E-10 -1.52788869E-08
 -1.16900992E-04 -9.87579721E-05  1.92763998E-09 -5.93418039E-08  8.45278056E-06
 -9.08374307E-05 -2.28951626E-09  8.11971767E-08 -1.13839005E-05  4.34081760E-07
  4.35242242E-07  5.53417372E-10 -1.62146472E-08  9.01648347E-12 -2.13440681E-06
 -8.43851443E-06 -1.12626068E-06  6.85121272E-12 -6.34001212E-10  1.24903400E-04
 -6.68281920E-05  2.82289023E-09 -8.37108364E-08  9.78051851E-05  1.29781800E-05
  3.12075355E-09 -1.00798477E-07  3.87665420E-06 -6.30181485E-06 -6.30204907E-06
 -6.36347925E-10  1.93239213E-08 -3.35089378E-12  3.52432413E-06  1.67462936E-05
  3.51528442E-07  3.85926631E-10 -1.31279969E-08 -3.23358753E-05 -2.94630686E-05
 -8.70567062E-10  5.21149222E-08  1.12043011E-03  8.40820086E-05  1.65074844E-08
 -5.30249883E-07 -1.28176859E-06  9.10435946E-06  9.09804697E-06 -1.05942295E-10
  2.30893930E-09 -2.17391977E-11  1.22954540E-07  2.28691465E-06 -2.57489219E-07
  3.98214729E-11 -1.19443073E-09  5.30340581E-06  1.78039829E-06 -2.31709450E-10
  7.05736753E-09 -5.69641834E-05 -2.70440477E-05  1.01078891E-09 -3.77096295E-08
 -1.97594317E-04 -8.22514660E-05 -8.32930852E-09  2.50055447E-07  3.61719626E-06
  4.35150725E-06  4.35085983E-06 -6.04628430E-11  9.52174402E-10 -2.59831123E-12
  9.02364980E-06 -5.07134032E-05 -1.80100873E-04  1.01114955E-07  7.58108666E-09
 -3.27782654E-06  9.01504290E-06 -5.06628561E-05 -1.80416333E-04  1.42201183E-07
  2.82308622E-06  1.63851207E-06  9.01438805E-06 -5.06592980E-05 -1.80432649E-04
  1.43174614E-07 -2.83017136E-06  1.62523539E-06  8.37516947E-05  2.07982807E-04
 -2.83250764E-04  1.04906635E-08 -3.16503505E-07 -2.50605753E-04 -4.25798432E-04
  1.79996321E-08 -5.49708036E-07  1.45888626E-03  1.02113231E-03 -3.57262806E-08
  1.05162191E-06 -7.59750312E-04 -1.32355768E-05 -1.32350505E-05  3.29405810E-08
 -9.96443290E-07  4.41929229E-11  9.92697746E-01  3.44445242E-02 -1.39974199E-03
  5.32720356E-08 -1.61463727E-06  5.22015801E-03  1.06854865E-04 -4.14554858E-09
  1.26743139E-07 -3.01623083E-03  5.86466492E-05 -4.48917567E-09  1.49273997E-07
 -7.70728780E-03 -8.42384409E-03 -8.42384382E-03 -3.13961984E-08  9.49907074E-07
 -4.52210459E-11  9.92993027E-01  4.96384540E-02 -7.07152892E-04 -1.46513146E-08
  6.49907280E-07 -1.64972525E-02  8.28685495E-04  3.07759615E-09 -1.08509877E-06
  6.48536281E-03 -2.87558134E-03  3.86669065E-09 -1.26791889E-06 -9.27886863E-03
 -8.86065086E-03 -8.86077449E-03 -2.12615878E-10 -1.56828226E-07 -3.77258690E-09
 -9.14032419E-06 -4.83484249E-05 -1.93184938E-06  1.59174114E-10 -1.32323793E-08
 -1.42866841E-05  1.83750284E-04 -1.77475776E-09  1.35783927E-07  3.16704882E-03
  1.84117942E-03 -5.61619743E-09  4.58292364E-07 -5.23919959E-03 -1.77177596E-03
  1.00452146E-08 -4.46620722E-07 -1.36117381E-04 -1.73774117E-04 -1.73732719E-04
  4.14726390E-10 -2.30534169E-09  1.36656472E-10 -1.51124272E-04  3.02776282E-03
 -8.99650503E-04  3.15710344E-05  2.21044926E-07 -9.59834783E-05 -1.51345630E-04
  3.02909479E-03 -8.99933019E-04  3.17328133E-05  8.32684619E-05  4.84151885E-05
 -1.51356722E-04  3.02910680E-03 -8.99963530E-04  3.17378988E-05 -8.34972273E-05
  4.80336115E-05 -1.85541267E-05 -6.37220471E-05  4.36793992E-05  5.18800607E-09
 -2.42618627E-07 -4.16703725E-04 -8.71000415E-04 -2.85808167E-09  4.70110131E-07
  1.48947708E-03  6.94834682E-04 -2.22267942E-08  1.29823579E-06 -2.99062298E-05
 -3.67622142E-05 -3.68307970E-05  4.93155145E-09 -1.75911698E-07 -4.86919950E-10
 -3.10464197E-05 -1.15972639E-04 -4.18248605E-06 -4.31683716E-09  1.53751920E-07
  1.20625187E-03 -3.57653582E-04  3.44448701E-08 -1.16879561E-06 -9.99588066E-04
 -2.10837376E-04 -1.46581696E-08  5.87913348E-08 -3.19533456E-05 -7.45788178E-05
 -7.45715508E-05 -2.69069015E-09  1.08956240E-07  4.04320636E-11 -1.94997977E-05
 -9.36306478E-05 -9.41988124E-05  8.05929283E-10 -5.21350247E-08  4.73797816E-04
  5.75258172E-04 -1.31919589E-08  8.58457067E-07 -1.93151616E-03  3.93014840E-03
  7.89084932E-09  1.63021346E-07 -1.95623918E-05 -3.11011971E-05 -3.11559465E-05
  9.39885463E-11  1.17150510E-08 -5.74656860E-10  1.37236114E-07  6.31076390E-06
  4.14318638E-06 -1.12175421E-10  7.70476368E-09  1.41482101E-05 -2.83728180E-05
  5.95436158E-10 -4.27170865E-08 -1.41102506E-04  3.25084805E-04 -1.00560813E-09
  1.03902476E-07  5.15987973E-03  1.22013892E-03 -1.31818930E-08  7.05058923E-07
  4.48846198E-05 -1.61582279E-06 -1.62811381E-06 -2.52292239E-10  1.55802371E-08
 -4.41117160E-11 -3.55498657E-05 -4.75046344E-04 -1.29393829E-04 -3.49107803E-05
  3.58625688E-08 -1.51533577E-05 -3.54756470E-05 -4.76280736E-04 -1.26946884E-04
 -3.51898840E-05  1.32796440E-05  7.64839055E-06 -3.54752015E-05 -4.76301806E-04
 -1.26886343E-04 -3.51953475E-05 -1.33172155E-05  7.58946713E-06  9.92841654E-01
  4.93194084E-02  1.88560609E-03 -7.82077860E-08  2.38030519E-06 -1.10448893E-02
 -8.64307633E-04  6.02996788E-08 -1.89396320E-06 -6.66021897E-03 -6.58374468E-04
  1.33774329E-07 -4.68083883E-06 -8.45675120E-03 -9.70530449E-03 -9.70528617E-03
 -5.52764193E-08  1.68374443E-06  6.45920314E-11 -4.92625422E-04  3.69826796E-05
  4.41067758E-04 -1.62273234E-08  4.95841873E-07 -9.71665855E-04  4.77513216E-04
 -2.42832912E-08  7.11726467E-07  8.93114196E-03 -3.24498308E-03  8.06403037E-08
 -2.08852650E-06 -2.76522765E-04  1.66071551E-04  1.66070814E-04  2.14784234E-08
 -6.55654224E-07  3.18537417E-11 -1.08266728E-04  1.30112934E-04  3.63870242E-04
  1.07462325E-10  1.61178417E-08  2.97419951E-03 -1.54839178E-03 -1.88749206E-08
  5.55376499E-07 -3.79073527E-02  3.64497154E-02  4.63531098E-08  2.83220590E-06
 -7.63082420E-04 -1.23886343E-04 -1.23894286E-04  2.80180514E-09 -1.90962165E-07
 -1.36598439E-09 -2.84604196E-01  1.02274419E+00  4.84456029E-03 -3.11704566E-08
  1.63457413E-06  7.60486826E-02  5.98972021E-04 -8.78165019E-10  1.10697442E-07
 -2.65738842E-02 -1.69219393E-03  3.33854047E-09 -3.32805421E-07  6.41507802E-02
  1.77439875E-02 -1.41997573E-07  8.37960844E-06 -1.51889357E-02 -1.55769450E-02
 -1.55769588E-02 -3.34384893E-09  1.94393311E-07 -2.14777950E-10 -3.99859624E-05
 -7.53972365E-04  1.11117586E-03 -7.17884767E-05 -2.45740748E-08  1.15343143E-05
 -3.98104872E-05 -7.55744010E-04  1.11393245E-03 -7.21882094E-05 -9.80306177E-06
 -5.80527747E-06 -3.98064300E-05 -7.55797256E-04  1.11405258E-03 -7.21922707E-05
  9.82721622E-06 -5.75618395E-06  1.52944720E-05  6.84966975E-05  4.57573139E-05
 -1.81397421E-08  6.18744072E-07  2.59805023E-04  5.43655857E-04  4.26868753E-08
 -1.52468810E-06 -1.99660723E-02  1.04976053E-02  5.49330574E-07 -2.03022036E-05
  8.53912010E-05  8.03600563E-06  8.04782014E-06 -4.31128288E-09  1.54009348E-07
  1.12134904E-10  1.09805715E-05  5.82770681E-05 -1.80533282E-05 -9.60228840E-09
  3.37615900E-07 -7.55762775E-04  5.58060228E-04  2.01700317E-08 -8.34856469E-07
  8.87131298E-04 -2.84789940E-03 -3.00791702E-07  1.11038865E-05 -4.63360026E-05
  2.92120129E-05  2.92108172E-05  7.75842178E-09 -2.56162032E-07  5.85554171E-11
  6.56722734E-05  1.57237760E-03  3.64451635E-04 -7.32953126E-09  3.97941258E-07
 -6.31534571E-04  1.67320048E-03  3.72469200E-08 -2.41379422E-06  4.84527000E-02
 -5.53816163E-02 -9.48380887E-08 -1.44786561E-06 -1.96360639E-03  1.98987668E-04
  1.99489994E-04  1.20326516E-08 -7.96017657E-07  2.03630721E-09  1.42760496E-03
 -5.44947040E-03  9.90324020E-01 -4.89850772E-06  2.79475825E-04 -4.28444344E-04
  3.15073766E-02 -1.56468184E-07  9.06739358E-06  5.27198892E-03 -1.29308764E-02
  5.97204834E-08 -3.59107436E-06 -7.40509317E-02 -1.46275964E-02  1.88643642E-07
 -1.04162492E-05  7.47235104E-04 -4.71267643E-04 -4.71243191E-04 -6.46082009E-09
  4.68297242E-07  6.71968570E-11 -1.77750867E-04  1.37408275E-03 -5.69997638E-03
 -3.21666286E-04  7.14094805E-08 -3.15993341E-05 -1.76732736E-04  1.37604114E-03
 -5.70027504E-03 -3.22181158E-04  2.70474182E-05  1.57881747E-05 -1.76722415E-04
  1.37607442E-03 -5.70030776E-03 -3.22184719E-04 -2.71171732E-05  1.56598762E-05
 -2.33892435E-05 -1.60208798E-04 -9.91974478E-05  2.08677935E-08 -7.21612981E-07
  2.91070161E-03  1.84173194E-03 -1.41401461E-07  4.53313315E-06  4.19458609E-02
 -1.70933888E-02 -9.93068150E-07  3.61802511E-05  1.38285790E-04 -4.38157010E-05
 -4.38262030E-05 -8.87794653E-09  2.20658158E-07 -1.75477858E-10 -6.58268957E-06
 -1.64122521E-06  3.91264763E-05  1.55614681E-08 -5.56951533E-07 -1.11339394E-03
  9.54715969E-04 -1.08073120E-07  3.71806771E-06 -8.61764514E-03  5.92783242E-03
  4.37244103E-07 -1.66750140E-05 -1.34782563E-04  1.03856841E-05  1.03916107E-05
  1.66708752E-09 -2.57470907E-08 -3.91650664E-11  9.85378735E-08  5.52610746E-07
  4.18319710E-07  3.60408023E-07 -8.38025593E-05 -2.73049172E-06 -2.54439206E-06
 -1.36652392E-06  3.19281152E-04  1.24050825E-05 -3.75201255E-05 -1.82738401E-06
  4.30985810E-04  5.63346576E-08 -8.44475902E-05  8.45367189E-05 -6.22189045E-07
  1.44607813E-04 -2.55554456E-07  7.61746185E-08 -3.45235934E-07 -2.79730884E-04
 -4.25791682E-03  9.90832792E-01 -6.09770685E-08 -8.10296539E-06 -1.27218250E-04
  2.96045895E-02  1.51670389E-06  1.74735000E-06  5.00164891E-05 -1.16409076E-02
 -4.23839738E-05 -1.13194855E-05 -2.22956909E-05  5.19325013E-03 -3.77144337E-07
  4.91740167E-06 -4.86758296E-06 -1.38131490E-06  3.21442997E-04  1.27242705E-08
  6.06385813E-05 -5.71007207E-04  4.71260518E-03  2.67172401E-04  1.68752575E-07
 -5.16886495E-05 -2.99116271E-05  2.88084511E-04 -2.34946961E-03 -1.33159118E-04
 -1.14261812E-05 -3.21900327E-05 -3.01185876E-05  2.90075216E-04 -2.36548772E-03
 -1.34080990E-04  1.17572684E-05 -3.21832965E-05 -3.20334797E-08 -9.37483930E-08
 -1.50602002E-07 -1.99750902E-07  4.66497383E-05 -7.83036854E-06 -6.53841067E-06
  7.72934225E-07 -1.81600736E-04  2.79502490E-05 -1.67241620E-05 -4.29585059E-06
  1.01774646E-03 -4.64424957E-07  3.57134870E-06 -3.42661989E-06  2.14212064E-08
 -5.17432142E-06  1.11085074E-08 -2.23519408E-07 -8.83095726E-07  6.65375205E-08
  8.34401412E-08 -2.00477514E-05  1.02851133E-05 -5.02505377E-06 -5.10946245E-07
  1.22396395E-04 -1.07801664E-06  5.42124592E-06  1.70711972E-06 -4.09988435E-04
  7.90384852E-08  1.22913663E-06 -2.40383178E-06  5.57735085E-08 -1.30779325E-05
  5.54162527E-09 -8.59137823E-10 -3.00046220E-09 -8.70692731E-09 -8.38803034E-05
 -3.60180647E-07  1.97644552E-08  5.75260232E-08  3.18467685E-04  1.37410612E-06
 -9.82981178E-08  5.11938541E-07  4.27761292E-04  1.86306313E-06 -2.61630455E-09
  2.21827713E-07 -2.23204422E-07  1.44670063E-04  6.20926982E-07 -9.77584713E-05
 -1.59154254E-09  6.31203326E-09  3.69951321E-06  9.90832861E-01  4.25791751E-03
 -1.05848965E-10  1.09621246E-07  2.96044285E-02  1.27221337E-04 -4.81168359E-09
 -1.16896677E-08 -1.16402045E-02 -5.00296945E-05  5.59473622E-07  1.40226954E-07
  5.19191514E-03  2.23325737E-05  7.43180488E-09 -1.64524617E-08  1.38481552E-08
  3.21465853E-04  1.38146508E-06  5.87195267E-06  1.18060918E-07 -1.16546668E-06
  9.49035527E-06  5.29431720E-07 -2.55059089E-05 -1.63236363E-07 -5.21981770E-05
  4.98194261E-04 -4.07656123E-03 -2.31771877E-04 -4.54333890E-05 -1.18283863E-05
  5.20724836E-05 -4.97118631E-04  4.06707088E-03  2.31236034E-04 -4.54467036E-05
  1.14925572E-05  2.84434947E-10  2.86256539E-10  3.27323813E-09  4.65827253E-05