 Entering Gaussian System, Link 0=g16
 Initial command:
 /usr/local/g16_AVX//g16/l1.exe "/scratch/alanqf/0132-54574.ixchel.mda.cinvestav.mx/Gau-49299.inp" -scrdir="/scratch/alanqf/0132-54574.ixchel.mda.cinvestav.mx/"
 Entering Link 1 = /usr/local/g16_AVX//g16/l1.exe PID=     49300.
  
 Copyright (c) 1988-2017, Gaussian, Inc.  All Rights Reserved.
  
 This is part of the Gaussian(R) 16 program.  It is based on
 the Gaussian(R) 09 system (copyright 2009, Gaussian, Inc.),
 the Gaussian(R) 03 system (copyright 2003, Gaussian, Inc.),
 the Gaussian(R) 98 system (copyright 1998, Gaussian, Inc.),
 the Gaussian(R) 94 system (copyright 1995, Gaussian, Inc.),
 the Gaussian 92(TM) system (copyright 1992, Gaussian, Inc.),
 the Gaussian 90(TM) system (copyright 1990, Gaussian, Inc.),
 the Gaussian 88(TM) system (copyright 1988, Gaussian, Inc.),
 the Gaussian 86(TM) system (copyright 1986, Carnegie Mellon
 University), and the Gaussian 82(TM) system (copyright 1983,
 Carnegie Mellon University). Gaussian is a federally registered
 trademark of Gaussian, Inc.
  
 This software contains proprietary and confidential information,
 including trade secrets, belonging to Gaussian, Inc.
  
 This software is provided under written license and may be
 used, copied, transmitted, or stored only in accord with that
 written license.
  
 The following legend is applicable only to US Government
 contracts under FAR:
  
                    RESTRICTED RIGHTS LEGEND
  
 Use, reproduction and disclosure by the US Government is
 subject to restrictions as set forth in subparagraphs (a)
 and (c) of the Commercial Computer Software - Restricted
 Rights clause in FAR 52.227-19.
  
 Gaussian, Inc.
 340 Quinnipiac St., Bldg. 40, Wallingford CT 06492
  
  
 ---------------------------------------------------------------
 Warning -- This program may not be used in any manner that
 competes with the business of Gaussian, Inc. or will provide
 assistance to any competitor of Gaussian, Inc.  The licensee
 of this program is prohibited from giving any competitor of
 Gaussian, Inc. access to this program.  By using this program,
 the user acknowledges that Gaussian, Inc. is engaged in the
 business of creating and licensing software in the field of
 computational chemistry and represents and warrants to the
 licensee that it is not a competitor of Gaussian, Inc. and that
 it will not use this program in any manner prohibited above.
 ---------------------------------------------------------------
  

 Cite this work as:
 Gaussian 16, Revision B.01,
 M. J. Frisch, G. W. Trucks, H. B. Schlegel, G. E. Scuseria, 
 M. A. Robb, J. R. Cheeseman, G. Scalmani, V. Barone, 
 G. A. Petersson, H. Nakatsuji, X. Li, M. Caricato, A. V. Marenich, 
 J. Bloino, B. G. Janesko, R. Gomperts, B. Mennucci, H. P. Hratchian, 
 J. V. Ortiz, A. F. Izmaylov, J. L. Sonnenberg, D. Williams-Young, 
 F. Ding, F. Lipparini, F. Egidi, J. Goings, B. Peng, A. Petrone, 
 T. Henderson, D. Ranasinghe, V. G. Zakrzewski, J. Gao, N. Rega, 
 G. Zheng, W. Liang, M. Hada, M. Ehara, K. Toyota, R. Fukuda, 
 J. Hasegawa, M. Ishida, T. Nakajima, Y. Honda, O. Kitao, H. Nakai, 
 T. Vreven, K. Throssell, J. A. Montgomery, Jr., J. E. Peralta, 
 F. Ogliaro, M. J. Bearpark, J. J. Heyd, E. N. Brothers, K. N. Kudin, 
 V. N. Staroverov, T. A. Keith, R. Kobayashi, J. Normand, 
 K. Raghavachari, A. P. Rendell, J. C. Burant, S. S. Iyengar, 
 J. Tomasi, M. Cossi, J. M. Millam, M. Klene, C. Adamo, R. Cammi, 
 J. W. Ochterski, R. L. Martin, K. Morokuma, O. Farkas, 
 J. B. Foresman, and D. J. Fox, Gaussian, Inc., Wallingford CT, 2016.
 
 ******************************************
 Gaussian 16:  ES64L-G16RevB.01 20-Dec-2017
                13-Oct-2024 
 ******************************************
 %NProcShared=26
 Will use up to   26 processors via shared memory.
 %MEM=20GB
 %chk=CHKfiles/0132.chk
 ---------------------------------------------------------------------
 #p b3lyp 6-31++g(d,p) scf=verytight NoSymm freq=noraman int=ultrafine
 ---------------------------------------------------------------------
 1/10=4,30=1,38=1/1,3;
 2/12=2,15=1,17=6,18=5,40=1/2;
 3/5=1,6=6,7=1111,11=2,25=1,30=1,71=2,74=-5,75=-5,140=1/1,2,3;
 4//1;
 5/5=2,17=3,38=5,98=1/2;
 8/6=4,10=90,11=11/1;
 11/6=1,8=1,9=11,15=111,16=1,31=1/1,2,10;
 10/6=1,31=1/2;
 6/7=2,8=2,9=2,10=2,28=1/1;
 7/8=1,10=1,25=1,30=1/1,2,3,16;
 1/10=4,30=1/3;
 99//99;
 Leave Link    1 at Sun Oct 13 09:51:48 2024, MaxMem=  2684354560 cpu:               1.8 elap:               0.1
 (Enter /usr/local/g16_AVX//g16/l101.exe)
 ------------------------
 RxCoord=3.09896 DE=46.57
 ------------------------
 Symbolic Z-matrix:
 Charge = -1 Multiplicity = 1
 C                    -0.35218  -0.00001   0.00055 
 Cl                   -2.18342  0.        -0.00003 
 H                    -0.02141   0.00237  -1.03224 
 H                    -0.02238   0.89341   0.51938 
 H                    -0.02239  -0.89582   0.51526 
 C                     2.46598   0.00004  -0.00104 
 N                     3.64583  -0.00001   0.00032 
 
 ITRead=  0  0  0  0  0  0  0
 MicOpt= -1 -1 -1 -1 -1 -1 -1
 NAtoms=      7 NQM=        7 NQMF=       0 NMMI=      0 NMMIF=      0
                NMic=       0 NMicF=      0.
                    Isotopes and Nuclear Properties:
 (Nuclear quadrupole moments (NQMom) in fm**2, nuclear magnetic moments (NMagM)
  in nuclear magnetons)

  Atom         1           2           3           4           5           6           7
 IAtWgt=          12          35           1           1           1          12          14
 AtmWgt=  12.0000000  34.9688527   1.0078250   1.0078250   1.0078250  12.0000000  14.0030740
 NucSpn=           0           3           1           1           1           0           2
 AtZEff=  -0.0000000  -0.0000000  -0.0000000  -0.0000000  -0.0000000  -0.0000000  -0.0000000
 NQMom=    0.0000000  -8.1650000   0.0000000   0.0000000   0.0000000   0.0000000   2.0440000
 NMagM=    0.0000000   0.8218740   2.7928460   2.7928460   2.7928460   0.0000000   0.4037610
 AtZNuc=   6.0000000  17.0000000   1.0000000   1.0000000   1.0000000   6.0000000   7.0000000
 Leave Link  101 at Sun Oct 13 09:51:49 2024, MaxMem=  2684354560 cpu:               5.2 elap:               0.3
 (Enter /usr/local/g16_AVX//g16/l103.exe)

 GradGradGradGradGradGradGradGradGradGradGradGradGradGradGradGradGradGrad
 Berny optimization.
 Initialization pass.
 Trust Radius=3.00D-01 FncErr=1.00D-07 GrdErr=1.00D-07 EigMax=2.50D+02 EigMin=1.00D-04
 Number of steps in this run=      2 maximum allowed number of steps=      2.
 GradGradGradGradGradGradGradGradGradGradGradGradGradGradGradGradGradGrad

 Leave Link  103 at Sun Oct 13 09:51:49 2024, MaxMem=  2684354560 cpu:               1.4 elap:               0.1
 (Enter /usr/local/g16_AVX//g16/l202.exe)
                          Input orientation:                          
 ---------------------------------------------------------------------
 Center     Atomic      Atomic             Coordinates (Angstroms)
 Number     Number       Type             X           Y           Z
 ---------------------------------------------------------------------
      1          6           0       -0.352176   -0.000011    0.000546
      2         17           0       -2.183424   -0.000003   -0.000028
      3          1           0       -0.021409    0.002372   -1.032237
      4          1           0       -0.022383    0.893411    0.519383
      5          1           0       -0.022392   -0.895820    0.515257
      6          6           0        2.465982    0.000035   -0.001041
      7          7           0        3.645834   -0.000010    0.000321
 ---------------------------------------------------------------------
                    Distance matrix (angstroms):
                    1          2          3          4          5
     1  C    0.000000
     2  Cl   1.831248   0.000000
     3  H    1.084460   2.395782   0.000000
     4  H    1.084508   2.395428   1.789267   0.000000
     5  H    1.084508   2.395426   1.789270   1.789236   0.000000
     6  C    2.818158   4.649406   2.692672   2.694610   2.694647
     7  N    3.998010   5.829258   3.809836   3.810963   3.810973
                    6          7
     6  C    0.000000
     7  N    1.179853   0.000000
 Symmetry turned off by external request.
 This structure is nearly, but not quite of a higher symmetry.
 Consider Symm=Loose if the higher symmetry is desired.
 Stoichiometry    C2H3ClN(1-)
 Framework group  C1[X(C2H3ClN)]
 Deg. of freedom    15
 Full point group                 C1      NOp   1
 Rotational constants (GHZ):         156.6331891           1.1782743           1.1782740
 Leave Link  202 at Sun Oct 13 09:51:49 2024, MaxMem=  2684354560 cpu:               2.2 elap:               0.2
 (Enter /usr/local/g16_AVX//g16/l301.exe)
 Standard basis: 6-31++G(d,p) (6D, 7F)
 Ernie: Thresh=  0.10000D-02 Tol=  0.10000D-05 Strict=F.
    98 basis functions,   176 primitive gaussians,    98 cartesian basis functions
    20 alpha electrons       20 beta electrons
       nuclear repulsion energy       110.4317702385 Hartrees.
 IExCor=  402 DFT=T Ex+Corr=B3LYP ExCW=0 ScaHFX=  0.200000
 ScaDFX=  0.800000  0.720000  1.000000  0.810000 ScalE2=  1.000000  1.000000
 IRadAn=      5 IRanWt=     -1 IRanGd=            0 ICorTp=0 IEmpDi=  4
 NAtoms=    7 NActive=    7 NUniq=    7 SFac= 1.00D+00 NAtFMM=   60 NAOKFM=F Big=F
 Integral buffers will be    131072 words long.
 Raffenetti 2 integral format.
 Two-electron integral symmetry is turned off.
 Leave Link  301 at Sun Oct 13 09:51:49 2024, MaxMem=  2684354560 cpu:               1.8 elap:               0.1
 (Enter /usr/local/g16_AVX//g16/l302.exe)
 NPDir=0 NMtPBC=     1 NCelOv=     1 NCel=       1 NClECP=     1 NCelD=      1
         NCelK=      1 NCelE2=     1 NClLst=     1 CellRange=     0.0.
 One-electron integrals computed using PRISM.
 NBasis=    98 RedAO= T EigKep=  1.30D-04  NBF=    98
 NBsUse=    98 1.00D-06 EigRej= -1.00D+00 NBFU=    98
 Precomputing XC quadrature grid using
 IXCGrd= 4 IRadAn=           5 IRanWt=          -1 IRanGd=           0 AccXCQ= 0.00D+00.
 Generated NRdTot=       0 NPtTot=           0 NUsed=           0 NTot=          32
 NSgBfM=    98    98    98    98    98 MxSgAt=     7 MxSgA2=     7.
 Leave Link  302 at Sun Oct 13 09:51:49 2024, MaxMem=  2684354560 cpu:               8.0 elap:               0.4
 (Enter /usr/local/g16_AVX//g16/l303.exe)
 DipDrv:  MaxL=1.
 Leave Link  303 at Sun Oct 13 09:51:50 2024, MaxMem=  2684354560 cpu:               1.6 elap:               0.1
 (Enter /usr/local/g16_AVX//g16/l401.exe)
 ExpMin= 3.60D-02 ExpMax= 2.52D+04 ExpMxC= 3.78D+03 IAcc=3 IRadAn=         5 AccDes= 0.00D+00
 Harris functional with IExCor=  402 and IRadAn=       5 diagonalized for initial guess.
 HarFok:  IExCor=  402 AccDes= 0.00D+00 IRadAn=         5 IDoV= 1 UseB2=F ITyADJ=14
 ICtDFT=  3500011 ScaDFX=  1.000000  1.000000  1.000000  1.000000
 FoFCou: FMM=F IPFlag=           0 FMFlag=      100000 FMFlg1=           0
         NFxFlg=           0 DoJE=T BraDBF=F KetDBF=T FulRan=T
         wScrn=  0.000000 ICntrl=       500 IOpCl=  0 I1Cent=   200000004 NGrid=           0
         NMat0=    1 NMatS0=      1 NMatT0=    0 NMatD0=    1 NMtDS0=    0 NMtDT0=    0
 Symmetry not used in FoFCou.
 Harris En= -593.077436252770    
 JPrj=0 DoOrth=F DoCkMO=F.
 Leave Link  401 at Sun Oct 13 09:51:50 2024, MaxMem=  2684354560 cpu:               6.7 elap:               0.3
 (Enter /usr/local/g16_AVX//g16/l502.exe)
 Keep R1 ints in memory in canonical form, NReq=35752935.
 FoFCou: FMM=F IPFlag=           0 FMFlag=           0 FMFlg1=           0
         NFxFlg=           0 DoJE=F BraDBF=F KetDBF=F FulRan=T
         wScrn=  0.000000 ICntrl=       600 IOpCl=  0 I1Cent=           0 NGrid=           0
         NMat0=    1 NMatS0=   4851 NMatT0=    0 NMatD0=    1 NMtDS0=    0 NMtDT0=    0
 Symmetry not used in FoFCou.
 Two-electron integral symmetry not used.
 Closed shell SCF:
 Using DIIS extrapolation, IDIIS=  1040.
 NGot=  2684354560 LenX=  2672563405 LenY=  2672553360
 Requested convergence on RMS density matrix=1.00D-08 within 128 cycles.
 Requested convergence on MAX density matrix=1.00D-06.
 Requested convergence on             energy=1.00D-06.
 No special actions if energy rises.

 Cycle   1  Pass 1  IDiag  1:
 E= -592.840470095380    
 DIIS: error= 3.48D-02 at cycle   1 NSaved=   1.
 NSaved= 1 IEnMin= 1 EnMin= -592.840470095380     IErMin= 1 ErrMin= 3.48D-02
 ErrMax= 3.48D-02  0.00D+00 EMaxC= 1.00D-01 BMatC= 1.32D-01 BMatP= 1.32D-01
 IDIUse=3 WtCom= 6.52D-01 WtEn= 3.48D-01
 Coeff-Com:  0.100D+01
 Coeff-En:   0.100D+01
 Coeff:      0.100D+01
 Gap=     0.628 Goal=   None    Shift=    0.000
 GapD=    0.628 DampG=2.000 DampE=0.500 DampFc=1.0000 IDamp=-1.
 RMSDP=8.68D-02 MaxDP=2.98D+00              OVMax= 3.84D-01

 Cycle   2  Pass 1  IDiag  1:
 E= -592.634900388182     Delta-E=        0.205569707198 Rises=F Damp=F
 DIIS: error= 4.85D-02 at cycle   2 NSaved=   2.
 NSaved= 2 IEnMin= 1 EnMin= -592.840470095380     IErMin= 1 ErrMin= 3.48D-02
 ErrMax= 4.85D-02  0.00D+00 EMaxC= 1.00D-01 BMatC= 3.01D-01 BMatP= 1.32D-01
 IDIUse=2 WtCom= 0.00D+00 WtEn= 1.00D+00
 Coeff-En:   0.687D+00 0.313D+00
 Coeff:      0.687D+00 0.313D+00
 Gap=     0.154 Goal=   None    Shift=    0.000
 RMSDP=8.52D-02 MaxDP=3.00D+00 DE= 2.06D-01 OVMax= 2.48D-01

 Cycle   3  Pass 1  IDiag  1:
 E= -592.982560586111     Delta-E=       -0.347660197929 Rises=F Damp=F
 DIIS: error= 8.05D-03 at cycle   3 NSaved=   3.
 NSaved= 3 IEnMin= 3 EnMin= -592.982560586111     IErMin= 3 ErrMin= 8.05D-03
 ErrMax= 8.05D-03  0.00D+00 EMaxC= 1.00D-01 BMatC= 1.05D-02 BMatP= 1.32D-01
 IDIUse=3 WtCom= 9.19D-01 WtEn= 8.05D-02
 Coeff-Com:  0.269D+00 0.104D+00 0.627D+00
 Coeff-En:   0.000D+00 0.000D+00 0.100D+01
 Coeff:      0.247D+00 0.958D-01 0.657D+00
 Gap=     0.185 Goal=   None    Shift=    0.000
 RMSDP=2.74D-03 MaxDP=4.81D-02 DE=-3.48D-01 OVMax= 5.05D-02

 Cycle   4  Pass 1  IDiag  1:
 E= -592.987250249828     Delta-E=       -0.004689663717 Rises=F Damp=F
 DIIS: error= 1.20D-02 at cycle   4 NSaved=   4.
 NSaved= 4 IEnMin= 4 EnMin= -592.987250249828     IErMin= 3 ErrMin= 8.05D-03
 ErrMax= 1.20D-02  0.00D+00 EMaxC= 1.00D-01 BMatC= 7.10D-03 BMatP= 1.05D-02
 IDIUse=3 WtCom= 8.80D-01 WtEn= 1.20D-01
 Coeff-Com:  0.516D-01-0.244D-01 0.494D+00 0.479D+00
 Coeff-En:   0.000D+00 0.000D+00 0.382D+00 0.618D+00
 Coeff:      0.454D-01-0.215D-01 0.481D+00 0.495D+00
 Gap=     0.176 Goal=   None    Shift=    0.000
 RMSDP=9.83D-04 MaxDP=1.54D-02 DE=-4.69D-03 OVMax= 2.98D-02

 Cycle   5  Pass 1  IDiag  1:
 E= -592.993628573924     Delta-E=       -0.006378324096 Rises=F Damp=F
 DIIS: error= 2.62D-03 at cycle   5 NSaved=   5.
 NSaved= 5 IEnMin= 5 EnMin= -592.993628573924     IErMin= 5 ErrMin= 2.62D-03
 ErrMax= 2.62D-03  0.00D+00 EMaxC= 1.00D-01 BMatC= 3.03D-04 BMatP= 7.10D-03
 IDIUse=3 WtCom= 9.74D-01 WtEn= 2.62D-02
 Coeff-Com:  0.168D-01-0.122D-01 0.226D+00 0.277D+00 0.492D+00
 Coeff-En:   0.000D+00 0.000D+00 0.000D+00 0.000D+00 0.100D+01
 Coeff:      0.163D-01-0.119D-01 0.220D+00 0.270D+00 0.505D+00
 Gap=     0.179 Goal=   None    Shift=    0.000
 RMSDP=2.93D-04 MaxDP=4.71D-03 DE=-6.38D-03 OVMax= 6.86D-03

 Cycle   6  Pass 1  IDiag  1:
 E= -592.993901685977     Delta-E=       -0.000273112053 Rises=F Damp=F
 DIIS: error= 8.51D-04 at cycle   6 NSaved=   6.
 NSaved= 6 IEnMin= 6 EnMin= -592.993901685977     IErMin= 6 ErrMin= 8.51D-04
 ErrMax= 8.51D-04  0.00D+00 EMaxC= 1.00D-01 BMatC= 3.02D-05 BMatP= 3.03D-04
 IDIUse=3 WtCom= 9.91D-01 WtEn= 8.51D-03
 Coeff-Com:  0.307D-02-0.595D-02 0.604D-01 0.748D-01 0.263D+00 0.605D+00
 Coeff-En:   0.000D+00 0.000D+00 0.000D+00 0.000D+00 0.745D-01 0.926D+00
 Coeff:      0.304D-02-0.589D-02 0.599D-01 0.742D-01 0.262D+00 0.607D+00
 Gap=     0.179 Goal=   None    Shift=    0.000
 RMSDP=7.48D-05 MaxDP=1.42D-03 DE=-2.73D-04 OVMax= 1.67D-03

 Cycle   7  Pass 1  IDiag  1:
 E= -592.993930609474     Delta-E=       -0.000028923498 Rises=F Damp=F
 DIIS: error= 6.72D-05 at cycle   7 NSaved=   7.
 NSaved= 7 IEnMin= 7 EnMin= -592.993930609474     IErMin= 7 ErrMin= 6.72D-05
 ErrMax= 6.72D-05  0.00D+00 EMaxC= 1.00D-01 BMatC= 4.09D-07 BMatP= 3.02D-05
 IDIUse=1 WtCom= 1.00D+00 WtEn= 0.00D+00
 Coeff-Com:  0.342D-03-0.826D-03 0.270D-02 0.211D-02 0.433D-01 0.182D+00
 Coeff-Com:  0.770D+00
 Coeff:      0.342D-03-0.826D-03 0.270D-02 0.211D-02 0.433D-01 0.182D+00
 Coeff:      0.770D+00
 Gap=     0.179 Goal=   None    Shift=    0.000
 RMSDP=1.37D-05 MaxDP=2.36D-04 DE=-2.89D-05 OVMax= 2.67D-04

 Cycle   8  Pass 1  IDiag  1:
 E= -592.993931084365     Delta-E=       -0.000000474891 Rises=F Damp=F
 DIIS: error= 1.03D-05 at cycle   8 NSaved=   8.
 NSaved= 8 IEnMin= 8 EnMin= -592.993931084365     IErMin= 8 ErrMin= 1.03D-05
 ErrMax= 1.03D-05  0.00D+00 EMaxC= 1.00D-01 BMatC= 1.60D-08 BMatP= 4.09D-07
 IDIUse=1 WtCom= 1.00D+00 WtEn= 0.00D+00
 Coeff-Com:  0.923D-04-0.125D-03 0.755D-04 0.239D-03 0.101D-01 0.451D-01
 Coeff-Com:  0.240D+00 0.705D+00
 Coeff:      0.923D-04-0.125D-03 0.755D-04 0.239D-03 0.101D-01 0.451D-01
 Coeff:      0.240D+00 0.705D+00
 Gap=     0.179 Goal=   None    Shift=    0.000
 RMSDP=2.36D-06 MaxDP=6.69D-05 DE=-4.75D-07 OVMax= 4.61D-05

 Cycle   9  Pass 1  IDiag  1:
 E= -592.993931100966     Delta-E=       -0.000000016601 Rises=F Damp=F
 DIIS: error= 3.11D-06 at cycle   9 NSaved=   9.
 NSaved= 9 IEnMin= 9 EnMin= -592.993931100966     IErMin= 9 ErrMin= 3.11D-06
 ErrMax= 3.11D-06  0.00D+00 EMaxC= 1.00D-01 BMatC= 1.67D-09 BMatP= 1.60D-08
 IDIUse=1 WtCom= 1.00D+00 WtEn= 0.00D+00
 Coeff-Com: -0.104D-04 0.127D-04-0.146D-03 0.129D-03 0.134D-02 0.492D-02
 Coeff-Com:  0.372D-01 0.271D+00 0.685D+00
 Coeff:     -0.104D-04 0.127D-04-0.146D-03 0.129D-03 0.134D-02 0.492D-02
 Coeff:      0.372D-01 0.271D+00 0.685D+00
 Gap=     0.179 Goal=   None    Shift=    0.000
 RMSDP=7.53D-07 MaxDP=1.99D-05 DE=-1.66D-08 OVMax= 1.19D-05

 Cycle  10  Pass 1  IDiag  1:
 E= -592.993931102802     Delta-E=       -0.000000001836 Rises=F Damp=F
 DIIS: error= 4.12D-07 at cycle  10 NSaved=  10.
 NSaved=10 IEnMin=10 EnMin= -592.993931102802     IErMin=10 ErrMin= 4.12D-07
 ErrMax= 4.12D-07  0.00D+00 EMaxC= 1.00D-01 BMatC= 2.35D-11 BMatP= 1.67D-09
 IDIUse=1 WtCom= 1.00D+00 WtEn= 0.00D+00
 Coeff-Com: -0.814D-05 0.671D-05-0.164D-04 0.362D-04-0.198D-04-0.597D-03
 Coeff-Com: -0.168D-02 0.221D-01 0.140D+00 0.841D+00
 Coeff:     -0.814D-05 0.671D-05-0.164D-04 0.362D-04-0.198D-04-0.597D-03
 Coeff:     -0.168D-02 0.221D-01 0.140D+00 0.841D+00
 Gap=     0.179 Goal=   None    Shift=    0.000
 RMSDP=1.60D-07 MaxDP=3.51D-06 DE=-1.84D-09 OVMax= 2.05D-06

 Cycle  11  Pass 1  IDiag  1:
 E= -592.993931102832     Delta-E=       -0.000000000031 Rises=F Damp=F
 DIIS: error= 5.23D-08 at cycle  11 NSaved=  11.
 NSaved=11 IEnMin=11 EnMin= -592.993931102832     IErMin=11 ErrMin= 5.23D-08
 ErrMax= 5.23D-08  0.00D+00 EMaxC= 1.00D-01 BMatC= 3.03D-13 BMatP= 2.35D-11
 IDIUse=1 WtCom= 1.00D+00 WtEn= 0.00D+00
 Coeff-Com: -0.114D-05 0.636D-06-0.814D-05-0.109D-04-0.509D-04-0.150D-03
 Coeff-Com: -0.215D-03-0.226D-02 0.475D-02 0.818D-01 0.916D+00
 Coeff:     -0.114D-05 0.636D-06-0.814D-05-0.109D-04-0.509D-04-0.150D-03
 Coeff:     -0.215D-03-0.226D-02 0.475D-02 0.818D-01 0.916D+00
 Gap=     0.179 Goal=   None    Shift=    0.000
 RMSDP=3.62D-08 MaxDP=6.90D-07 DE=-3.06D-11 OVMax= 3.87D-07

 Cycle  12  Pass 1  IDiag  1:
 E= -592.993931102833     Delta-E=       -0.000000000000 Rises=F Damp=F
 DIIS: error= 6.13D-09 at cycle  12 NSaved=  12.
 NSaved=12 IEnMin=12 EnMin= -592.993931102833     IErMin=12 ErrMin= 6.13D-09
 ErrMax= 6.13D-09  0.00D+00 EMaxC= 1.00D-01 BMatC= 4.11D-15 BMatP= 3.03D-13
 IDIUse=1 WtCom= 1.00D+00 WtEn= 0.00D+00
 Coeff-Com: -0.550D-07 0.124D-07-0.964D-06-0.229D-05-0.912D-05-0.202D-04
 Coeff-Com: -0.369D-04-0.826D-03-0.212D-02-0.183D-04 0.118D+00 0.885D+00
 Coeff:     -0.550D-07 0.124D-07-0.964D-06-0.229D-05-0.912D-05-0.202D-04
 Coeff:     -0.369D-04-0.826D-03-0.212D-02-0.183D-04 0.118D+00 0.885D+00
 Gap=     0.179 Goal=   None    Shift=    0.000
 RMSDP=2.02D-09 MaxDP=4.00D-08 DE=-4.55D-13 OVMax= 4.23D-08

 SCF Done:  E(RB3LYP) =  -592.993931103     A.U. after   12 cycles
            NFock= 12  Conv=0.20D-08     -V/T= 2.0045
 KE= 5.903273615279D+02 PE=-1.630563626716D+03 EE= 3.368105638466D+02
 Leave Link  502 at Sun Oct 13 09:51:52 2024, MaxMem=  2684354560 cpu:              36.3 elap:               1.7
 (Enter /usr/local/g16_AVX//g16/l801.exe)
 DoSCS=F DFT=T ScalE2(SS,OS)=  1.000000  1.000000
 Range of M.O.s used for correlation:     1    98
 NBasis=    98 NAE=    20 NBE=    20 NFC=     0 NFV=     0
 NROrb=     98 NOA=    20 NOB=    20 NVA=    78 NVB=    78

 **** Warning!!: The largest alpha MO coefficient is  0.34396595D+02

 Leave Link  801 at Sun Oct 13 09:51:52 2024, MaxMem=  2684354560 cpu:               0.9 elap:               0.1
 (Enter /usr/local/g16_AVX//g16/l1101.exe)
 Using compressed storage, NAtomX=     7.
 Will process      8 centers per pass.
 Leave Link 1101 at Sun Oct 13 09:51:52 2024, MaxMem=  2684354560 cpu:               4.5 elap:               0.2
 (Enter /usr/local/g16_AVX//g16/l1102.exe)
 Symmetrizing basis deriv contribution to polar:
 IMax=3 JMax=2 DiffMx= 0.00D+00
 Leave Link 1102 at Sun Oct 13 09:51:52 2024, MaxMem=  2684354560 cpu:               2.1 elap:               0.1
 (Enter /usr/local/g16_AVX//g16/l1110.exe)
 Forming Gx(P) for the SCF density, NAtomX=     7.
 Integral derivatives from FoFJK, PRISM(SPDF).
 Do as many integral derivatives as possible in FoFJK.
 G2DrvN: MDV=    2684353864.
 G2DrvN: will do     8 centers at a time, making    1 passes.
 Calling FoFCou, ICntrl=  3107 FMM=F I1Cent=   0 AccDes= 0.00D+00.
 FoFJK:  IHMeth= 1 ICntrl=    3107 DoSepK=F KAlg= 0 I1Cent=           0 FoldK=F
 IRaf=         0 NMat=       1 IRICut=       1 DoRegI=T DoRafI=F ISym2E= 0 IDoP0=0 IntGTp=1.
 FoFCou: FMM=F IPFlag=           0 FMFlag=      100000 FMFlg1=           0
         NFxFlg=           0 DoJE=F BraDBF=F KetDBF=F FulRan=T
         wScrn=  0.000000 ICntrl=      3107 IOpCl=  0 I1Cent=           0 NGrid=           0
         NMat0=    1 NMatS0=      1 NMatT0=    0 NMatD0=    1 NMtDS0=    0 NMtDT0=    0
 Symmetry not used in FoFCou.
 End of G2Drv F.D. properties file   721 does not exist.
 End of G2Drv F.D. properties file   722 does not exist.
 End of G2Drv F.D. properties file   788 does not exist.
 Leave Link 1110 at Sun Oct 13 09:51:54 2024, MaxMem=  2684354560 cpu:              36.2 elap:               1.4
 (Enter /usr/local/g16_AVX//g16/l1002.exe)
 Minotr:  Closed shell wavefunction.
          IDoAtm=1111111
          Direct CPHF calculation.
          Differentiating once with respect to electric field.
                with respect to dipole field.
          Differentiating once with respect to nuclear coordinates.
          Requested convergence is 1.0D-08 RMS, and 1.0D-07 maximum.
          Secondary convergence is 1.0D-12 RMS, and 1.0D-12 maximum.
          NewPWx=T KeepS1=F KeepF1=F KeepIn=T MapXYZ=F SortEE=F KeepMc=T.
         2136 words used for storage of precomputed grid.
 Keep R1 ints in memory in canonical form, NReq=35668397.
 FoFCou: FMM=F IPFlag=           0 FMFlag=           0 FMFlg1=           0
         NFxFlg=           0 DoJE=F BraDBF=F KetDBF=F FulRan=T
         wScrn=  0.000000 ICntrl=       600 IOpCl=  0 I1Cent=           0 NGrid=           0
         NMat0=    1 NMatS0=   4851 NMatT0=    0 NMatD0=    1 NMtDS0=    0 NMtDT0=    0
 Symmetry not used in FoFCou.
 Two-electron integral symmetry not used.
          MDV=    2684354560 using IRadAn=       1.
          Solving linear equations simultaneously, MaxMat=       0.
          There are    24 degrees of freedom in the 1st order CPHF.  IDoFFX=6 NUNeed=     3.
     21 vectors produced by pass  0 Test12= 6.50D-15 4.17D-09 XBig12= 8.20D+01 4.33D+00.
 AX will form    21 AO Fock derivatives at one time.
     21 vectors produced by pass  1 Test12= 6.50D-15 4.17D-09 XBig12= 4.54D+01 2.02D+00.
     21 vectors produced by pass  2 Test12= 6.50D-15 4.17D-09 XBig12= 1.39D+00 3.02D-01.
     21 vectors produced by pass  3 Test12= 6.50D-15 4.17D-09 XBig12= 2.99D-02 4.97D-02.
     21 vectors produced by pass  4 Test12= 6.50D-15 4.17D-09 XBig12= 8.61D-05 2.29D-03.
     16 vectors produced by pass  5 Test12= 6.50D-15 4.17D-09 XBig12= 1.95D-07 9.32D-05.
      6 vectors produced by pass  6 Test12= 6.50D-15 4.17D-09 XBig12= 2.34D-10 3.12D-06.
      1 vectors produced by pass  7 Test12= 6.50D-15 4.17D-09 XBig12= 2.81D-13 1.33D-07.
      1 vectors produced by pass  8 Test12= 6.50D-15 4.17D-09 XBig12= 4.34D-16 4.82D-09.
 InvSVY:  IOpt=1 It=  1 EMax= 7.11D-15
 Solved reduced A of dimension   129 with    24 vectors.
 FullF1:  Do perturbations      1 to       3.
 Isotropic polarizability for W=    0.000000       56.25 Bohr**3.
 End of Minotr F.D. properties file   721 does not exist.
 End of Minotr F.D. properties file   722 does not exist.
 End of Minotr F.D. properties file   788 does not exist.
 Leave Link 1002 at Sun Oct 13 09:51:56 2024, MaxMem=  2684354560 cpu:              52.9 elap:               2.2
 (Enter /usr/local/g16_AVX//g16/l601.exe)
 Copying SCF densities to generalized density rwf, IOpCl= 0 IROHF=0.

 **********************************************************************

            Population analysis using the SCF Density.

 **********************************************************************

 Alpha  occ. eigenvalues -- -101.40813 -14.09512 -10.09840  -9.95998  -9.32443
 Alpha  occ. eigenvalues --   -7.08738  -7.07911  -7.07911  -0.71402  -0.64845
 Alpha  occ. eigenvalues --   -0.53752  -0.30556  -0.30556  -0.27550  -0.18287
 Alpha  occ. eigenvalues --   -0.17355  -0.17355  -0.09750  -0.09750  -0.06930
 Alpha virt. eigenvalues --    0.10975   0.12908   0.14550   0.14551   0.17318
 Alpha virt. eigenvalues --    0.20389   0.20389   0.20499   0.22111   0.22121
 Alpha virt. eigenvalues --    0.24235   0.25004   0.25009   0.27135   0.27535
 Alpha virt. eigenvalues --    0.27541   0.31448   0.33624   0.33633   0.36222
 Alpha virt. eigenvalues --    0.38626   0.38630   0.38680   0.46600   0.48156
 Alpha virt. eigenvalues --    0.65480   0.73372   0.74588   0.74589   0.77517
 Alpha virt. eigenvalues --    0.77522   0.88182   0.89690   0.89693   0.98042
 Alpha virt. eigenvalues --    0.99570   0.99574   1.04628   1.04634   1.08539
 Alpha virt. eigenvalues --    1.09712   1.09720   1.12552   1.19063   1.19067
 Alpha virt. eigenvalues --    1.24853   1.26829   1.36885   1.47463   1.60488
 Alpha virt. eigenvalues --    1.60492   1.76612   1.78140   1.78140   1.80407
 Alpha virt. eigenvalues --    1.80408   2.15875   2.20151   2.20153   2.22032
 Alpha virt. eigenvalues --    2.22033   2.29418   2.49231   2.49243   2.67161
 Alpha virt. eigenvalues --    2.83461   2.83462   2.83602   2.95736   2.95738
 Alpha virt. eigenvalues --    3.26092   3.38716   3.55866   3.55873   4.21303
 Alpha virt. eigenvalues --    4.41700   4.45913   4.57314
          Condensed to atoms (all electrons):
               1          2          3          4          5          6
     1  C    5.425482  -0.072541   0.416898   0.416837   0.416835  -0.171012
     2  Cl  -0.072541  17.352250  -0.049710  -0.050000  -0.050006   0.065116
     3  H    0.416898  -0.049710   0.507613  -0.023355  -0.023355  -0.042049
     4  H    0.416837  -0.050000  -0.023355   0.507857  -0.023396  -0.041560
     5  H    0.416835  -0.050006  -0.023355  -0.023396   0.507860  -0.041548
     6  C   -0.171012   0.065116  -0.042049  -0.041560  -0.041548   6.080543
     7  N   -0.001473  -0.002387   0.000450   0.000421   0.000420   0.660954
               7
     1  C   -0.001473
     2  Cl  -0.002387
     3  H    0.000450
     4  H    0.000421
     5  H    0.000420
     6  C    0.660954
     7  N    6.847316
 Mulliken charges:
               1
     1  C   -0.431026
     2  Cl  -0.192722
     3  H    0.213507
     4  H    0.213197
     5  H    0.213190
     6  C   -0.510445
     7  N   -0.505701
 Sum of Mulliken charges =  -1.00000
 Mulliken charges with hydrogens summed into heavy atoms:
               1
     1  C    0.208868
     2  Cl  -0.192722
     6  C   -0.510445
     7  N   -0.505701
 APT charges:
               1
     1  C    0.620207
     2  Cl  -0.652556
     3  H    0.015873
     4  H    0.015587
     5  H    0.015583
     6  C   -0.393499
     7  N   -0.621195
 Sum of APT charges =  -1.00000
 APT charges with hydrogens summed into heavy atoms:
               1
     1  C    0.667250
     2  Cl  -0.652556
     6  C   -0.393499
     7  N   -0.621195
 Electronic spatial extent (au):  <R**2>=            885.8413
 Charge=             -1.0000 electrons
 Dipole moment (field-independent basis, Debye):
    X=             -9.9827    Y=             -0.0001    Z=              0.0023  Tot=              9.9827
 Quadrupole moment (field-independent basis, Debye-Ang):
   XX=            -90.2135   YY=            -35.4382   ZZ=            -35.4374
   XY=             -0.0000   XZ=              0.0001   YZ=             -0.0000
 Traceless Quadrupole moment (field-independent basis, Debye-Ang):
   XX=            -36.5171   YY=             18.2581   ZZ=             18.2590
   XY=             -0.0000   XZ=              0.0001   YZ=             -0.0000
 Octapole moment (field-independent basis, Debye-Ang**2):
  XXX=           -187.5081  YYY=             -0.0063  ZZZ=             -0.8699  XYY=            -11.9722
  XXY=              0.0003  XXZ=             -0.0097  XZZ=            -11.9706  YZZ=              0.0060
  YYZ=              0.8794  XYZ=              0.0000
 Hexadecapole moment (field-independent basis, Debye-Ang**3):
 XXXX=          -1925.5488 YYYY=            -56.0938 ZZZZ=            -56.0935 XXXY=              0.0003
 XXXZ=             -0.0215 YYYX=             -0.0020 YYYZ=             -0.0000 ZZZX=             -0.0197
 ZZZY=              0.0000 XXYY=           -228.8336 XXZZ=           -228.8326 YYZZ=            -18.6962
 XXYZ=              0.0000 YYXZ=              0.0687 ZZXY=             -0.0001
 N-N= 1.104317702385D+02 E-N=-1.630563626568D+03  KE= 5.903273615279D+02
  Exact polarizability:  89.129  -0.000  39.817   0.012  -0.000  39.816
 Approx polarizability: 109.927  -0.001  49.708   0.029  -0.000  49.707
 No NMR shielding tensors so no spin-rotation constants.
 Leave Link  601 at Sun Oct 13 09:51:56 2024, MaxMem=  2684354560 cpu:               3.5 elap:               0.2
 (Enter /usr/local/g16_AVX//g16/l701.exe)
 ... and contract with generalized density number  0.
 Compute integral second derivatives.
 Leave Link  701 at Sun Oct 13 09:51:56 2024, MaxMem=  2684354560 cpu:               4.5 elap:               0.2
 (Enter /usr/local/g16_AVX//g16/l702.exe)
 L702 exits ... SP integral derivatives will be done elsewhere.
 Leave Link  702 at Sun Oct 13 09:51:57 2024, MaxMem=  2684354560 cpu:               1.0 elap:               0.1
 (Enter /usr/local/g16_AVX//g16/l703.exe)
 Integral derivatives from FoFJK, PRISM(SPDF).
 Compute integral second derivatives, UseDBF=F ICtDFT=           0.
 Calling FoFJK, ICntrl=    100127 FMM=F ISym2X=0 I1Cent= 0 IOpClX= 0 NMat=1 NMatS=1 NMatT=0.
 FoFJK:  IHMeth= 1 ICntrl=  100127 DoSepK=F KAlg= 0 I1Cent=           0 FoldK=F
 IRaf=         0 NMat=       1 IRICut=       1 DoRegI=T DoRafI=F ISym2E= 0 IDoP0=0 IntGTp=1.
 FoFCou: FMM=F IPFlag=           0 FMFlag=      100000 FMFlg1=         800
         NFxFlg=           0 DoJE=F BraDBF=F KetDBF=F FulRan=T
         wScrn=  0.000000 ICntrl=    100127 IOpCl=  0 I1Cent=           0 NGrid=           0
         NMat0=    1 NMatS0=      1 NMatT0=    0 NMatD0=    1 NMtDS0=    0 NMtDT0=    0
 Symmetry not used in FoFCou.
 Leave Link  703 at Sun Oct 13 09:51:59 2024, MaxMem=  2684354560 cpu:              63.2 elap:               2.5
 (Enter /usr/local/g16_AVX//g16/l716.exe)
 Dipole        =-3.92750204D+00-2.47852442D-05 9.12787586D-04
 Polarizability= 8.91286658D+01-3.43703886D-04 3.98173547D+01
                 1.24000193D-02-2.34890124D-05 3.98161706D+01
 Full mass-weighted force constant matrix:
 Low frequencies ---  -84.9063  -84.8828  -40.3315  -40.3011   -0.0036   -0.0035
 Low frequencies ---   -0.0034  106.0780  106.1646
 ******    2 imaginary frequencies (negative Signs) ****** 
 Diagonal vibrational polarizability:
       80.1447005      28.4893374      28.5422912
 Harmonic frequencies (cm**-1), IR intensities (KM/Mole), Raman scattering
 activities (A**4/AMU), depolarization ratios for plane and unpolarized
 incident light, reduced masses (AMU), force constants (mDyne/A),
 and normal coordinates:
                      1                      2                      3
                      A                      A                      A
 Frequencies --    -84.6163               -84.5946               105.3130
 Red. masses --      9.1528                 9.1519                 3.7461
 Frc consts  --      0.0386                 0.0386                 0.0245
 IR Inten    --      0.0321                 0.0321                11.6730
  Atom  AN      X      Y      Z        X      Y      Z        X      Y      Z
     1   6    -0.00   0.00   0.24     0.00   0.24  -0.00    -0.00  -0.00   0.39
     2  17    -0.00  -0.00  -0.11     0.00  -0.11   0.00    -0.00   0.00  -0.10
     3   1     0.19   0.00   0.30    -0.00   0.30  -0.00     0.27  -0.00   0.48
     4   1    -0.10   0.00   0.30    -0.16   0.30  -0.01    -0.13   0.01   0.46
     5   1    -0.09   0.00   0.30     0.17   0.30   0.00    -0.14  -0.02   0.46
     6   6    -0.00   0.01   0.59     0.00   0.59  -0.01     0.00   0.00  -0.26
     7   7     0.00  -0.00  -0.50    -0.00  -0.50   0.00     0.00  -0.00   0.03
                      4                      5                      6
                      A                      A                      A
 Frequencies --    105.4092               158.3455               609.1638
 Red. masses --      3.7475                12.0401                 9.4515
 Frc consts  --      0.0245                 0.1779                 2.0664
 IR Inten    --     11.6713                56.5847               261.5212
  Atom  AN      X      Y      Z        X      Y      Z        X      Y      Z
     1   6     0.00   0.39   0.00    -0.31   0.00  -0.00     0.72  -0.00   0.00
     2  17     0.00  -0.10  -0.00    -0.28  -0.00   0.00    -0.29   0.00  -0.00
     3   1     0.00   0.46   0.01    -0.27   0.00   0.00     0.35   0.00  -0.10
     4   1    -0.23   0.48   0.02    -0.27  -0.01  -0.01     0.35   0.09   0.05
     5   1     0.23   0.48  -0.01    -0.27   0.01  -0.01     0.35  -0.09   0.05
     6   6    -0.00  -0.26  -0.00     0.55  -0.00   0.00     0.01   0.00  -0.00
     7   7    -0.00   0.03   0.00     0.55  -0.00   0.00     0.01  -0.00   0.00
                      7                      8                      9
                      A                      A                      A
 Frequencies --   1014.9831              1015.3546              1310.7464
 Red. masses --      1.1449                 1.1448                 1.0914
 Frc consts  --      0.6949                 0.6954                 1.1048
 IR Inten    --      0.2205                 0.2217                20.0396
  Atom  AN      X      Y      Z        X      Y      Z        X      Y      Z
     1   6     0.00  -0.00  -0.11    -0.00  -0.11   0.00    -0.08  -0.00   0.00
     2  17    -0.00   0.00   0.02     0.00   0.02  -0.00    -0.02   0.00  -0.00
     3   1     0.77   0.00   0.13    -0.01   0.23  -0.00     0.55  -0.00   0.18
     4   1    -0.39  -0.04   0.20    -0.66   0.16  -0.04     0.55  -0.15  -0.09
     5   1    -0.38   0.04   0.20     0.67   0.16   0.04     0.55   0.15  -0.09
     6   6    -0.00  -0.00  -0.00     0.00  -0.00   0.00    -0.00  -0.00   0.00
     7   7    -0.00  -0.00  -0.00     0.00  -0.00   0.00    -0.00   0.00  -0.00
                     10                     11                     12
                      A                      A                      A
 Frequencies --   1458.5946              1458.6694              2154.7247
 Red. masses --      1.0617                 1.0617                12.8268
 Frc consts  --      1.3308                 1.3310                35.0875
 IR Inten    --      7.4520                 7.4492                16.4331
  Atom  AN      X      Y      Z        X      Y      Z        X      Y      Z
     1   6     0.00  -0.07  -0.00    -0.00   0.00  -0.07    -0.00  -0.00   0.00
     2  17     0.00  -0.00  -0.00    -0.00   0.00  -0.00     0.00  -0.00   0.00
     3   1    -0.01   0.75  -0.00    -0.28  -0.01  -0.13    -0.02   0.00  -0.01
     4   1     0.24   0.08  -0.37     0.13  -0.39   0.54    -0.02   0.01   0.00
     5   1    -0.24   0.09   0.39     0.14   0.38   0.53    -0.02  -0.01   0.00
     6   6    -0.00  -0.00  -0.00    -0.00   0.00  -0.00     0.76  -0.00   0.00
     7   7     0.00   0.00   0.00     0.00  -0.00   0.00    -0.65   0.00  -0.00
                     13                     14                     15
                      A                      A                      A
 Frequencies --   3131.3300              3258.0608              3258.5262
 Red. masses --      1.0246                 1.1118                 1.1118
 Frc consts  --      5.9192                 6.9533                 6.9554
 IR Inten    --     12.5708                 0.2243                 0.2150
  Atom  AN      X      Y      Z        X      Y      Z        X      Y      Z
     1   6     0.04  -0.00   0.00    -0.00  -0.10   0.00     0.00  -0.00  -0.10
     2  17    -0.00   0.00  -0.00     0.00   0.00  -0.00    -0.00   0.00   0.00
     3   1    -0.16  -0.00   0.55     0.00  -0.02  -0.00    -0.24  -0.00   0.78
     4   1    -0.16  -0.48  -0.28     0.20   0.58   0.35     0.12   0.35   0.18
     5   1    -0.16   0.48  -0.28    -0.20   0.58  -0.34     0.12  -0.34   0.18
     6   6     0.00   0.00  -0.00    -0.00   0.00  -0.00     0.00   0.00   0.00
     7   7     0.00  -0.00   0.00    -0.00  -0.00   0.00     0.00  -0.00  -0.00

 -------------------
 - Thermochemistry -
 -------------------
 Temperature   298.150 Kelvin.  Pressure   1.00000 Atm.
 Atom     1 has atomic number  6 and mass  12.00000
 Atom     2 has atomic number 17 and mass  34.96885
 Atom     3 has atomic number  1 and mass   1.00783
 Atom     4 has atomic number  1 and mass   1.00783
 Atom     5 has atomic number  1 and mass   1.00783
 Atom     6 has atomic number  6 and mass  12.00000
 Atom     7 has atomic number  7 and mass  14.00307
 Molecular mass:    75.99540 amu.
 Principal axes and moments of inertia in atomic units:
                           1         2         3
     Eigenvalues --    11.522091531.681781531.68213
           X            1.00000   0.00004  -0.00000
           Y            0.00000  -0.04150   0.99914
           Z           -0.00004   0.99914   0.04150
 This molecule is an asymmetric top.
 Rotational symmetry number  1.
 Rotational temperatures (Kelvin)      7.51721     0.05655     0.05655
 Rotational constants (GHZ):         156.63319     1.17827     1.17827
    2 imaginary frequencies ignored.
 Zero-point vibrational energy     113879.8 (Joules/Mol)
                                   27.21793 (Kcal/Mol)
 Warning -- explicit consideration of   4 degrees of freedom as
           vibrations may cause significant error
 Vibrational temperatures:    151.52   151.66   227.82   876.45  1460.33
          (Kelvin)           1460.87  1885.87  2098.59  2098.70  3100.17
                             4505.29  4687.62  4688.29
 
 Zero-point correction=                           0.043375 (Hartree/Particle)
 Thermal correction to Energy=                    0.048532
 Thermal correction to Enthalpy=                  0.049476
 Thermal correction to Gibbs Free Energy=         0.014485
 Sum of electronic and zero-point Energies=           -592.950557
 Sum of electronic and thermal Energies=              -592.945399
 Sum of electronic and thermal Enthalpies=            -592.944455
 Sum of electronic and thermal Free Energies=         -592.979446
 
                     E (Thermal)             CV                S
                      KCal/Mol        Cal/Mol-Kelvin    Cal/Mol-Kelvin
 Total                   30.454             13.802             73.645
 Electronic               0.000              0.000              0.000
 Translational            0.889              2.981             38.900
 Rotational               0.889              2.981             24.806
 Vibrational             28.677              7.840              9.940
 Vibration     1          0.605              1.945              3.354
 Vibration     2          0.605              1.945              3.352
 Vibration     3          0.621              1.893              2.569
 Vibration     4          0.968              1.012              0.434
                       Q            Log10(Q)             Ln(Q)
 Total Bot       0.217484D-06         -6.662572        -15.341139
 Total V=0       0.194228D+14         13.288313         30.597471
 Vib (Bot)       0.141910D-18        -18.847987        -43.399093
 Vib (Bot)    1  0.194669D+01          0.289296          0.666128
 Vib (Bot)    2  0.194487D+01          0.288891          0.665195
 Vib (Bot)    3  0.127738D+01          0.106321          0.244813
 Vib (Bot)    4  0.242809D+00         -0.614735         -1.415480
 Vib (V=0)       0.126735D+02          1.102898          2.539516
 Vib (V=0)    1  0.250987D+01          0.399651          0.920232
 Vib (V=0)    2  0.250811D+01          0.399347          0.919531
 Vib (V=0)    3  0.187175D+01          0.272248          0.626875
 Vib (V=0)    4  0.105584D+01          0.023597          0.054335
 Electronic      0.100000D+01          0.000000          0.000000
 Translational   0.260396D+08          7.415635         17.075130
 Rotational      0.588545D+05          4.769780         10.982824
 
                                                       RxCoord=3.09896 DE=46.57
                                                             IR Spectrum
 
      3   3                                      2                          1    1           1                                       
      2   1                                      1                          4    3           0               6                1 1    
      5   3                                      5                          5    1           1               0                5 0    
      8   1                                      5                          9    1           5               9                8 5    
 
      X   X                                      X                          X    X           X               X                X X    
                                                                                 X                           X                X X    
                                                                                                             X                X      
                                                                                                             X                X      
                                                                                                             X                       
                                                                                                             X                       
                                                                                                             X                       
                                                                                                             X                       
                                                                                                             X                       
                                                                                                             X                       
                                                                                                             X                       
                                                                                                             X                       
                                                                                                             X                       
                                                                                                             X                       
                                                                                                             X                       
                                                                                                             X                       
                                                                                                             X                       
                                                                                                             X                       
                                                                                                             X                       
                                                                                                             X                       
 
 -------------------------------------------------------------------
 Center     Atomic                   Forces (Hartrees/Bohr)
 Number     Number              X              Y              Z
 -------------------------------------------------------------------
      1        6           0.005209000    0.000000259    0.000056939
      2       17          -0.014005012   -0.000000042   -0.000016004
      3        1           0.000978243   -0.000002364    0.000969555
      4        1           0.001005380   -0.000853168   -0.000509743
      5        1           0.001005715    0.000855420   -0.000505917
      6        6           0.001632116    0.000000000    0.000002326
      7        7           0.004174558   -0.000000105    0.000002844
 -------------------------------------------------------------------
 Cartesian Forces:  Max     0.014005012 RMS     0.003445238
 Z-matrix is all fixed cartesians, so copy forces.
 Force constants in Cartesian coordinates: 
                1             2             3             4             5 
      1  0.247846D+00
      2  0.169903D-05  0.602117D+00
      3 -0.222052D-03 -0.118056D-05  0.602331D+00
      4 -0.904231D-01  0.000000D+00 -0.298436D-04  0.178432D+00
      5  0.000000D+00 -0.334333D-01  0.000000D+00  0.000000D+00  0.177868D-01
      6 -0.261434D-04  0.000000D+00 -0.334478D-01  0.711013D-04  0.000000D+00
      7 -0.543269D-01 -0.195607D-03  0.848493D-01 -0.248310D-01 -0.450299D-04
      8 -0.192588D-03 -0.494453D-01  0.641817D-03  0.142638D-04  0.632990D-03
      9  0.835011D-01  0.641717D-03 -0.327422D+00 -0.614365D-02 -0.180669D-04
     10 -0.542017D-01 -0.731164D-01 -0.424603D-01 -0.248466D-01 -0.169321D-01
     11 -0.719635D-01 -0.257339D+00 -0.120717D+00  0.528722D-02  0.649535D-02
     12 -0.417819D-01 -0.120720D+00 -0.119554D+00  0.305733D-02  0.339148D-02
     13 -0.542012D-01  0.733096D-01 -0.421209D-01 -0.248465D-01  0.169777D-01
     14  0.721535D-01 -0.258449D+00  0.120077D+00 -0.530080D-02  0.652639D-02
     15 -0.414480D-01  0.120080D+00 -0.118443D+00  0.303276D-02 -0.337334D-02
     16 -0.127085D-02  0.000000D+00 -0.106562D-04 -0.668083D-02  0.000000D+00
     17  0.102323D-05 -0.447571D-02  0.000000D+00  0.000000D+00  0.239818D-02
     18 -0.383310D-04  0.000000D+00 -0.449340D-02  0.258041D-04  0.000000D+00
     19  0.657734D-02  0.000000D+00 -0.557157D-05 -0.680418D-02  0.000000D+00
     20  0.000000D+00  0.102500D-02  0.000000D+00  0.000000D+00 -0.406461D-03
     21  0.152524D-04  0.000000D+00  0.102985D-02 -0.135016D-04  0.000000D+00
                6             7             8             9            10 
      6  0.177836D-01
      7  0.195463D-01  0.740518D-01
      8 -0.181489D-04  0.201089D-03  0.460024D-01
      9  0.848475D-02 -0.871597D-01 -0.676886D-03  0.339188D+00
     10 -0.983787D-02  0.398789D-02  0.712227D-02  0.434243D-02  0.739231D-01
     11  0.340193D-02 -0.161241D-03  0.208814D-02  0.245108D-02  0.751244D-01
     12  0.260802D-02 -0.831938D-02 -0.250558D-01 -0.111045D-01  0.436277D-01
     13 -0.975982D-02  0.398785D-02 -0.714244D-02  0.430945D-02  0.398277D-02
     14 -0.338373D-02  0.199479D-03  0.198356D-02 -0.239068D-02  0.728334D-02
     15  0.257678D-02 -0.831857D-02  0.251162D-01 -0.109998D-01  0.402591D-02
     16  0.440182D-05 -0.300428D-02 -0.101442D-05  0.434173D-03 -0.297775D-02
     17  0.000000D+00  0.123724D-05 -0.160198D-02 -0.911585D-05  0.491225D-03
     18  0.240167D-02 -0.565627D-03 -0.914164D-05  0.238542D-02  0.286065D-03
     19  0.206422D-05  0.134645D-03 -0.158011D-05  0.716166D-03  0.132234D-03
     20  0.000000D+00  0.000000D+00  0.340201D-03  0.195246D-05  0.273323D-04
     21 -0.407010D-03 -0.323216D-04  0.198159D-05 -0.531126D-03  0.160296D-04
               11            12            13            14            15 
     11  0.265287D+00
     12  0.127331D+00  0.119934D+00
     13 -0.730199D-02  0.399235D-02  0.739220D-01
     14 -0.176024D-01  0.136997D-01 -0.753228D-01  0.266459D+00
     15 -0.138205D-01  0.858627D-02  0.432793D-01 -0.126656D+00  0.118762D+00
     16 -0.371764D-03 -0.217117D-03 -0.297712D-02  0.372683D-03 -0.215342D-03
     17  0.138264D-02  0.173243D-02 -0.492600D-03  0.139881D-02 -0.172324D-02
     18  0.173282D-02 -0.587209D-03  0.283758D-03 -0.172360D-02 -0.603050D-03
     19 -0.613118D-03 -0.359029D-03  0.132169D-03  0.614678D-03 -0.356062D-03
     20 -0.312276D-03 -0.378737D-03 -0.273959D-04 -0.315875D-03  0.376743D-03
     21 -0.379299D-03  0.117156D-03  0.158990D-04  0.377273D-03  0.120625D-03
               16            17            18            19            20 
     16  0.114737D+01
     17 -0.431282D-04 -0.364609D-03
     18  0.130998D-02  0.000000D+00 -0.366209D-03
     19 -0.113046D+01  0.430230D-04 -0.130165D-02  0.113028D+01
     20  0.431098D-04  0.126267D-02  0.000000D+00 -0.430928D-04 -0.159326D-02
     21 -0.130544D-02  0.000000D+00  0.126277D-02  0.130408D-02  0.000000D+00
               21 
     21 -0.159227D-02
 Leave Link  716 at Sun Oct 13 09:51:59 2024, MaxMem=  2684354560 cpu:               0.7 elap:               0.1
 (Enter /usr/local/g16_AVX//g16/l103.exe)

 GradGradGradGradGradGradGradGradGradGradGradGradGradGradGradGradGradGrad
 Berny optimization.
 Search for a local minimum.
 Step number   1 out of a maximum of    2
 All quantities printed in internal units (Hartrees-Bohrs-Radians)
 Second derivative matrix not updated -- analytic derivatives used.
 ITU=  0
     Eigenvalues ---   -0.00311  -0.00311   0.00205   0.00205   0.01094
     Eigenvalues ---    0.06196   0.06198   0.10920   0.10922   0.11390
     Eigenvalues ---    0.21177   0.49070   0.89051   0.89081   2.26831
 Eigenvalue     1 is  -3.11D-03 should be greater than     0.000000 Eigenvector:
                          Z6        Z7        Z2        Z5        Z4
   1                    0.67313  -0.61551  -0.19380   0.16707   0.16696
                          Z3        X3        Z1        X4        X5
   1                    0.16171   0.15281   0.11552  -0.07777  -0.07582
 Eigenvalue     2 is  -3.11D-03 should be greater than     0.000000 Eigenvector:
                          Y6        Y7        Y2        Y3        Y4
   1                    0.67300  -0.61549  -0.19385   0.16853   0.16382
                          Y5        X5        X4        Y1        Z4
   1                    0.16376   0.13323  -0.13208   0.11559  -0.00452
 Quadratic step=3.833D-01 exceeds max=3.000D-01 adjusted using Lamda=-3.173D-03.
 Angle between NR and scaled steps=   2.94 degrees.
 Angle between quadratic step and forces=  62.38 degrees.
 Linear search not attempted -- first point.
 B after Tr=     0.005349   -0.000005    0.000166
         Rot=    1.000000   -0.000000   -0.000004   -0.000000 Ang=  -0.00 deg.
 Variable       Old X    -DE/DX   Delta X   Delta X   Delta X     New X
                                 (Linear)    (Quad)   (Total)
    X1       -0.66552   0.00521   0.00000  -0.07088  -0.06553  -0.73105
    Y1       -0.00002   0.00000   0.00000   0.00001   0.00001  -0.00001
    Z1        0.00103   0.00006   0.00000  -0.00022  -0.00005   0.00098
    X2       -4.12607  -0.01401   0.00000  -0.12472  -0.11938  -4.24545
    Y2       -0.00001  -0.00000   0.00000  -0.00001  -0.00001  -0.00002
    Z2       -0.00005  -0.00002   0.00000   0.00022   0.00042   0.00037
    X3       -0.04046   0.00098   0.00000  -0.06203  -0.05670  -0.09716
    Y3        0.00448  -0.00000   0.00000   0.00000  -0.00000   0.00448
    Z3       -1.95065   0.00097   0.00000   0.00273   0.00289  -1.94775
    X4       -0.04230   0.00101   0.00000  -0.06096  -0.05560  -0.09790
    Y4        1.68830  -0.00085   0.00000  -0.00274  -0.00275   1.68556
    Z4        0.98149  -0.00051   0.00000  -0.00220  -0.00203   0.97946
    X5       -0.04231   0.00101   0.00000  -0.06094  -0.05558  -0.09789
    Y5       -1.69285   0.00086   0.00000   0.00278   0.00277  -1.69008
    Z5        0.97369  -0.00051   0.00000  -0.00219  -0.00202   0.97168
    X6        4.66003   0.00163   0.00000   0.16960   0.17494   4.83497
    Y6        0.00007   0.00000   0.00000  -0.00002  -0.00002   0.00005
    Z6       -0.00197   0.00000   0.00000   0.00082   0.00094  -0.00103
    X7        6.88963   0.00417   0.00000   0.17249   0.17784   7.06747
    Y7       -0.00002  -0.00000   0.00000   0.00000   0.00000  -0.00002
    Z7        0.00061   0.00000   0.00000  -0.00027  -0.00016   0.00044
         Item               Value     Threshold  Converged?
 Maximum Force            0.014005     0.000450     NO 
 RMS     Force            0.003445     0.000300     NO 
 Maximum Displacement     0.177839     0.001800     NO 
 RMS     Displacement     0.065540     0.001200     NO 
 Predicted change in Energy=-1.243791D-03
 GradGradGradGradGradGradGradGradGradGradGradGradGradGradGradGradGradGrad

 Leave Link  103 at Sun Oct 13 09:51:59 2024, MaxMem=  2684354560 cpu:               0.7 elap:               0.1
 (Enter /usr/local/g16_AVX//g16/l9999.exe)

 ----------------------------------------------------------------------

 Electric dipole moment (input orientation):
 (Debye = 10**-18 statcoulomb cm , SI units = C m)
                  (au)            (Debye)         (10**-30 SI)
   Tot        0.392750D+01      0.998271D+01      0.332988D+02
   x         -0.392750D+01     -0.998271D+01     -0.332987D+02
   y         -0.247852D-04     -0.629978D-04     -0.210138D-03
   z          0.912788D-03      0.232007D-02      0.773894D-02

 Dipole polarizability, Alpha (input orientation).
 (esu units = cm**3 , SI units = C**2 m**2 J**-1)
 Alpha(0;0):
               (au)            (10**-24 esu)      (10**-40 SI)
   iso        0.562541D+02      0.833599D+01      0.927504D+01
   aniso      0.493119D+02      0.730727D+01      0.813044D+01
   xx         0.891287D+02      0.132075D+02      0.146953D+02
   yx        -0.343704D-03     -0.509317D-04     -0.566691D-04
   yy         0.398174D+02      0.590032D+01      0.656499D+01
   zx         0.124000D-01      0.183749D-02      0.204449D-02
   zy        -0.234890D-04     -0.348071D-05     -0.387281D-05
   zz         0.398162D+02      0.590015D+01      0.656480D+01

 ----------------------------------------------------------------------

 Dipole orientation:
     6          0.00087712         -0.00001658          0.66551641
    17         -0.00101185          0.00002036          4.12607325
     1         -1.95065460          0.00447038          0.04000377
     1          0.98147111          1.68830857          0.04251519
     1          0.97369543         -1.69284805          0.04255172
     6         -0.00088417          0.00003673         -4.66003094
     7          0.00220782         -0.00006236         -6.88962743

 Electric dipole moment (dipole orientation):
 (Debye = 10**-18 statcoulomb cm , SI units = C m)
                  (au)            (Debye)         (10**-30 SI)
   Tot        0.392750D+01      0.998271D+01      0.332988D+02
   x          0.000000D+00      0.000000D+00      0.000000D+00
   y          0.000000D+00      0.000000D+00      0.000000D+00
   z          0.392750D+01      0.998271D+01      0.332988D+02

 Dipole polarizability, Alpha (dipole orientation).
 (esu units = cm**3 , SI units = C**2 m**2 J**-1)
 Alpha(0;0):
               (au)            (10**-24 esu)      (10**-40 SI)
   iso        0.562541D+02      0.833599D+01      0.927504D+01
   aniso      0.493119D+02      0.730727D+01      0.813044D+01
   xx         0.398162D+02      0.590015D+01      0.656480D+01
   yx        -0.237269D-04     -0.351596D-05     -0.391204D-05
   yy         0.398174D+02      0.590032D+01      0.656499D+01
   zx        -0.238607D-01     -0.353579D-02     -0.393410D-02
   zy         0.654736D-03      0.970219D-04      0.107951D-03
   zz         0.891287D+02      0.132075D+02      0.146953D+02

 ----------------------------------------------------------------------
 1\1\GINC-NODO8\Freq\RB3LYP\6-31++G(d,p)\C2H3Cl1N1(1-)\ALANQF\13-Oct-20
 24\0\\#p b3lyp 6-31++g(d,p) scf=verytight NoSymm freq=noraman int=ultr
 afine\\RxCoord=3.09896 DE=46.57\\-1,1\C,-0.352176,-0.000011,0.000546\C
 l,-2.183424,-0.000003,-0.000028\H,-0.021409,0.002372,-1.032237\H,-0.02
 2383,0.893411,0.519383\H,-0.022392,-0.89582,0.515257\C,2.465982,0.0000
 35,-0.001041\N,3.645834,-0.00001,0.000321\\Version=ES64L-G16RevB.01\HF
 =-592.9939311\RMSD=2.021e-09\RMSF=3.445e-03\ZeroPoint=0.0433745\Therma
 l=0.048532\Dipole=-3.8781132,-0.0000255,0.0009711\DipoleDeriv=1.739130
 9,0.0000029,0.0000743,-0.0000033,0.0609042,-0.0000024,0.0005034,-0.000
 0024,0.0605854,-1.3818942,-0.0000025,-0.0000173,0.000001,-0.2878801,0.
 0000003,-0.0001337,0.0000003,-0.2878941,-0.0284799,-0.0000015,0.001013
 6,-0.0000435,0.0815609,0.000201,0.0198936,0.0002008,-0.0054607,-0.0289
 774,-0.000963,-0.0006154,-0.0174992,0.01621,-0.0379251,-0.0103184,-0.0
 379338,0.0595295,-0.0289864,0.000969,-0.0006118,0.017554,0.0158568,0.0
 37726,-0.010239,0.037735,0.0598773,-0.2518639,-0.0000148,0.0004173,-0.
 0000375,-0.4643334,0.0000003,0.0011555,0.0000003,-0.4642994,-1.0189291
 ,0.0000099,-0.0002608,0.0000285,-0.4223184,-0.0000001,-0.0008614,-0.00
 00001,-0.422338\Polar=89.1286658,-0.0003437,39.8173547,0.0124,-0.00002
 35,39.8161706\Quadrupole=-27.1495782,13.5744733,13.5751049,-0.0000361,
 0.0001024,-0.0000013\PG=C01 [X(C2H3Cl1N1)]\NImag=2\\0.24784642,0.00000
 170,0.60211722,-0.00022205,-0.00000118,0.60233076,-0.09042313,0.000000
 40,-0.00002984,0.17843222,0.00000035,-0.03343328,-0.00000004,-0.000000
 74,0.01778684,-0.00002614,0.,-0.03344777,0.00007110,-0.00000006,0.0177
 8355,-0.05432690,-0.00019561,0.08484931,-0.02483099,-0.00004503,0.0195
 4626,0.07405179,-0.00019259,-0.04944531,0.00064182,0.00001426,0.000632
 99,-0.00001815,0.00020109,0.04600241,0.08350110,0.00064172,-0.32742239
 ,-0.00614365,-0.00001807,0.00848475,-0.08715968,-0.00067689,0.33918759
 ,-0.05420172,-0.07311645,-0.04246029,-0.02484655,-0.01693209,-0.009837
 87,0.00398789,0.00712227,0.00434243,0.07392313,-0.07196348,-0.25733863
 ,-0.12071727,0.00528722,0.00649535,0.00340193,-0.00016124,0.00208814,0
 .00245108,0.07512437,0.26528721,-0.04178188,-0.12072030,-0.11955391,0.
 00305733,0.00339148,0.00260802,-0.00831938,-0.02505583,-0.01110447,0.0
 4362772,0.12733122,0.11993415,-0.05420115,0.07330956,-0.04212090,-0.02
 484653,0.01697771,-0.00975982,0.00398785,-0.00714244,0.00430945,0.0039
 8277,-0.00730199,0.00399235,0.07392202,0.07215346,-0.25844929,0.120076
 77,-0.00530080,0.00652639,-0.00338373,0.00019948,0.00198356,-0.0023906
 8,0.00728334,-0.01760243,0.01369973,-0.07532284,0.26645884,-0.04144795
 ,0.12007987,-0.11844315,0.00303276,-0.00337334,0.00257678,-0.00831857,
 0.02511621,-0.01099977,0.00402591,-0.01382048,0.00858627,0.04327925,-0
 .12665576,0.11876229,-0.00127085,0.00000023,-0.00001066,-0.00668083,-0
 .00000012,0.00000440,-0.00300428,-0.00000101,0.00043417,-0.00297775,-0
 .00037176,-0.00021712,-0.00297712,0.00037268,-0.00021534,1.14736738,0.
 00000102,-0.00447571,-0.00000014,-0.00000078,0.00239818,0.00000003,0.0
 0000124,-0.00160198,-0.00000912,0.00049123,0.00138264,0.00173243,-0.00
 049260,0.00139881,-0.00172324,-0.00004313,-0.00036461,-0.00003833,-0.0
 0000014,-0.00449340,0.00002580,0.00000003,0.00240167,-0.00056563,-0.00
 000914,0.00238542,0.00028607,0.00173282,-0.00058721,0.00028376,-0.0017
 2360,-0.00060305,0.00130998,-0.00000002,-0.00036621,0.00657734,0.00000
 017,-0.00000557,-0.00680418,-0.00000007,0.00000206,0.00013465,-0.00000
 158,0.00071617,0.00013223,-0.00061312,-0.00035903,0.00013217,0.0006146
 8,-0.00035606,-1.13045655,0.00004302,-0.00130165,1.13028434,-0.0000004
 6,0.00102500,0.00000004,0.00000044,-0.00040646,0.,0.00000007,0.0003402
 0,0.00000195,0.00002733,-0.00031228,-0.00037874,-0.00002740,-0.0003158
 7,0.00037674,0.00004311,0.00126267,0.00000006,-0.00004309,-0.00159326,
 0.00001525,0.00000005,0.00102985,-0.00001350,0.,-0.00040701,-0.0000323
 2,0.00000198,-0.00053113,0.00001603,-0.00037930,0.00011716,0.00001590,
 0.00037727,0.00012063,-0.00130544,0.00000006,0.00126277,0.00130408,-0.
 00000005,-0.00159227\\-0.00520900,-0.00000026,-0.00005694,0.01400501,0
 .00000004,0.00001600,-0.00097824,0.00000236,-0.00096955,-0.00100538,0.
 00085317,0.00050974,-0.00100572,-0.00085542,0.00050592,-0.00163212,0.,
 -0.00000233,-0.00417456,0.00000010,-0.00000284\\\@


 EDUCATION IS NOT TRAINING BUT RATHER THE PROCESS THAT EQUIPS YOU TO
 ENTERTAIN YOURSELF, A FRIEND, OR AN IDEA.  -- WALLACE STERLING
 Job cpu time:       0 days  0 hours  3 minutes 57.4 seconds.
 Elapsed time:       0 days  0 hours  0 minutes 10.8 seconds.
 File lengths (MBytes):  RWF=     88 Int=      0 D2E=      0 Chk=      2 Scr=      2
 Normal termination of Gaussian 16 at Sun Oct 13 09:52:00 2024.
