 Entering Gaussian System, Link 0=g16
 Initial command:
 /usr/local/g16_AVX//g16/l1.exe "/scratch/alanqf/0133-54575.ixchel.mda.cinvestav.mx/Gau-20998.inp" -scrdir="/scratch/alanqf/0133-54575.ixchel.mda.cinvestav.mx/"
 Entering Link 1 = /usr/local/g16_AVX//g16/l1.exe PID=     20999.
  
 Copyright (c) 1988-2017, Gaussian, Inc.  All Rights Reserved.
  
 This is part of the Gaussian(R) 16 program.  It is based on
 the Gaussian(R) 09 system (copyright 2009, Gaussian, Inc.),
 the Gaussian(R) 03 system (copyright 2003, Gaussian, Inc.),
 the Gaussian(R) 98 system (copyright 1998, Gaussian, Inc.),
 the Gaussian(R) 94 system (copyright 1995, Gaussian, Inc.),
 the Gaussian 92(TM) system (copyright 1992, Gaussian, Inc.),
 the Gaussian 90(TM) system (copyright 1990, Gaussian, Inc.),
 the Gaussian 88(TM) system (copyright 1988, Gaussian, Inc.),
 the Gaussian 86(TM) system (copyright 1986, Carnegie Mellon
 University), and the Gaussian 82(TM) system (copyright 1983,
 Carnegie Mellon University). Gaussian is a federally registered
 trademark of Gaussian, Inc.
  
 This software contains proprietary and confidential information,
 including trade secrets, belonging to Gaussian, Inc.
  
 This software is provided under written license and may be
 used, copied, transmitted, or stored only in accord with that
 written license.
  
 The following legend is applicable only to US Government
 contracts under FAR:
  
                    RESTRICTED RIGHTS LEGEND
  
 Use, reproduction and disclosure by the US Government is
 subject to restrictions as set forth in subparagraphs (a)
 and (c) of the Commercial Computer Software - Restricted
 Rights clause in FAR 52.227-19.
  
 Gaussian, Inc.
 340 Quinnipiac St., Bldg. 40, Wallingford CT 06492
  
  
 ---------------------------------------------------------------
 Warning -- This program may not be used in any manner that
 competes with the business of Gaussian, Inc. or will provide
 assistance to any competitor of Gaussian, Inc.  The licensee
 of this program is prohibited from giving any competitor of
 Gaussian, Inc. access to this program.  By using this program,
 the user acknowledges that Gaussian, Inc. is engaged in the
 business of creating and licensing software in the field of
 computational chemistry and represents and warrants to the
 licensee that it is not a competitor of Gaussian, Inc. and that
 it will not use this program in any manner prohibited above.
 ---------------------------------------------------------------
  

 Cite this work as:
 Gaussian 16, Revision B.01,
 M. J. Frisch, G. W. Trucks, H. B. Schlegel, G. E. Scuseria, 
 M. A. Robb, J. R. Cheeseman, G. Scalmani, V. Barone, 
 G. A. Petersson, H. Nakatsuji, X. Li, M. Caricato, A. V. Marenich, 
 J. Bloino, B. G. Janesko, R. Gomperts, B. Mennucci, H. P. Hratchian, 
 J. V. Ortiz, A. F. Izmaylov, J. L. Sonnenberg, D. Williams-Young, 
 F. Ding, F. Lipparini, F. Egidi, J. Goings, B. Peng, A. Petrone, 
 T. Henderson, D. Ranasinghe, V. G. Zakrzewski, J. Gao, N. Rega, 
 G. Zheng, W. Liang, M. Hada, M. Ehara, K. Toyota, R. Fukuda, 
 J. Hasegawa, M. Ishida, T. Nakajima, Y. Honda, O. Kitao, H. Nakai, 
 T. Vreven, K. Throssell, J. A. Montgomery, Jr., J. E. Peralta, 
 F. Ogliaro, M. J. Bearpark, J. J. Heyd, E. N. Brothers, K. N. Kudin, 
 V. N. Staroverov, T. A. Keith, R. Kobayashi, J. Normand, 
 K. Raghavachari, A. P. Rendell, J. C. Burant, S. S. Iyengar, 
 J. Tomasi, M. Cossi, J. M. Millam, M. Klene, C. Adamo, R. Cammi, 
 J. W. Ochterski, R. L. Martin, K. Morokuma, O. Farkas, 
 J. B. Foresman, and D. J. Fox, Gaussian, Inc., Wallingford CT, 2016.
 
 ******************************************
 Gaussian 16:  ES64L-G16RevB.01 20-Dec-2017
                13-Oct-2024 
 ******************************************
 %NProcShared=26
 Will use up to   26 processors via shared memory.
 %MEM=20GB
 %chk=CHKfiles/0133.chk
 ---------------------------------------------------------------------
 #p b3lyp 6-31++g(d,p) scf=verytight NoSymm freq=noraman int=ultrafine
 ---------------------------------------------------------------------
 1/10=4,30=1,38=1/1,3;
 2/12=2,15=1,17=6,18=5,40=1/2;
 3/5=1,6=6,7=1111,11=2,25=1,30=1,71=2,74=-5,75=-5,140=1/1,2,3;
 4//1;
 5/5=2,17=3,38=5,98=1/2;
 8/6=4,10=90,11=11/1;
 11/6=1,8=1,9=11,15=111,16=1,31=1/1,2,10;
 10/6=1,31=1/2;
 6/7=2,8=2,9=2,10=2,28=1/1;
 7/8=1,10=1,25=1,30=1/1,2,3,16;
 1/10=4,30=1/3;
 99//99;
 Leave Link    1 at Sun Oct 13 09:51:51 2024, MaxMem=  2684354560 cpu:               1.2 elap:               0.1
 (Enter /usr/local/g16_AVX//g16/l101.exe)
 ------------------------
 RxCoord=3.19893 DE=46.44
 ------------------------
 Symbolic Z-matrix:
 Charge = -1 Multiplicity = 1
 C                    -0.35656  -0.00001   0.00072 
 Cl                   -2.18768  0.        -0.00004 
 H                    -0.027     0.00237  -1.0319 
 H                    -0.02811   0.89331   0.51951 
 H                    -0.02811  -0.89573   0.51538 
 C                     2.47433   0.00004  -0.00124 
 N                     3.65428  -0.00001   0.00034 
 
 ITRead=  0  0  0  0  0  0  0
 MicOpt= -1 -1 -1 -1 -1 -1 -1
 NAtoms=      7 NQM=        7 NQMF=       0 NMMI=      0 NMMIF=      0
                NMic=       0 NMicF=      0.
                    Isotopes and Nuclear Properties:
 (Nuclear quadrupole moments (NQMom) in fm**2, nuclear magnetic moments (NMagM)
  in nuclear magnetons)

  Atom         1           2           3           4           5           6           7
 IAtWgt=          12          35           1           1           1          12          14
 AtmWgt=  12.0000000  34.9688527   1.0078250   1.0078250   1.0078250  12.0000000  14.0030740
 NucSpn=           0           3           1           1           1           0           2
 AtZEff=  -0.0000000  -0.0000000  -0.0000000  -0.0000000  -0.0000000  -0.0000000  -0.0000000
 NQMom=    0.0000000  -8.1650000   0.0000000   0.0000000   0.0000000   0.0000000   2.0440000
 NMagM=    0.0000000   0.8218740   2.7928460   2.7928460   2.7928460   0.0000000   0.4037610
 AtZNuc=   6.0000000  17.0000000   1.0000000   1.0000000   1.0000000   6.0000000   7.0000000
 Leave Link  101 at Sun Oct 13 09:51:51 2024, MaxMem=  2684354560 cpu:               4.3 elap:               0.2
 (Enter /usr/local/g16_AVX//g16/l103.exe)

 GradGradGradGradGradGradGradGradGradGradGradGradGradGradGradGradGradGrad
 Berny optimization.
 Initialization pass.
 Trust Radius=3.00D-01 FncErr=1.00D-07 GrdErr=1.00D-07 EigMax=2.50D+02 EigMin=1.00D-04
 Number of steps in this run=      2 maximum allowed number of steps=      2.
 GradGradGradGradGradGradGradGradGradGradGradGradGradGradGradGradGradGrad

 Leave Link  103 at Sun Oct 13 09:51:52 2024, MaxMem=  2684354560 cpu:               1.9 elap:               0.2
 (Enter /usr/local/g16_AVX//g16/l202.exe)
                          Input orientation:                          
 ---------------------------------------------------------------------
 Center     Atomic      Atomic             Coordinates (Angstroms)
 Number     Number       Type             X           Y           Z
 ---------------------------------------------------------------------
      1          6           0       -0.356562   -0.000013    0.000719
      2         17           0       -2.187678   -0.000003   -0.000041
      3          1           0       -0.026998    0.002372   -1.031902
      4          1           0       -0.028106    0.893310    0.519507
      5          1           0       -0.028106   -0.895728    0.515376
      6          6           0        2.474334    0.000038   -0.001241
      7          7           0        3.654283   -0.000011    0.000335
 ---------------------------------------------------------------------
                    Distance matrix (angstroms):
                    1          2          3          4          5
     1  C    0.000000
     2  Cl   1.831116   0.000000
     3  H    1.083939   2.394427   0.000000
     4  H    1.083997   2.394095   1.789034   0.000000
     5  H    1.084002   2.394103   1.789037   1.789043   0.000000
     6  C    2.830897   4.662012   2.705352   2.707641   2.707674
     7  N    4.010845   5.841961   3.823264   3.824598   3.824600
                    6          7
     6  C    0.000000
     7  N    1.179950   0.000000
 Symmetry turned off by external request.
 This structure is nearly, but not quite of a higher symmetry.
 Consider Symm=Loose if the higher symmetry is desired.
 Stoichiometry    C2H3ClN(1-)
 Framework group  C1[X(C2H3ClN)]
 Deg. of freedom    15
 Full point group                 C1      NOp   1
 Rotational constants (GHZ):         156.6712398           1.1726780           1.1726779
 Leave Link  202 at Sun Oct 13 09:51:52 2024, MaxMem=  2684354560 cpu:               0.2 elap:               0.0
 (Enter /usr/local/g16_AVX//g16/l301.exe)
 Standard basis: 6-31++G(d,p) (6D, 7F)
 Ernie: Thresh=  0.10000D-02 Tol=  0.10000D-05 Strict=F.
    98 basis functions,   176 primitive gaussians,    98 cartesian basis functions
    20 alpha electrons       20 beta electrons
       nuclear repulsion energy       110.3125975015 Hartrees.
 IExCor=  402 DFT=T Ex+Corr=B3LYP ExCW=0 ScaHFX=  0.200000
 ScaDFX=  0.800000  0.720000  1.000000  0.810000 ScalE2=  1.000000  1.000000
 IRadAn=      5 IRanWt=     -1 IRanGd=            0 ICorTp=0 IEmpDi=  4
 NAtoms=    7 NActive=    7 NUniq=    7 SFac= 1.00D+00 NAtFMM=   60 NAOKFM=F Big=F
 Integral buffers will be    131072 words long.
 Raffenetti 2 integral format.
 Two-electron integral symmetry is turned off.
 Leave Link  301 at Sun Oct 13 09:51:52 2024, MaxMem=  2684354560 cpu:               1.4 elap:               0.1
 (Enter /usr/local/g16_AVX//g16/l302.exe)
 NPDir=0 NMtPBC=     1 NCelOv=     1 NCel=       1 NClECP=     1 NCelD=      1
         NCelK=      1 NCelE2=     1 NClLst=     1 CellRange=     0.0.
 One-electron integrals computed using PRISM.
 NBasis=    98 RedAO= T EigKep=  1.31D-04  NBF=    98
 NBsUse=    98 1.00D-06 EigRej= -1.00D+00 NBFU=    98
 Precomputing XC quadrature grid using
 IXCGrd= 4 IRadAn=           5 IRanWt=          -1 IRanGd=           0 AccXCQ= 0.00D+00.
 Generated NRdTot=       0 NPtTot=           0 NUsed=           0 NTot=          32
 NSgBfM=    98    98    98    98    98 MxSgAt=     7 MxSgA2=     7.
 Leave Link  302 at Sun Oct 13 09:51:52 2024, MaxMem=  2684354560 cpu:               3.9 elap:               0.2
 (Enter /usr/local/g16_AVX//g16/l303.exe)
 DipDrv:  MaxL=1.
 Leave Link  303 at Sun Oct 13 09:51:52 2024, MaxMem=  2684354560 cpu:               0.8 elap:               0.1
 (Enter /usr/local/g16_AVX//g16/l401.exe)
 ExpMin= 3.60D-02 ExpMax= 2.52D+04 ExpMxC= 3.78D+03 IAcc=3 IRadAn=         5 AccDes= 0.00D+00
 Harris functional with IExCor=  402 and IRadAn=       5 diagonalized for initial guess.
 HarFok:  IExCor=  402 AccDes= 0.00D+00 IRadAn=         5 IDoV= 1 UseB2=F ITyADJ=14
 ICtDFT=  3500011 ScaDFX=  1.000000  1.000000  1.000000  1.000000
 FoFCou: FMM=F IPFlag=           0 FMFlag=      100000 FMFlg1=           0
         NFxFlg=           0 DoJE=T BraDBF=F KetDBF=T FulRan=T
         wScrn=  0.000000 ICntrl=       500 IOpCl=  0 I1Cent=   200000004 NGrid=           0
         NMat0=    1 NMatS0=      1 NMatT0=    0 NMatD0=    1 NMtDS0=    0 NMtDT0=    0
 Symmetry not used in FoFCou.
 Harris En= -593.077694119750    
 JPrj=0 DoOrth=F DoCkMO=F.
 Leave Link  401 at Sun Oct 13 09:51:52 2024, MaxMem=  2684354560 cpu:               5.8 elap:               0.3
 (Enter /usr/local/g16_AVX//g16/l502.exe)
 Keep R1 ints in memory in canonical form, NReq=35752935.
 FoFCou: FMM=F IPFlag=           0 FMFlag=           0 FMFlg1=           0
         NFxFlg=           0 DoJE=F BraDBF=F KetDBF=F FulRan=T
         wScrn=  0.000000 ICntrl=       600 IOpCl=  0 I1Cent=           0 NGrid=           0
         NMat0=    1 NMatS0=   4851 NMatT0=    0 NMatD0=    1 NMtDS0=    0 NMtDT0=    0
 Symmetry not used in FoFCou.
 Two-electron integral symmetry not used.
 Closed shell SCF:
 Using DIIS extrapolation, IDIIS=  1040.
 NGot=  2684354560 LenX=  2672563405 LenY=  2672553360
 Requested convergence on RMS density matrix=1.00D-08 within 128 cycles.
 Requested convergence on MAX density matrix=1.00D-06.
 Requested convergence on             energy=1.00D-06.
 No special actions if energy rises.

 Cycle   1  Pass 1  IDiag  1:
 E= -592.840562907840    
 DIIS: error= 3.48D-02 at cycle   1 NSaved=   1.
 NSaved= 1 IEnMin= 1 EnMin= -592.840562907840     IErMin= 1 ErrMin= 3.48D-02
 ErrMax= 3.48D-02  0.00D+00 EMaxC= 1.00D-01 BMatC= 1.32D-01 BMatP= 1.32D-01
 IDIUse=3 WtCom= 6.52D-01 WtEn= 3.48D-01
 Coeff-Com:  0.100D+01
 Coeff-En:   0.100D+01
 Coeff:      0.100D+01
 Gap=     0.628 Goal=   None    Shift=    0.000
 GapD=    0.628 DampG=2.000 DampE=0.500 DampFc=1.0000 IDamp=-1.
 RMSDP=8.52D-02 MaxDP=2.91D+00              OVMax= 3.83D-01

 Cycle   2  Pass 1  IDiag  1:
 E= -592.635174069540     Delta-E=        0.205388838300 Rises=F Damp=F
 DIIS: error= 4.86D-02 at cycle   2 NSaved=   2.
 NSaved= 2 IEnMin= 1 EnMin= -592.840562907840     IErMin= 1 ErrMin= 3.48D-02
 ErrMax= 4.86D-02  0.00D+00 EMaxC= 1.00D-01 BMatC= 3.01D-01 BMatP= 1.32D-01
 IDIUse=2 WtCom= 0.00D+00 WtEn= 1.00D+00
 Coeff-En:   0.686D+00 0.314D+00
 Coeff:      0.686D+00 0.314D+00
 Gap=     0.154 Goal=   None    Shift=    0.000
 RMSDP=8.36D-02 MaxDP=2.94D+00 DE= 2.05D-01 OVMax= 2.47D-01

 Cycle   3  Pass 1  IDiag  1:
 E= -592.982656176942     Delta-E=       -0.347482107403 Rises=F Damp=F
 DIIS: error= 8.06D-03 at cycle   3 NSaved=   3.
 NSaved= 3 IEnMin= 3 EnMin= -592.982656176942     IErMin= 3 ErrMin= 8.06D-03
 ErrMax= 8.06D-03  0.00D+00 EMaxC= 1.00D-01 BMatC= 1.05D-02 BMatP= 1.32D-01
 IDIUse=3 WtCom= 9.19D-01 WtEn= 8.06D-02
 Coeff-Com:  0.270D+00 0.105D+00 0.625D+00
 Coeff-En:   0.000D+00 0.000D+00 0.100D+01
 Coeff:      0.248D+00 0.966D-01 0.655D+00
 Gap=     0.185 Goal=   None    Shift=    0.000
 RMSDP=2.71D-03 MaxDP=4.75D-02 DE=-3.47D-01 OVMax= 5.06D-02

 Cycle   4  Pass 1  IDiag  1:
 E= -592.987372438232     Delta-E=       -0.004716261290 Rises=F Damp=F
 DIIS: error= 1.20D-02 at cycle   4 NSaved=   4.
 NSaved= 4 IEnMin= 4 EnMin= -592.987372438232     IErMin= 3 ErrMin= 8.06D-03
 ErrMax= 1.20D-02  0.00D+00 EMaxC= 1.00D-01 BMatC= 7.11D-03 BMatP= 1.05D-02
 IDIUse=3 WtCom= 8.80D-01 WtEn= 1.20D-01
 Coeff-Com:  0.515D-01-0.242D-01 0.493D+00 0.480D+00
 Coeff-En:   0.000D+00 0.000D+00 0.382D+00 0.618D+00
 Coeff:      0.453D-01-0.213D-01 0.480D+00 0.496D+00
 Gap=     0.176 Goal=   None    Shift=    0.000
 RMSDP=9.76D-04 MaxDP=1.53D-02 DE=-4.72D-03 OVMax= 2.98D-02

 Cycle   5  Pass 1  IDiag  1:
 E= -592.993755607729     Delta-E=       -0.006383169496 Rises=F Damp=F
 DIIS: error= 2.61D-03 at cycle   5 NSaved=   5.
 NSaved= 5 IEnMin= 5 EnMin= -592.993755607729     IErMin= 5 ErrMin= 2.61D-03
 ErrMax= 2.61D-03  0.00D+00 EMaxC= 1.00D-01 BMatC= 3.01D-04 BMatP= 7.11D-03
 IDIUse=3 WtCom= 9.74D-01 WtEn= 2.61D-02
 Coeff-Com:  0.167D-01-0.121D-01 0.226D+00 0.277D+00 0.493D+00
 Coeff-En:   0.000D+00 0.000D+00 0.000D+00 0.000D+00 0.100D+01
 Coeff:      0.163D-01-0.118D-01 0.220D+00 0.270D+00 0.506D+00
 Gap=     0.179 Goal=   None    Shift=    0.000
 RMSDP=2.89D-04 MaxDP=4.64D-03 DE=-6.38D-03 OVMax= 6.83D-03

 Cycle   6  Pass 1  IDiag  1:
 E= -592.994026170696     Delta-E=       -0.000270562968 Rises=F Damp=F
 DIIS: error= 8.50D-04 at cycle   6 NSaved=   6.
 NSaved= 6 IEnMin= 6 EnMin= -592.994026170696     IErMin= 6 ErrMin= 8.50D-04
 ErrMax= 8.50D-04  0.00D+00 EMaxC= 1.00D-01 BMatC= 3.00D-05 BMatP= 3.01D-04
 IDIUse=3 WtCom= 9.92D-01 WtEn= 8.50D-03
 Coeff-Com:  0.305D-02-0.592D-02 0.603D-01 0.750D-01 0.263D+00 0.604D+00
 Coeff-En:   0.000D+00 0.000D+00 0.000D+00 0.000D+00 0.746D-01 0.925D+00
 Coeff:      0.303D-02-0.587D-02 0.598D-01 0.743D-01 0.262D+00 0.607D+00
 Gap=     0.179 Goal=   None    Shift=    0.000
 RMSDP=7.42D-05 MaxDP=1.40D-03 DE=-2.71D-04 OVMax= 1.66D-03

 Cycle   7  Pass 1  IDiag  1:
 E= -592.994054896437     Delta-E=       -0.000028725741 Rises=F Damp=F
 DIIS: error= 6.67D-05 at cycle   7 NSaved=   7.
 NSaved= 7 IEnMin= 7 EnMin= -592.994054896437     IErMin= 7 ErrMin= 6.67D-05
 ErrMax= 6.67D-05  0.00D+00 EMaxC= 1.00D-01 BMatC= 4.07D-07 BMatP= 3.00D-05
 IDIUse=1 WtCom= 1.00D+00 WtEn= 0.00D+00
 Coeff-Com:  0.341D-03-0.826D-03 0.271D-02 0.211D-02 0.431D-01 0.182D+00
 Coeff-Com:  0.771D+00
 Coeff:      0.341D-03-0.826D-03 0.271D-02 0.211D-02 0.431D-01 0.182D+00
 Coeff:      0.771D+00
 Gap=     0.179 Goal=   None    Shift=    0.000
 RMSDP=1.36D-05 MaxDP=2.36D-04 DE=-2.87D-05 OVMax= 2.66D-04

 Cycle   8  Pass 1  IDiag  1:
 E= -592.994055369695     Delta-E=       -0.000000473258 Rises=F Damp=F
 DIIS: error= 1.03D-05 at cycle   8 NSaved=   8.
 NSaved= 8 IEnMin= 8 EnMin= -592.994055369695     IErMin= 8 ErrMin= 1.03D-05
 ErrMax= 1.03D-05  0.00D+00 EMaxC= 1.00D-01 BMatC= 1.58D-08 BMatP= 4.07D-07
 IDIUse=1 WtCom= 1.00D+00 WtEn= 0.00D+00
 Coeff-Com:  0.920D-04-0.125D-03 0.694D-04 0.224D-03 0.996D-02 0.449D-01
 Coeff-Com:  0.240D+00 0.705D+00
 Coeff:      0.920D-04-0.125D-03 0.694D-04 0.224D-03 0.996D-02 0.449D-01
 Coeff:      0.240D+00 0.705D+00
 Gap=     0.179 Goal=   None    Shift=    0.000
 RMSDP=2.34D-06 MaxDP=6.63D-05 DE=-4.73D-07 OVMax= 4.62D-05

 Cycle   9  Pass 1  IDiag  1:
 E= -592.994055386124     Delta-E=       -0.000000016429 Rises=F Damp=F
 DIIS: error= 3.09D-06 at cycle   9 NSaved=   9.
 NSaved= 9 IEnMin= 9 EnMin= -592.994055386124     IErMin= 9 ErrMin= 3.09D-06
 ErrMax= 3.09D-06  0.00D+00 EMaxC= 1.00D-01 BMatC= 1.65D-09 BMatP= 1.58D-08
 IDIUse=1 WtCom= 1.00D+00 WtEn= 0.00D+00
 Coeff-Com: -0.102D-04 0.122D-04-0.147D-03 0.124D-03 0.133D-02 0.495D-02
 Coeff-Com:  0.374D-01 0.272D+00 0.684D+00
 Coeff:     -0.102D-04 0.122D-04-0.147D-03 0.124D-03 0.133D-02 0.495D-02
 Coeff:      0.374D-01 0.272D+00 0.684D+00
 Gap=     0.179 Goal=   None    Shift=    0.000
 RMSDP=7.46D-07 MaxDP=1.98D-05 DE=-1.64D-08 OVMax= 1.19D-05

 Cycle  10  Pass 1  IDiag  1:
 E= -592.994055387934     Delta-E=       -0.000000001810 Rises=F Damp=F
 DIIS: error= 4.13D-07 at cycle  10 NSaved=  10.
 NSaved=10 IEnMin=10 EnMin= -592.994055387934     IErMin=10 ErrMin= 4.13D-07
 ErrMax= 4.13D-07  0.00D+00 EMaxC= 1.00D-01 BMatC= 2.35D-11 BMatP= 1.65D-09
 IDIUse=1 WtCom= 1.00D+00 WtEn= 0.00D+00
 Coeff-Com: -0.806D-05 0.669D-05-0.162D-04 0.367D-04-0.164D-04-0.590D-03
 Coeff-Com: -0.167D-02 0.222D-01 0.140D+00 0.840D+00
 Coeff:     -0.806D-05 0.669D-05-0.162D-04 0.367D-04-0.164D-04-0.590D-03
 Coeff:     -0.167D-02 0.222D-01 0.140D+00 0.840D+00
 Gap=     0.179 Goal=   None    Shift=    0.000
 RMSDP=1.58D-07 MaxDP=3.49D-06 DE=-1.81D-09 OVMax= 2.04D-06

 Cycle  11  Pass 1  IDiag  1:
 E= -592.994055387966     Delta-E=       -0.000000000032 Rises=F Damp=F
 DIIS: error= 5.17D-08 at cycle  11 NSaved=  11.
 NSaved=11 IEnMin=11 EnMin= -592.994055387966     IErMin=11 ErrMin= 5.17D-08
 ErrMax= 5.17D-08  0.00D+00 EMaxC= 1.00D-01 BMatC= 2.95D-13 BMatP= 2.35D-11
 IDIUse=1 WtCom= 1.00D+00 WtEn= 0.00D+00
 Coeff-Com: -0.113D-05 0.632D-06-0.806D-05-0.108D-04-0.504D-04-0.149D-03
 Coeff-Com: -0.217D-03-0.225D-02 0.470D-02 0.807D-01 0.917D+00
 Coeff:     -0.113D-05 0.632D-06-0.806D-05-0.108D-04-0.504D-04-0.149D-03
 Coeff:     -0.217D-03-0.225D-02 0.470D-02 0.807D-01 0.917D+00
 Gap=     0.179 Goal=   None    Shift=    0.000
 RMSDP=3.55D-08 MaxDP=6.76D-07 DE=-3.17D-11 OVMax= 3.82D-07

 Cycle  12  Pass 1  IDiag  1:
 E= -592.994055387965     Delta-E=        0.000000000001 Rises=F Damp=F
 DIIS: error= 6.08D-09 at cycle  12 NSaved=  12.
 NSaved=12 IEnMin=11 EnMin= -592.994055387966     IErMin=12 ErrMin= 6.08D-09
 ErrMax= 6.08D-09  0.00D+00 EMaxC= 1.00D-01 BMatC= 4.02D-15 BMatP= 2.95D-13
 IDIUse=1 WtCom= 1.00D+00 WtEn= 0.00D+00
 Coeff-Com: -0.549D-07 0.125D-07-0.955D-06-0.226D-05-0.905D-05-0.200D-04
 Coeff-Com: -0.368D-04-0.822D-03-0.211D-02-0.121D-03 0.118D+00 0.885D+00
 Coeff:     -0.549D-07 0.125D-07-0.955D-06-0.226D-05-0.905D-05-0.200D-04
 Coeff:     -0.368D-04-0.822D-03-0.211D-02-0.121D-03 0.118D+00 0.885D+00
 Gap=     0.179 Goal=   None    Shift=    0.000
 RMSDP=1.99D-09 MaxDP=3.91D-08 DE= 6.82D-13 OVMax= 4.18D-08

 SCF Done:  E(RB3LYP) =  -592.994055388     A.U. after   12 cycles
            NFock= 12  Conv=0.20D-08     -V/T= 2.0045
 KE= 5.903268205371D+02 PE=-1.630313554431D+03 EE= 3.366800810045D+02
 Leave Link  502 at Sun Oct 13 09:51:54 2024, MaxMem=  2684354560 cpu:              36.8 elap:               1.7
 (Enter /usr/local/g16_AVX//g16/l801.exe)
 DoSCS=F DFT=T ScalE2(SS,OS)=  1.000000  1.000000
 Range of M.O.s used for correlation:     1    98
 NBasis=    98 NAE=    20 NBE=    20 NFC=     0 NFV=     0
 NROrb=     98 NOA=    20 NOB=    20 NVA=    78 NVB=    78

 **** Warning!!: The largest alpha MO coefficient is  0.34047898D+02

 Leave Link  801 at Sun Oct 13 09:51:54 2024, MaxMem=  2684354560 cpu:               0.8 elap:               0.1
 (Enter /usr/local/g16_AVX//g16/l1101.exe)
 Using compressed storage, NAtomX=     7.
 Will process      8 centers per pass.
 Leave Link 1101 at Sun Oct 13 09:51:55 2024, MaxMem=  2684354560 cpu:               3.4 elap:               0.2
 (Enter /usr/local/g16_AVX//g16/l1102.exe)
 Symmetrizing basis deriv contribution to polar:
 IMax=3 JMax=2 DiffMx= 0.00D+00
 Leave Link 1102 at Sun Oct 13 09:51:55 2024, MaxMem=  2684354560 cpu:               0.7 elap:               0.1
 (Enter /usr/local/g16_AVX//g16/l1110.exe)
 Forming Gx(P) for the SCF density, NAtomX=     7.
 Integral derivatives from FoFJK, PRISM(SPDF).
 Do as many integral derivatives as possible in FoFJK.
 G2DrvN: MDV=    2684353864.
 G2DrvN: will do     8 centers at a time, making    1 passes.
 Calling FoFCou, ICntrl=  3107 FMM=F I1Cent=   0 AccDes= 0.00D+00.
 FoFJK:  IHMeth= 1 ICntrl=    3107 DoSepK=F KAlg= 0 I1Cent=           0 FoldK=F
 IRaf=         0 NMat=       1 IRICut=       1 DoRegI=T DoRafI=F ISym2E= 0 IDoP0=0 IntGTp=1.
 FoFCou: FMM=F IPFlag=           0 FMFlag=      100000 FMFlg1=           0
         NFxFlg=           0 DoJE=F BraDBF=F KetDBF=F FulRan=T
         wScrn=  0.000000 ICntrl=      3107 IOpCl=  0 I1Cent=           0 NGrid=           0
         NMat0=    1 NMatS0=      1 NMatT0=    0 NMatD0=    1 NMtDS0=    0 NMtDT0=    0
 Symmetry not used in FoFCou.
 End of G2Drv F.D. properties file   721 does not exist.
 End of G2Drv F.D. properties file   722 does not exist.
 End of G2Drv F.D. properties file   788 does not exist.
 Leave Link 1110 at Sun Oct 13 09:51:56 2024, MaxMem=  2684354560 cpu:              37.7 elap:               1.5
 (Enter /usr/local/g16_AVX//g16/l1002.exe)
 Minotr:  Closed shell wavefunction.
          IDoAtm=1111111
          Direct CPHF calculation.
          Differentiating once with respect to electric field.
                with respect to dipole field.
          Differentiating once with respect to nuclear coordinates.
          Requested convergence is 1.0D-08 RMS, and 1.0D-07 maximum.
          Secondary convergence is 1.0D-12 RMS, and 1.0D-12 maximum.
          NewPWx=T KeepS1=F KeepF1=F KeepIn=T MapXYZ=F SortEE=F KeepMc=T.
         2136 words used for storage of precomputed grid.
 Keep R1 ints in memory in canonical form, NReq=35668397.
 FoFCou: FMM=F IPFlag=           0 FMFlag=           0 FMFlg1=           0
         NFxFlg=           0 DoJE=F BraDBF=F KetDBF=F FulRan=T
         wScrn=  0.000000 ICntrl=       600 IOpCl=  0 I1Cent=           0 NGrid=           0
         NMat0=    1 NMatS0=   4851 NMatT0=    0 NMatD0=    1 NMtDS0=    0 NMtDT0=    0
 Symmetry not used in FoFCou.
 Two-electron integral symmetry not used.
          MDV=    2684354560 using IRadAn=       1.
          Solving linear equations simultaneously, MaxMat=       0.
          There are    24 degrees of freedom in the 1st order CPHF.  IDoFFX=6 NUNeed=     3.
     21 vectors produced by pass  0 Test12= 6.50D-15 4.17D-09 XBig12= 8.18D+01 4.33D+00.
 AX will form    21 AO Fock derivatives at one time.
     21 vectors produced by pass  1 Test12= 6.50D-15 4.17D-09 XBig12= 4.56D+01 2.03D+00.
     21 vectors produced by pass  2 Test12= 6.50D-15 4.17D-09 XBig12= 1.40D+00 3.06D-01.
     21 vectors produced by pass  3 Test12= 6.50D-15 4.17D-09 XBig12= 3.06D-02 5.07D-02.
     21 vectors produced by pass  4 Test12= 6.50D-15 4.17D-09 XBig12= 8.67D-05 2.31D-03.
     16 vectors produced by pass  5 Test12= 6.50D-15 4.17D-09 XBig12= 1.95D-07 9.30D-05.
      6 vectors produced by pass  6 Test12= 6.50D-15 4.17D-09 XBig12= 2.31D-10 3.14D-06.
      1 vectors produced by pass  7 Test12= 6.50D-15 4.17D-09 XBig12= 2.78D-13 1.35D-07.
      1 vectors produced by pass  8 Test12= 6.50D-15 4.17D-09 XBig12= 4.32D-16 4.87D-09.
 InvSVY:  IOpt=1 It=  1 EMax= 2.16D-15
 Solved reduced A of dimension   129 with    24 vectors.
 FullF1:  Do perturbations      1 to       3.
 Isotropic polarizability for W=    0.000000       56.21 Bohr**3.
 End of Minotr F.D. properties file   721 does not exist.
 End of Minotr F.D. properties file   722 does not exist.
 End of Minotr F.D. properties file   788 does not exist.
 Leave Link 1002 at Sun Oct 13 09:51:58 2024, MaxMem=  2684354560 cpu:              52.5 elap:               2.2
 (Enter /usr/local/g16_AVX//g16/l601.exe)
 Copying SCF densities to generalized density rwf, IOpCl= 0 IROHF=0.

 **********************************************************************

            Population analysis using the SCF Density.

 **********************************************************************

 Alpha  occ. eigenvalues -- -101.40862 -14.09500 -10.09882  -9.95995  -9.32492
 Alpha  occ. eigenvalues --   -7.08787  -7.07959  -7.07959  -0.71458  -0.64827
 Alpha  occ. eigenvalues --   -0.53806  -0.30627  -0.30626  -0.27577  -0.18280
 Alpha  occ. eigenvalues --   -0.17399  -0.17399  -0.09734  -0.09734  -0.06923
 Alpha virt. eigenvalues --    0.10955   0.12876   0.14533   0.14534   0.17319
 Alpha virt. eigenvalues --    0.20369   0.20370   0.20460   0.22096   0.22107
 Alpha virt. eigenvalues --    0.24203   0.24988   0.24993   0.27121   0.27551
 Alpha virt. eigenvalues --    0.27557   0.31433   0.33590   0.33600   0.36206
 Alpha virt. eigenvalues --    0.38616   0.38622   0.38697   0.46575   0.48119
 Alpha virt. eigenvalues --    0.65351   0.73287   0.74555   0.74556   0.77463
 Alpha virt. eigenvalues --    0.77469   0.88090   0.89690   0.89693   0.97960
 Alpha virt. eigenvalues --    0.99524   0.99528   1.04583   1.04590   1.08501
 Alpha virt. eigenvalues --    1.09674   1.09680   1.12518   1.19050   1.19054
 Alpha virt. eigenvalues --    1.24490   1.26837   1.36927   1.47329   1.60439
 Alpha virt. eigenvalues --    1.60441   1.76241   1.78156   1.78156   1.80412
 Alpha virt. eigenvalues --    1.80414   2.15812   2.20160   2.20162   2.21957
 Alpha virt. eigenvalues --    2.21958   2.29480   2.49316   2.49327   2.67245
 Alpha virt. eigenvalues --    2.83294   2.83470   2.83472   2.95772   2.95774
 Alpha virt. eigenvalues --    3.26049   3.38814   3.55893   3.55904   4.21236
 Alpha virt. eigenvalues --    4.41621   4.45862   4.57296
          Condensed to atoms (all electrons):
               1          2          3          4          5          6
     1  C    5.414881  -0.066104   0.416306   0.416247   0.416246  -0.164277
     2  Cl  -0.066104  17.348022  -0.049557  -0.049914  -0.049920   0.063213
     3  H    0.416306  -0.049557   0.507376  -0.023273  -0.023274  -0.041784
     4  H    0.416247  -0.049914  -0.023273   0.507645  -0.023318  -0.041191
     5  H    0.416246  -0.049920  -0.023274  -0.023318   0.507648  -0.041179
     6  C   -0.164277   0.063213  -0.041784  -0.041191  -0.041179   6.075407
     7  N   -0.001562  -0.002301   0.000505   0.000469   0.000469   0.660408
               7
     1  C   -0.001562
     2  Cl  -0.002301
     3  H    0.000505
     4  H    0.000469
     5  H    0.000469
     6  C    0.660408
     7  N    6.846607
 Mulliken charges:
               1
     1  C   -0.431736
     2  Cl  -0.193439
     3  H    0.213702
     4  H    0.213335
     5  H    0.213328
     6  C   -0.510596
     7  N   -0.504594
 Sum of Mulliken charges =  -1.00000
 Mulliken charges with hydrogens summed into heavy atoms:
               1
     1  C    0.208628
     2  Cl  -0.193439
     6  C   -0.510596
     7  N   -0.504594
 APT charges:
               1
     1  C    0.615724
     2  Cl  -0.648851
     3  H    0.016003
     4  H    0.015677
     5  H    0.015674
     6  C   -0.393575
     7  N   -0.620653
 Sum of APT charges =  -1.00000
 APT charges with hydrogens summed into heavy atoms:
               1
     1  C    0.663079
     2  Cl  -0.648851
     6  C   -0.393575
     7  N   -0.620653
 Electronic spatial extent (au):  <R**2>=            889.6467
 Charge=             -1.0000 electrons
 Dipole moment (field-independent basis, Debye):
    X=            -10.0400    Y=             -0.0001    Z=              0.0029  Tot=             10.0400
 Quadrupole moment (field-independent basis, Debye-Ang):
   XX=            -90.4611   YY=            -35.4379   ZZ=            -35.4371
   XY=             -0.0001   XZ=              0.0008   YZ=              0.0000
 Traceless Quadrupole moment (field-independent basis, Debye-Ang):
   XX=            -36.6824   YY=             18.3408   ZZ=             18.3416
   XY=             -0.0001   XZ=              0.0008   YZ=              0.0000
 Octapole moment (field-independent basis, Debye-Ang**2):
  XXX=           -188.8284  YYY=             -0.0064  ZZZ=             -0.8692  XYY=            -12.0339
  XXY=              0.0003  XXZ=             -0.0100  XZZ=            -12.0321  YZZ=              0.0060
  YYZ=              0.8806  XYZ=              0.0000
 Hexadecapole moment (field-independent basis, Debye-Ang**3):
 XXXX=          -1937.4771 YYYY=            -56.0961 ZZZZ=            -56.0958 XXXY=              0.0003
 XXXZ=             -0.0124 YYYX=             -0.0021 YYYZ=             -0.0000 ZZZX=             -0.0025
 ZZZY=              0.0000 XXYY=           -229.8740 XXZZ=           -229.8729 YYZZ=            -18.6966
 XXYZ=              0.0000 YYXZ=              0.0658 ZZXY=             -0.0002
 N-N= 1.103125975015D+02 E-N=-1.630313554284D+03  KE= 5.903268205371D+02
  Exact polarizability:  88.930  -0.000  39.844   0.015  -0.000  39.842
 Approx polarizability: 109.673  -0.001  49.712   0.034  -0.000  49.711
 No NMR shielding tensors so no spin-rotation constants.
 Leave Link  601 at Sun Oct 13 09:51:59 2024, MaxMem=  2684354560 cpu:               2.6 elap:               0.1
 (Enter /usr/local/g16_AVX//g16/l701.exe)
 ... and contract with generalized density number  0.
 Compute integral second derivatives.
 Leave Link  701 at Sun Oct 13 09:51:59 2024, MaxMem=  2684354560 cpu:               4.7 elap:               0.2
 (Enter /usr/local/g16_AVX//g16/l702.exe)
 L702 exits ... SP integral derivatives will be done elsewhere.
 Leave Link  702 at Sun Oct 13 09:51:59 2024, MaxMem=  2684354560 cpu:               0.5 elap:               0.1
 (Enter /usr/local/g16_AVX//g16/l703.exe)
 Integral derivatives from FoFJK, PRISM(SPDF).
 Compute integral second derivatives, UseDBF=F ICtDFT=           0.
 Calling FoFJK, ICntrl=    100127 FMM=F ISym2X=0 I1Cent= 0 IOpClX= 0 NMat=1 NMatS=1 NMatT=0.
 FoFJK:  IHMeth= 1 ICntrl=  100127 DoSepK=F KAlg= 0 I1Cent=           0 FoldK=F
 IRaf=         0 NMat=       1 IRICut=       1 DoRegI=T DoRafI=F ISym2E= 0 IDoP0=0 IntGTp=1.
 FoFCou: FMM=F IPFlag=           0 FMFlag=      100000 FMFlg1=         800
         NFxFlg=           0 DoJE=F BraDBF=F KetDBF=F FulRan=T
         wScrn=  0.000000 ICntrl=    100127 IOpCl=  0 I1Cent=           0 NGrid=           0
         NMat0=    1 NMatS0=      1 NMatT0=    0 NMatD0=    1 NMtDS0=    0 NMtDT0=    0
 Symmetry not used in FoFCou.
 Leave Link  703 at Sun Oct 13 09:52:01 2024, MaxMem=  2684354560 cpu:              65.3 elap:               2.6
 (Enter /usr/local/g16_AVX//g16/l716.exe)
 Dipole        =-3.95005541D+00-2.75896726D-05 1.14716846D-03
 Polarizability= 8.89296539D+01-4.28071979D-04 3.98440510D+01
                 1.45640137D-02-3.34576500D-05 3.98423789D+01
 Full mass-weighted force constant matrix:
 Low frequencies ---  -82.9059  -82.8726  -40.1852  -40.1403   -0.0009   -0.0006
 Low frequencies ---    0.0028   95.7397  102.9060
 ******    2 imaginary frequencies (negative Signs) ****** 
 Diagonal vibrational polarizability:
       81.5918660      30.5786474      30.6578808
 Harmonic frequencies (cm**-1), IR intensities (KM/Mole), Raman scattering
 activities (A**4/AMU), depolarization ratios for plane and unpolarized
 incident light, reduced masses (AMU), force constants (mDyne/A),
 and normal coordinates:
                      1                      2                      3
                      A                      A                      A
 Frequencies --    -82.5100               -82.4803               101.9370
 Red. masses --      8.9508                 8.9516                 3.7680
 Frc consts  --      0.0359                 0.0359                 0.0231
 IR Inten    --      0.0503                 0.0501                11.7235
  Atom  AN      X      Y      Z        X      Y      Z        X      Y      Z
     1   6    -0.00   0.00   0.25     0.00   0.25  -0.00    -0.00   0.00   0.39
     2  17    -0.00  -0.00  -0.11     0.00  -0.11   0.00    -0.00  -0.00  -0.10
     3   1     0.20   0.01   0.31    -0.00   0.31  -0.01     0.27   0.00   0.48
     4   1    -0.10   0.00   0.31    -0.17   0.31  -0.01    -0.14   0.01   0.46
     5   1    -0.10   0.01   0.31     0.17   0.31  -0.00    -0.13  -0.01   0.46
     6   6    -0.00   0.01   0.58     0.00   0.58  -0.01     0.00  -0.00  -0.26
     7   7     0.00  -0.01  -0.49    -0.00  -0.49   0.01     0.00   0.00   0.03
                      4                      5                      6
                      A                      A                      A
 Frequencies --    102.0678               155.1779               610.3947
 Red. masses --      3.7694                12.0161                 9.4476
 Frc consts  --      0.0231                 0.1705                 2.0739
 IR Inten    --     11.7218                55.9908               257.1391
  Atom  AN      X      Y      Z        X      Y      Z        X      Y      Z
     1   6     0.00   0.39  -0.00    -0.31   0.00  -0.00     0.72  -0.00   0.00
     2  17     0.00  -0.10   0.00    -0.28  -0.00   0.00    -0.29   0.00  -0.00
     3   1    -0.00   0.46  -0.00    -0.27   0.00   0.00     0.35   0.00  -0.10
     4   1    -0.23   0.47   0.01    -0.27  -0.01  -0.01     0.35   0.09   0.05
     5   1     0.23   0.47  -0.01    -0.27   0.01  -0.01     0.35  -0.09   0.05
     6   6    -0.00  -0.26   0.00     0.55   0.00   0.00     0.01   0.00  -0.00
     7   7    -0.00   0.03  -0.00     0.55  -0.00   0.00     0.01  -0.00   0.00
                      7                      8                      9
                      A                      A                      A
 Frequencies --   1013.0247              1013.4786              1310.4496
 Red. masses --      1.1461                 1.1460                 1.0918
 Frc consts  --      0.6930                 0.6935                 1.1046
 IR Inten    --      0.2176                 0.2187                19.8597
  Atom  AN      X      Y      Z        X      Y      Z        X      Y      Z
     1   6     0.00  -0.00  -0.11    -0.00  -0.11   0.00    -0.08  -0.00   0.00
     2  17    -0.00   0.00   0.02     0.00   0.02  -0.00    -0.02   0.00  -0.00
     3   1     0.77   0.00   0.13    -0.01   0.23  -0.00     0.55  -0.00   0.18
     4   1    -0.39  -0.04   0.20    -0.66   0.16  -0.04     0.55  -0.15  -0.09
     5   1    -0.38   0.04   0.20     0.67   0.16   0.04     0.55   0.15  -0.09
     6   6    -0.00  -0.00  -0.00     0.00  -0.00   0.00    -0.00  -0.00   0.00
     7   7    -0.00  -0.00  -0.00     0.00  -0.00   0.00    -0.00   0.00  -0.00
                     10                     11                     12
                      A                      A                      A
 Frequencies --   1458.1860              1458.2494              2153.8647
 Red. masses --      1.0616                 1.0616                12.8281
 Frc consts  --      1.3300                 1.3301                35.0629
 IR Inten    --      7.4781                 7.4778                16.5362
  Atom  AN      X      Y      Z        X      Y      Z        X      Y      Z
     1   6     0.00  -0.07   0.00    -0.00  -0.00  -0.07    -0.00  -0.00   0.00
     2  17     0.00  -0.00   0.00    -0.00  -0.00  -0.00     0.00  -0.00   0.00
     3   1     0.01   0.75   0.00    -0.28   0.01  -0.13    -0.02   0.00  -0.01
     4   1     0.24   0.10  -0.39     0.14  -0.38   0.52    -0.02   0.01   0.00
     5   1    -0.24   0.08   0.37     0.13   0.38   0.54    -0.02  -0.01   0.00
     6   6     0.00  -0.00   0.00    -0.00  -0.00  -0.00     0.76  -0.00   0.00
     7   7     0.00   0.00  -0.00    -0.00   0.00   0.00    -0.65   0.00  -0.00
                     13                     14                     15
                      A                      A                      A
 Frequencies --   3135.7555              3262.9703              3263.5108
 Red. masses --      1.0245                 1.1118                 1.1118
 Frc consts  --      5.9355                 6.9745                 6.9769
 IR Inten    --     12.7083                 0.2163                 0.2058
  Atom  AN      X      Y      Z        X      Y      Z        X      Y      Z
     1   6     0.04  -0.00   0.00    -0.00  -0.10   0.00     0.00  -0.00  -0.10
     2  17    -0.00   0.00  -0.00     0.00   0.00  -0.00    -0.00   0.00   0.00
     3   1    -0.16  -0.00   0.55     0.01  -0.02  -0.02    -0.24  -0.00   0.78
     4   1    -0.16  -0.48  -0.28     0.20   0.57   0.34     0.12   0.36   0.19
     5   1    -0.16   0.48  -0.28    -0.21   0.59  -0.35     0.11  -0.33   0.17
     6   6     0.00   0.00  -0.00    -0.00   0.00  -0.00     0.00   0.00   0.00
     7   7     0.00  -0.00   0.00    -0.00  -0.00   0.00     0.00  -0.00  -0.00

 -------------------
 - Thermochemistry -
 -------------------
 Temperature   298.150 Kelvin.  Pressure   1.00000 Atm.
 Atom     1 has atomic number  6 and mass  12.00000
 Atom     2 has atomic number 17 and mass  34.96885
 Atom     3 has atomic number  1 and mass   1.00783
 Atom     4 has atomic number  1 and mass   1.00783
 Atom     5 has atomic number  1 and mass   1.00783
 Atom     6 has atomic number  6 and mass  12.00000
 Atom     7 has atomic number  7 and mass  14.00307
 Molecular mass:    75.99540 amu.
 Principal axes and moments of inertia in atomic units:
                           1         2         3
     Eigenvalues --    11.519291538.991291538.99134
           X            1.00000   0.00005   0.00002
           Y            0.00000  -0.35222   0.93592
           Z           -0.00005   0.93592   0.35222
 This molecule is an asymmetric top.
 Rotational symmetry number  1.
 Rotational temperatures (Kelvin)      7.51903     0.05628     0.05628
 Rotational constants (GHZ):         156.67124     1.17268     1.17268
    2 imaginary frequencies ignored.
 Zero-point vibrational energy     113878.9 (Joules/Mol)
                                   27.21771 (Kcal/Mol)
 Warning -- explicit consideration of   4 degrees of freedom as
           vibrations may cause significant error
 Vibrational temperatures:    146.66   146.85   223.27   878.22  1457.52
          (Kelvin)           1458.17  1885.44  2098.00  2098.10  3098.93
                             4511.65  4694.69  4695.46
 
 Zero-point correction=                           0.043374 (Hartree/Particle)
 Thermal correction to Energy=                    0.048550
 Thermal correction to Enthalpy=                  0.049494
 Thermal correction to Gibbs Free Energy=         0.014420
 Sum of electronic and zero-point Energies=           -592.950681
 Sum of electronic and thermal Energies=              -592.945506
 Sum of electronic and thermal Enthalpies=            -592.944561
 Sum of electronic and thermal Free Energies=         -592.979635
 
                     E (Thermal)             CV                S
                      KCal/Mol        Cal/Mol-Kelvin    Cal/Mol-Kelvin
 Total                   30.465             13.812             73.818
 Electronic               0.000              0.000              0.000
 Translational            0.889              2.981             38.900
 Rotational               0.889              2.981             24.815
 Vibrational             28.688              7.851             10.104
 Vibration     1          0.604              1.948              3.417
 Vibration     2          0.604              1.948              3.414
 Vibration     3          0.620              1.897              2.608
 Vibration     4          0.969              1.010              0.432
                       Q            Log10(Q)             Ln(Q)
 Total Bot       0.232853D-06         -6.632919        -15.272861
 Total V=0       0.207876D+14         13.317804         30.665377
 Vib (Bot)       0.151235D-18        -18.820349        -43.335454
 Vib (Bot)    1  0.201252D+01          0.303740          0.699386
 Vib (Bot)    2  0.200989D+01          0.303171          0.698078
 Vib (Bot)    3  0.130470D+01          0.115511          0.265974
 Vib (Bot)    4  0.242009D+00         -0.616169         -1.418781
 Vib (V=0)       0.135013D+02          1.130374          2.602783
 Vib (V=0)    1  0.257370D+01          0.410558          0.945344
 Vib (V=0)    2  0.257115D+01          0.410127          0.944351
 Vib (V=0)    3  0.189723D+01          0.278119          0.640394
 Vib (V=0)    4  0.105549D+01          0.023454          0.054004
 Electronic      0.100000D+01          0.000000          0.000000
 Translational   0.260396D+08          7.415635         17.075130
 Rotational      0.591282D+05          4.771795         10.987463
 
                                                       RxCoord=3.19893 DE=46.44
                                                             IR Spectrum
 
      3   3                                      2                          1     1          1                                       
      2   1                                      1                          4     3          0               6                1  1   
      6   3                                      5                          5     1          1               1                5  0   
      3   6                                      4                          8     0          3               0                5  2   
 
      X   X                                      X                          X     X          X               X                X  X   
                                                                                  X                          X                X  X   
                                                                                                             X                X      
                                                                                                             X                X      
                                                                                                             X                       
                                                                                                             X                       
                                                                                                             X                       
                                                                                                             X                       
                                                                                                             X                       
                                                                                                             X                       
                                                                                                             X                       
                                                                                                             X                       
                                                                                                             X                       
                                                                                                             X                       
                                                                                                             X                       
                                                                                                             X                       
                                                                                                             X                       
                                                                                                             X                       
                                                                                                             X                       
                                                                                                             X                       
 
 -------------------------------------------------------------------
 Center     Atomic                   Forces (Hartrees/Bohr)
 Number     Number              X              Y              Z
 -------------------------------------------------------------------
      1        6           0.004646194   -0.000001961    0.000055961
      2       17          -0.013904865   -0.000000375   -0.000014170
      3        1           0.001271958   -0.000001460    0.000665837
      4        1           0.001297013   -0.000594635   -0.000357676
      5        1           0.001295704    0.000598538   -0.000356154
      6        6           0.001420592   -0.000000003    0.000003266
      7        7           0.003973403   -0.000000104    0.000002935
 -------------------------------------------------------------------
 Cartesian Forces:  Max     0.013904865 RMS     0.003374489
 Z-matrix is all fixed cartesians, so copy forces.
 Force constants in Cartesian coordinates: 
                1             2             3             4             5 
      1  0.248314D+00
      2  0.312655D-05  0.603678D+00
      3 -0.256758D-03  0.393975D-05  0.603903D+00
      4 -0.909077D-01  0.000000D+00 -0.359184D-04  0.178833D+00
      5  0.000000D+00 -0.334099D-01  0.000000D+00  0.000000D+00  0.178288D-01
      6 -0.324793D-04  0.000000D+00 -0.334250D-01  0.855444D-04  0.000000D+00
      7 -0.543303D-01 -0.196044D-03  0.849165D-01 -0.249081D-01 -0.452810D-04
      8 -0.193125D-03 -0.494289D-01  0.645160D-03  0.141695D-04  0.643077D-03
      9  0.836269D-01  0.644910D-03 -0.328547D+00 -0.610776D-02 -0.180179D-04
     10 -0.541919D-01 -0.731359D-01 -0.424729D-01 -0.249198D-01 -0.170145D-01
     11 -0.720336D-01 -0.258174D+00 -0.121213D+00  0.525116D-02  0.648211D-02
     12 -0.418230D-01 -0.121215D+00 -0.119827D+00  0.303405D-02  0.337630D-02
     13 -0.541928D-01  0.733282D-01 -0.421323D-01 -0.249191D-01  0.170601D-01
     14  0.722227D-01 -0.259284D+00  0.120565D+00 -0.526464D-02  0.651311D-02
     15 -0.414875D-01  0.120566D+00 -0.118709D+00  0.300956D-02 -0.335824D-02
     16 -0.116188D-02  0.000000D+00 -0.123681D-04 -0.648298D-02  0.000000D+00
     17  0.101860D-05 -0.437592D-02  0.000000D+00  0.000000D+00  0.233728D-02
     18 -0.447409D-04  0.000000D+00 -0.439637D-02  0.299708D-04  0.000000D+00
     19  0.647084D-02  0.000000D+00 -0.631182D-05 -0.669505D-02  0.000000D+00
     20  0.000000D+00  0.995757D-03  0.000000D+00  0.000000D+00 -0.394480D-03
     21  0.175697D-04  0.000000D+00  0.100143D-02 -0.154485D-04  0.000000D+00
                6             7             8             9            10 
      6  0.178256D-01
      7  0.196377D-01  0.739112D-01
      8 -0.180651D-04  0.201611D-03  0.459035D-01
      9  0.846611D-02 -0.873116D-01 -0.680513D-03  0.340314D+00
     10 -0.988827D-02  0.403826D-02  0.717044D-02  0.433423D-02  0.737664D-01
     11  0.338890D-02 -0.130429D-03  0.211607D-02  0.246449D-02  0.752178D-01
     12  0.260917D-02 -0.835404D-02 -0.250711D-01 -0.110773D-01  0.436845D-01
     13 -0.980956D-02  0.403823D-02 -0.719046D-02  0.430096D-02  0.403237D-02
     14 -0.337082D-02  0.168968D-03  0.201115D-02 -0.240382D-02  0.729756D-02
     15  0.257795D-02 -0.835342D-02  0.251316D-01 -0.109725D-01  0.407129D-02
     16  0.498644D-05 -0.288959D-02 -0.106245D-05  0.445997D-03 -0.286258D-02
     17  0.000000D+00  0.109034D-05 -0.157775D-02 -0.894923D-05  0.430906D-03
     18  0.234133D-02 -0.495293D-03 -0.898483D-05  0.233466D-02  0.251375D-03
     19  0.210230D-05  0.140283D-03 -0.157252D-05  0.711267D-03  0.137280D-03
     20  0.000000D+00  0.000000D+00  0.332793D-03  0.190333D-05  0.337382D-04
     21 -0.395143D-03 -0.398510D-04  0.193567D-05 -0.517715D-03  0.197738D-04
               11            12            13            14            15 
     11  0.266103D+00
     12  0.127865D+00  0.120146D+00
     13 -0.731628D-02  0.403756D-02  0.737661D-01
     14 -0.175738D-01  0.137145D-01 -0.754157D-01  0.267275D+00
     15 -0.138352D-01  0.861575D-02  0.433344D-01 -0.127182D+00  0.118966D+00
     16 -0.380819D-03 -0.222597D-03 -0.286197D-02  0.381734D-03 -0.220784D-03
     17  0.135091D-02  0.169981D-02 -0.432116D-03  0.136681D-02 -0.169079D-02
     18  0.170031D-02 -0.580605D-03  0.249348D-03 -0.169125D-02 -0.596168D-03
     19 -0.607822D-03 -0.356461D-03  0.137229D-03  0.609370D-03 -0.353515D-03
     20 -0.304217D-03 -0.369732D-03 -0.338231D-04 -0.307746D-03  0.367790D-03
     21 -0.370422D-03  0.114472D-03  0.196114D-04  0.368444D-03  0.117862D-03
               16            17            18            19            20 
     16  0.114601D+01
     17 -0.468666D-04 -0.273334D-03
     18  0.151401D-02  0.000000D+00 -0.274640D-03
     19 -0.112975D+01  0.467987D-04 -0.150467D-02  0.112956D+01
     20  0.468923D-04  0.117201D-02  0.000000D+00 -0.468774D-04 -0.149412D-02
     21 -0.150924D-02  0.000000D+00  0.117179D-02  0.150758D-02  0.000000D+00
               21 
     21 -0.149269D-02
 Leave Link  716 at Sun Oct 13 09:52:02 2024, MaxMem=  2684354560 cpu:               0.9 elap:               0.1
 (Enter /usr/local/g16_AVX//g16/l103.exe)

 GradGradGradGradGradGradGradGradGradGradGradGradGradGradGradGradGradGrad
 Berny optimization.
 Search for a local minimum.
 Step number   1 out of a maximum of    2
 All quantities printed in internal units (Hartrees-Bohrs-Radians)
 Second derivative matrix not updated -- analytic derivatives used.
 ITU=  0
     Eigenvalues ---   -0.00293  -0.00292   0.00193   0.00193   0.01050
     Eigenvalues ---    0.06194   0.06197   0.10913   0.10914   0.11396
     Eigenvalues ---    0.21261   0.49174   0.89306   0.89339   2.26656
 Eigenvalue     1 is  -2.93D-03 should be greater than     0.000000 Eigenvector:
                          Z6        Z7        Z2        Z5        Z4
   1                    0.66560  -0.61443  -0.19735   0.17324   0.17311
                          Z3        X3        Z1        X4        X5
   1                    0.16821   0.15817   0.12018  -0.08113  -0.07795
 Eigenvalue     2 is  -2.92D-03 should be greater than     0.000000 Eigenvector:
                          Y6        Y7        Y2        Y3        Y4
   1                    0.66549  -0.61441  -0.19740   0.17454   0.17021
                          Y5        X5        X4        Y1        Z6
   1                    0.17013   0.13824  -0.13638   0.12023  -0.00617
 Quadratic step=3.693D-01 exceeds max=3.000D-01 adjusted using Lamda=-2.553D-03.
 Angle between NR and scaled steps=   2.61 degrees.
 Angle between quadratic step and forces=  63.07 degrees.
 Linear search not attempted -- first point.
 B after Tr=     0.004951   -0.000007    0.000254
         Rot=    1.000000    0.000000   -0.000009   -0.000000 Ang=  -0.00 deg.
 Variable       Old X    -DE/DX   Delta X   Delta X   Delta X     New X
                                 (Linear)    (Quad)   (Total)
    X1       -0.67380   0.00465   0.00000  -0.07234  -0.06739  -0.74120
    Y1       -0.00002  -0.00000   0.00000   0.00002   0.00001  -0.00002
    Z1        0.00136   0.00006   0.00000  -0.00044  -0.00017   0.00119
    X2       -4.13411  -0.01390   0.00000  -0.12497  -0.12002  -4.25414
    Y2       -0.00001  -0.00000   0.00000  -0.00001  -0.00002  -0.00003
    Z2       -0.00008  -0.00001   0.00000   0.00037   0.00070   0.00063
    X3       -0.05102   0.00127   0.00000  -0.06074  -0.05582  -0.10684
    Y3        0.00448  -0.00000   0.00000   0.00001   0.00000   0.00449
    Z3       -1.95001   0.00067   0.00000   0.00225   0.00251  -1.94750
    X4       -0.05311   0.00130   0.00000  -0.05939  -0.05442  -0.10753
    Y4        1.68811  -0.00059   0.00000  -0.00260  -0.00261   1.68550
    Z4        0.98173  -0.00036   0.00000  -0.00235  -0.00209   0.97963
    X5       -0.05311   0.00130   0.00000  -0.05938  -0.05441  -0.10752
    Y5       -1.69268   0.00060   0.00000   0.00265   0.00264  -1.69004
    Z5        0.97392  -0.00036   0.00000  -0.00234  -0.00208   0.97184
    X6        4.67581   0.00142   0.00000   0.16967   0.17462   4.85043
    Y6        0.00007  -0.00000   0.00000  -0.00003  -0.00003   0.00004
    Z6       -0.00235   0.00000   0.00000   0.00122   0.00139  -0.00096
    X7        6.90559   0.00397   0.00000   0.17250   0.17745   7.08305
    Y7       -0.00002  -0.00000   0.00000   0.00001   0.00000  -0.00002
    Z7        0.00063   0.00000   0.00000  -0.00038  -0.00025   0.00038
         Item               Value     Threshold  Converged?
 Maximum Force            0.013905     0.000450     NO 
 RMS     Force            0.003374     0.000300     NO 
 Maximum Displacement     0.177453     0.001800     NO 
 RMS     Displacement     0.065465     0.001200     NO 
 Predicted change in Energy=-1.166658D-03
 GradGradGradGradGradGradGradGradGradGradGradGradGradGradGradGradGradGrad

 Leave Link  103 at Sun Oct 13 09:52:02 2024, MaxMem=  2684354560 cpu:               0.6 elap:               0.1
 (Enter /usr/local/g16_AVX//g16/l9999.exe)

 ----------------------------------------------------------------------

 Electric dipole moment (input orientation):
 (Debye = 10**-18 statcoulomb cm , SI units = C m)
                  (au)            (Debye)         (10**-30 SI)
   Tot        0.395006D+01      0.100400D+02      0.334900D+02
   x         -0.395006D+01     -0.100400D+02     -0.334900D+02
   y         -0.275897D-04     -0.701259D-04     -0.233915D-03
   z          0.114717D-02      0.291581D-02      0.972610D-02

 Dipole polarizability, Alpha (input orientation).
 (esu units = cm**3 , SI units = C**2 m**2 J**-1)
 Alpha(0;0):
               (au)            (10**-24 esu)      (10**-40 SI)
   iso        0.562054D+02      0.832878D+01      0.926701D+01
   aniso      0.490864D+02      0.727386D+01      0.809326D+01
   xx         0.889297D+02      0.131780D+02      0.146625D+02
   yx        -0.428072D-03     -0.634337D-04     -0.705795D-04
   yy         0.398441D+02      0.590428D+01      0.656940D+01
   zx         0.145640D-01      0.215816D-02      0.240128D-02
   zy        -0.334576D-04     -0.495791D-05     -0.551642D-05
   zz         0.398424D+02      0.590403D+01      0.656912D+01

 ----------------------------------------------------------------------

 Dipole orientation:
     6          0.00116303         -0.00001985          0.67380489
    17         -0.00127810          0.00002320          4.13411207
     1         -1.95002693          0.00446917          0.05045247
     1          0.98169870          1.68811847          0.05338596
     1          0.97391584         -1.69267343          0.05340731
     6         -0.00098721          0.00003914         -4.67581408
     7          0.00263857         -0.00006900         -6.90559358

 Electric dipole moment (dipole orientation):
 (Debye = 10**-18 statcoulomb cm , SI units = C m)
                  (au)            (Debye)         (10**-30 SI)
   Tot        0.395006D+01      0.100400D+02      0.334900D+02
   x          0.000000D+00      0.000000D+00      0.000000D+00
   y          0.000000D+00      0.000000D+00      0.000000D+00
   z          0.395006D+01      0.100400D+02      0.334900D+02

 Dipole polarizability, Alpha (dipole orientation).
 (esu units = cm**3 , SI units = C**2 m**2 J**-1)
 Alpha(0;0):
               (au)            (10**-24 esu)      (10**-40 SI)
   iso        0.562054D+02      0.832878D+01      0.926701D+01
   aniso      0.490864D+02      0.727386D+01      0.809326D+01
   xx         0.398424D+02      0.590403D+01      0.656912D+01
   yx        -0.337949D-04     -0.500788D-05     -0.557202D-05
   yy         0.398441D+02      0.590428D+01      0.656940D+01
   zx        -0.288199D-01     -0.427066D-02     -0.475175D-02
   zy         0.770706D-03      0.114207D-03      0.127072D-03
   zz         0.889296D+02      0.131780D+02      0.146625D+02

 ----------------------------------------------------------------------
 1\1\GINC-NODO10\Freq\RB3LYP\6-31++G(d,p)\C2H3Cl1N1(1-)\ALANQF\13-Oct-2
 024\0\\#p b3lyp 6-31++g(d,p) scf=verytight NoSymm freq=noraman int=ult
 rafine\\RxCoord=3.19893 DE=46.44\\-1,1\C,-0.356562,-0.000013,0.000719\
 Cl,-2.187678,-0.000003,-0.000041\H,-0.026998,0.002372,-1.031902\H,-0.0
 28106,0.89331,0.519507\H,-0.028106,-0.895728,0.515376\C,2.474334,0.000
 038,-0.001241\N,3.654283,-0.000011,0.000335\\Version=ES64L-G16RevB.01\
 HF=-592.9940554\RMSD=1.992e-09\RMSF=3.374e-03\ZeroPoint=0.0433742\Ther
 mal=0.0485498\Dipole=-3.9009769,-0.0000288,0.0012197\DipoleDeriv=1.725
 1572,0.0000007,0.0001302,-0.0000038,0.0612026,-0.0000037,0.0006147,-0.
 0000037,0.0608133,-1.3717891,-0.0000023,-0.000032,0.0000031,-0.2873753
 ,0.0000001,-0.0002131,0.0000001,-0.2873873,-0.0285843,-0.0000011,0.000
 9509,-0.0000454,0.0817586,0.0002015,0.0206201,0.0002011,-0.005164,-0.0
 291574,-0.0009318,-0.0006181,-0.0181544,0.0164434,-0.0379071,-0.010731
 2,-0.0379108,0.0597462,-0.0291617,0.0009397,-0.0006157,0.0182111,0.016
 0891,0.0377091,-0.0106488,0.0377132,0.0600941,-0.2489863,-0.0000163,0.
 0004865,-0.0000416,-0.4658891,0.0000002,0.0013566,0.0000002,-0.4658499
 ,-1.0174785,0.000011,-0.0003018,0.0000311,-0.4222294,-0.0000001,-0.000
 9983,-0.0000001,-0.4222525\Polar=88.9296539,-0.0004281,39.844051,0.014
 564,-0.0000335,39.8423789\Quadrupole=-27.2724528,13.6359252,13.6365276
 ,-0.0000476,0.0005835,0.0000014\PG=C01 [X(C2H3Cl1N1)]\NImag=2\\0.24831
 379,0.00000313,0.60367758,-0.00025676,0.00000394,0.60390282,-0.0909077
 3,0.00000023,-0.00003592,0.17883279,0.00000035,-0.03340990,-0.00000005
 ,-0.00000055,0.01782880,-0.00003248,-0.00000002,-0.03342497,0.00008554
 ,0.,0.01782556,-0.05433026,-0.00019604,0.08491652,-0.02490810,-0.00004
 528,0.01963768,0.07391117,-0.00019312,-0.04942888,0.00064516,0.0000141
 7,0.00064308,-0.00001807,0.00020161,0.04590353,0.08362690,0.00064491,-
 0.32854710,-0.00610776,-0.00001802,0.00846611,-0.08731159,-0.00068051,
 0.34031381,-0.05419193,-0.07313592,-0.04247287,-0.02491983,-0.01701448
 ,-0.00988827,0.00403826,0.00717044,0.00433423,0.07376644,-0.07203357,-
 0.25817443,-0.12121347,0.00525116,0.00648211,0.00338890,-0.00013043,0.
 00211607,0.00246449,0.07521776,0.26610336,-0.04182298,-0.12121519,-0.1
 1982722,0.00303405,0.00337630,0.00260917,-0.00835404,-0.02507109,-0.01
 107726,0.04368448,0.12786543,0.12014569,-0.05419283,0.07332822,-0.0421
 3230,-0.02491910,0.01706013,-0.00980956,0.00403823,-0.00719046,0.00430
 096,0.00403237,-0.00731628,0.00403756,0.07376608,0.07222269,-0.2592842
 1,0.12056451,-0.00526464,0.00651311,-0.00337082,0.00016897,0.00201115,
 -0.00240382,0.00729756,-0.01757381,0.01371448,-0.07541568,0.26727469,-
 0.04148750,0.12056645,-0.11870859,0.00300956,-0.00335824,0.00257795,-0
 .00835342,0.02513156,-0.01097251,0.00407129,-0.01383523,0.00861575,0.0
 4333438,-0.12718154,0.11896571,-0.00116188,0.00000022,-0.00001237,-0.0
 0648298,-0.00000010,0.00000499,-0.00288959,-0.00000106,0.00044600,-0.0
 0286258,-0.00038082,-0.00022260,-0.00286197,0.00038173,-0.00022078,1.1
 4600822,0.00000102,-0.00437592,-0.00000013,-0.00000083,0.00233728,0.00
 000002,0.00000109,-0.00157775,-0.00000895,0.00043091,0.00135091,0.0016
 9981,-0.00043212,0.00136681,-0.00169079,-0.00004687,-0.00027333,-0.000
 04474,-0.00000013,-0.00439637,0.00002997,0.00000002,0.00234133,-0.0004
 9529,-0.00000898,0.00233466,0.00025138,0.00170031,-0.00058060,0.000249
 35,-0.00169125,-0.00059617,0.00151401,-0.00000003,-0.00027464,0.006470
 84,0.00000017,-0.00000631,-0.00669505,-0.00000006,0.00000210,0.0001402
 8,-0.00000157,0.00071127,0.00013728,-0.00060782,-0.00035646,0.00013723
 ,0.00060937,-0.00035351,-1.12974921,0.00004680,-0.00150467,1.12955863,
 -0.00000048,0.00099576,0.00000004,0.00000047,-0.00039448,0.,0.00000009
 ,0.00033279,0.00000190,0.00003374,-0.00030422,-0.00036973,-0.00003382,
 -0.00030775,0.00036779,0.00004689,0.00117201,0.00000007,-0.00004688,-0
 .00149412,0.00001757,0.00000004,0.00100143,-0.00001545,0.,-0.00039514,
 -0.00003985,0.00000194,-0.00051771,0.00001977,-0.00037042,0.00011447,0
 .00001961,0.00036844,0.00011786,-0.00150924,0.00000007,0.00117179,0.00
 150758,-0.00000007,-0.00149269\\-0.00464619,0.00000196,-0.00005596,0.0
 1390486,0.00000037,0.00001417,-0.00127196,0.00000146,-0.00066584,-0.00
 129701,0.00059464,0.00035768,-0.00129570,-0.00059854,0.00035615,-0.001
 42059,0.,-0.00000327,-0.00397340,0.00000010,-0.00000293\\\@


 IF YOU'RE NOT PART OF THE SOLUTION,
 THEN YOU'RE PART OF THE PRECIPITATE.
 Job cpu time:       0 days  0 hours  3 minutes 47.4 seconds.
 Elapsed time:       0 days  0 hours  0 minutes 10.0 seconds.
 File lengths (MBytes):  RWF=     88 Int=      0 D2E=      0 Chk=      2 Scr=      2
 Normal termination of Gaussian 16 at Sun Oct 13 09:52:02 2024.
