RxCoord=3.19893 DE=46.44                                                
Freq      RB3LYP                                                      6-31++G(d,p)        
Number of atoms                            I                7
Info1-9                                    I   N=           9
          16          16           0           0           0         100
           6          18        -502
Full Title                                 C   N=           2
RxCoord=3.19893 DE=46.44
Route                                      C   N=           6
#p b3lyp 6-31++g(d,p) scf=verytight NoSymm freq=noraman int=
ultrafine   
Charge                                     I               -1
Multiplicity                               I                1
Number of electrons                        I               40
Number of alpha electrons                  I               20
Number of beta electrons                   I               20
Number of basis functions                  I               98
Number of independent functions            I               98
Number of point charges in /Mol/           I                0
Number of translation vectors              I                0
Atomic numbers                             I   N=           7
           6          17           1           1           1           6
           7
Nuclear charges                            R   N=           7
  6.00000000E+00  1.70000000E+01  1.00000000E+00  1.00000000E+00  1.00000000E+00
  6.00000000E+00  7.00000000E+00
Current cartesian coordinates              R   N=          21
 -6.73804526E-01 -2.45664396E-05  1.35871308E-03 -4.13411227E+00 -5.66917837E-06
 -7.74787711E-05 -5.10188259E-02  4.48243037E-03 -1.95001217E+00 -5.31126425E-02
  1.68811124E+00  9.81725950E-01 -5.31126425E-02 -1.69268060E+00  9.73919491E-01
  4.67581360E+00  7.18095927E-05 -2.34515012E-03  6.90559405E+00 -2.07869874E-05
  6.33058252E-04
Number of symbols in /Mol/                 I                0
Force Field                                I                0
Atom Types                                 C   N=           7
                                                            
                        
Int Atom Types                             I   N=           7
           0           0           0           0           0           0
           0
MM charges                                 R   N=           7
  0.00000000E+00  0.00000000E+00  0.00000000E+00  0.00000000E+00  0.00000000E+00
  0.00000000E+00  0.00000000E+00
Integer atomic weights                     I   N=           7
          12          35           1           1           1          12
          14
Real atomic weights                        R   N=           7
  1.20000000E+01  3.49688527E+01  1.00782504E+00  1.00782504E+00  1.00782504E+00
  1.20000000E+01  1.40030740E+01
Atom fragment info                         I   N=           7
           0           0           0           0           0           0
           0
Atom residue num                           I   N=           7
           0           0           0           0           0           0
           0
Nuclear spins                              I   N=           7
           0           3           1           1           1           0
           2
Nuclear ZEff                               R   N=           7
 -3.60000000E+00 -1.42400000E+01 -1.00000000E+00 -1.00000000E+00 -1.00000000E+00
 -3.60000000E+00 -4.55000000E+00
Nuclear ZNuc                               R   N=           7
  6.00000000E+00  1.70000000E+01  1.00000000E+00  1.00000000E+00  1.00000000E+00
  6.00000000E+00  7.00000000E+00
Nuclear QMom                               R   N=           7
  0.00000000E+00 -8.16500000E+00  0.00000000E+00  0.00000000E+00  0.00000000E+00
  0.00000000E+00  2.04400000E+00
Nuclear GFac                               R   N=           7
  0.00000000E+00  8.21874000E-01  2.79284600E+00  2.79284600E+00  2.79284600E+00
  0.00000000E+00  4.03761000E-01
MicOpt                                     I   N=           7
          -1          -1          -1          -1          -1          -1
          -1
Number of residues                         I                0
Number of secondary structures             I                0
Number of contracted shells                I               33
Number of primitive shells                 I               72
Pure/Cartesian d shells                    I                1
Pure/Cartesian f shells                    I                0
Highest angular momentum                   I                2
Largest degree of contraction              I                6
Shell types                                I   N=          33
           0          -1          -1          -1           2           0
          -1          -1          -1          -1           2           0
           0           0           1           0           0           0
           1           0           0           0           1           0
          -1          -1          -1           2           0          -1
          -1          -1           2
Number of primitives per shell             I   N=          33
           6           3           1           1           1           6
           6           3           1           1           1           3
           1           1           1           3           1           1
           1           3           1           1           1           6
           3           1           1           1           6           3
           1           1           1
Shell to atom map                          I   N=          33
           1           1           1           1           1           2
           2           2           2           2           2           3
           3           3           3           4           4           4
           4           5           5           5           5           6
           6           6           6           6           7           7
           7           7           7
Primitive exponents                        R   N=          72
  3.04752488E+03  4.57369518E+02  1.03948685E+02  2.92101553E+01  9.28666296E+00
  3.16392696E+00  7.86827235E+00  1.88128854E+00  5.44249258E-01  1.68714478E-01
  4.38000000E-02  8.00000000E-01  2.51801000E+04  3.78035000E+03  8.60474000E+02
  2.42145000E+02  7.73349000E+01  2.62470000E+01  4.91765000E+02  1.16984000E+02
  3.74153000E+01  1.37834000E+01  5.45215000E+00  2.22588000E+00  3.18649000E+00
  1.14427000E+00  4.20377000E-01  1.42657000E-01  4.83000000E-02  7.50000000E-01
  1.87311370E+01  2.82539436E+00  6.40121692E-01  1.61277759E-01  3.60000000E-02
  1.10000000E+00  1.87311370E+01  2.82539436E+00  6.40121692E-01  1.61277759E-01
  3.60000000E-02  1.10000000E+00  1.87311370E+01  2.82539436E+00  6.40121692E-01
  1.61277759E-01  3.60000000E-02  1.10000000E+00  3.04752488E+03  4.57369518E+02
  1.03948685E+02  2.92101553E+01  9.28666296E+00  3.16392696E+00  7.86827235E+00
  1.88128854E+00  5.44249258E-01  1.68714478E-01  4.38000000E-02  8.00000000E-01
  4.17351146E+03  6.27457911E+02  1.42902093E+02  4.02343293E+01  1.28202129E+01
  4.39043701E+00  1.16263619E+01  2.71627981E+00  7.72218397E-01  2.12031498E-01
  6.39000000E-02  8.00000000E-01
Contraction coefficients                   R   N=          72
  1.83473713E-03  1.40373228E-02  6.88426223E-02  2.32184443E-01  4.67941348E-01
  3.62311985E-01 -1.19332420E-01 -1.60854152E-01  1.14345644E+00  1.00000000E+00
  1.00000000E+00  1.00000000E+00  1.83295985E-03  1.40341988E-02  6.90973943E-02
  2.37451980E-01  4.83033960E-01  3.39855972E-01 -2.29739142E-03 -3.07137189E-02
 -1.12528069E-01  4.50163278E-02  5.89353363E-01  4.65206287E-01 -2.51828028E-01
  6.15892514E-02  1.06018433E+00  1.00000000E+00  1.00000000E+00  1.00000000E+00
  3.34946043E-02  2.34726953E-01  8.13757326E-01  1.00000000E+00  1.00000000E+00
  1.00000000E+00  3.34946043E-02  2.34726953E-01  8.13757326E-01  1.00000000E+00
  1.00000000E+00  1.00000000E+00  3.34946043E-02  2.34726953E-01  8.13757326E-01
  1.00000000E+00  1.00000000E+00  1.00000000E+00  1.83473713E-03  1.40373228E-02
  6.88426223E-02  2.32184443E-01  4.67941348E-01  3.62311985E-01 -1.19332420E-01
 -1.60854152E-01  1.14345644E+00  1.00000000E+00  1.00000000E+00  1.00000000E+00
  1.83477216E-03  1.39946270E-02  6.85865518E-02  2.32240873E-01  4.69069948E-01
  3.60455199E-01 -1.14961182E-01 -1.69117479E-01  1.14585195E+00  1.00000000E+00
  1.00000000E+00  1.00000000E+00
P(S=P) Contraction coefficients            R   N=          72
  0.00000000E+00  0.00000000E+00  0.00000000E+00  0.00000000E+00  0.00000000E+00
  0.00000000E+00  6.89990666E-02  3.16423961E-01  7.44308291E-01  1.00000000E+00
  1.00000000E+00  0.00000000E+00  0.00000000E+00  0.00000000E+00  0.00000000E+00
  0.00000000E+00  0.00000000E+00  0.00000000E+00  3.98940088E-03  3.03177067E-02
  1.29880029E-01  3.27951072E-01  4.53527100E-01  2.52154056E-01 -1.42993147E-02
  3.23572333E-01  7.43507765E-01  1.00000000E+00  1.00000000E+00  0.00000000E+00
  0.00000000E+00  0.00000000E+00  0.00000000E+00  0.00000000E+00  0.00000000E+00
  0.00000000E+00  0.00000000E+00  0.00000000E+00  0.00000000E+00  0.00000000E+00
  0.00000000E+00  0.00000000E+00  0.00000000E+00  0.00000000E+00  0.00000000E+00
  0.00000000E+00  0.00000000E+00  0.00000000E+00  0.00000000E+00  0.00000000E+00
  0.00000000E+00  0.00000000E+00  0.00000000E+00  0.00000000E+00  6.89990666E-02
  3.16423961E-01  7.44308291E-01  1.00000000E+00  1.00000000E+00  0.00000000E+00
  0.00000000E+00  0.00000000E+00  0.00000000E+00  0.00000000E+00  0.00000000E+00
  0.00000000E+00  6.75797439E-02  3.23907296E-01  7.40895140E-01  1.00000000E+00
  1.00000000E+00  0.00000000E+00
Coordinates of each shell                  R   N=          99
 -6.73804526E-01 -2.45664396E-05  1.35871308E-03 -6.73804526E-01 -2.45664396E-05
  1.35871308E-03 -6.73804526E-01 -2.45664396E-05  1.35871308E-03 -6.73804526E-01
 -2.45664396E-05  1.35871308E-03 -6.73804526E-01 -2.45664396E-05  1.35871308E-03
 -4.13411227E+00 -5.66917837E-06 -7.74787711E-05 -4.13411227E+00 -5.66917837E-06
 -7.74787711E-05 -4.13411227E+00 -5.66917837E-06 -7.74787711E-05 -4.13411227E+00
 -5.66917837E-06 -7.74787711E-05 -4.13411227E+00 -5.66917837E-06 -7.74787711E-05
 -4.13411227E+00 -5.66917837E-06 -7.74787711E-05 -5.10188259E-02  4.48243037E-03
 -1.95001217E+00 -5.10188259E-02  4.48243037E-03 -1.95001217E+00 -5.10188259E-02
  4.48243037E-03 -1.95001217E+00 -5.10188259E-02  4.48243037E-03 -1.95001217E+00
 -5.31126425E-02  1.68811124E+00  9.81725950E-01 -5.31126425E-02  1.68811124E+00
  9.81725950E-01 -5.31126425E-02  1.68811124E+00  9.81725950E-01 -5.31126425E-02
  1.68811124E+00  9.81725950E-01 -5.31126425E-02 -1.69268060E+00  9.73919491E-01
 -5.31126425E-02 -1.69268060E+00  9.73919491E-01 -5.31126425E-02 -1.69268060E+00
  9.73919491E-01 -5.31126425E-02 -1.69268060E+00  9.73919491E-01  4.67581360E+00
  7.18095927E-05 -2.34515012E-03  4.67581360E+00  7.18095927E-05 -2.34515012E-03
  4.67581360E+00  7.18095927E-05 -2.34515012E-03  4.67581360E+00  7.18095927E-05
 -2.34515012E-03  4.67581360E+00  7.18095927E-05 -2.34515012E-03  6.90559405E+00
 -2.07869874E-05  6.33058252E-04  6.90559405E+00 -2.07869874E-05  6.33058252E-04
  6.90559405E+00 -2.07869874E-05  6.33058252E-04  6.90559405E+00 -2.07869874E-05
  6.33058252E-04  6.90559405E+00 -2.07869874E-05  6.33058252E-04
Num ILSW                                   I              100
ILSW                                       I   N=         100
           0           1           0           0           2           0
           0           0           0           0         402          -1
           5           0           0           0           2           0
           0           0           0           0           1           0
           1           1           0           0           0           0
           0           0      100000           0          -1           0
           0           0           0           0           0           0
           0           0           0           1           0           0
           0 -2000000000           1           0           0           0
           0           0           4          52           0           0
           0           0           5           0           0           0
           0           0           0           7           0           1
           0           0           0           0           0           0
           0           0           0           0           0           0
           0           0           0           0           0           0
           0           0           0           0           0           0
           0           0           0           0
Num RLSW                                   I               52
RLSW                                       R   N=          52
  8.00000000E-01  7.20000000E-01  1.00000000E+00  8.10000000E-01  2.00000000E-01
  0.00000000E+00  0.00000000E+00  1.00000000E+00  0.00000000E+00  0.00000000E+00
  0.00000000E+00  0.00000000E+00  1.00000000E+00  0.00000000E+00  0.00000000E+00
  0.00000000E+00  0.00000000E+00  1.00000000E+00  0.00000000E+00  0.00000000E+00
  0.00000000E+00  0.00000000E+00  1.00000000E+00  0.00000000E+00  0.00000000E+00
  0.00000000E+00  0.00000000E+00  1.00000000E+00  0.00000000E+00  0.00000000E+00
  0.00000000E+00  0.00000000E+00  1.00000000E+00  0.00000000E+00  0.00000000E+00
  0.00000000E+00  0.00000000E+00  0.00000000E+00  1.00000000E+00  1.00000000E+00
  0.00000000E+00  1.00000000E+00  0.00000000E+00  0.00000000E+00  0.00000000E+00
  0.00000000E+00  0.00000000E+00  0.00000000E+00  0.00000000E+00  0.00000000E+00
  0.00000000E+00  0.00000000E+00
MxBond                                     I                4
NBond                                      I   N=           7
           4           1           1           1           1           1
           1
IBond                                      I   N=          28
           2           3           4           5           1           0
           0           0           1           0           0           0
           1           0           0           0           1           0
           0           0           7           0           0           0
           6           0           0           0
RBond                                      R   N=          28
  1.00000000E+00  1.00000000E+00  1.00000000E+00  1.00000000E+00  1.00000000E+00
  0.00000000E+00  0.00000000E+00  0.00000000E+00  1.00000000E+00  0.00000000E+00
  0.00000000E+00  0.00000000E+00  1.00000000E+00  0.00000000E+00  0.00000000E+00
  0.00000000E+00  1.00000000E+00  0.00000000E+00  0.00000000E+00  0.00000000E+00
  2.00000000E+00  0.00000000E+00  0.00000000E+00  0.00000000E+00  2.00000000E+00
  0.00000000E+00  0.00000000E+00  0.00000000E+00
Virial Ratio                               R      2.004518234235869E+00
SCF Energy                                 R     -5.929940553879649E+02
Total Energy                               R     -5.929940553879649E+02
RMS Force                                  R      3.374488890355824E-03
RMS Density                                R      1.992051196074075E-09
NImag                                      I                2
Job Status                                 I                1
Nuclear derivative order                   I                2
External E-field                           R   N=          35
  0.00000000E+00  0.00000000E+00  0.00000000E+00  0.00000000E+00  0.00000000E+00
  0.00000000E+00  0.00000000E+00  0.00000000E+00  0.00000000E+00  0.00000000E+00
  0.00000000E+00  0.00000000E+00  0.00000000E+00  0.00000000E+00  0.00000000E+00
  0.00000000E+00  0.00000000E+00  0.00000000E+00  0.00000000E+00  0.00000000E+00
  0.00000000E+00  0.00000000E+00  0.00000000E+00  0.00000000E+00  0.00000000E+00
  0.00000000E+00  0.00000000E+00  0.00000000E+00  0.00000000E+00  0.00000000E+00
  0.00000000E+00  0.00000000E+00  0.00000000E+00  0.00000000E+00  0.00000000E+00
IOpCl                                      I                0
IROHF                                      I                0
Alpha Orbital Energies                     R   N=          98
 -1.01408624E+02 -1.40950008E+01 -1.00988170E+01 -9.95995048E+00 -9.32491842E+00
 -7.08787478E+00 -7.07958733E+00 -7.07958717E+00 -7.14578907E-01 -6.48270167E-01
 -5.38061430E-01 -3.06267832E-01 -3.06260379E-01 -2.75773088E-01 -1.82803910E-01
 -1.73993409E-01 -1.73989144E-01 -9.73415469E-02 -9.73411233E-02 -6.92250418E-02
  1.09552326E-01  1.28762562E-01  1.45326443E-01  1.45342101E-01  1.73189884E-01
  2.03692054E-01  2.03696224E-01  2.04601097E-01  2.20964324E-01  2.21074522E-01
  2.42032032E-01  2.49877875E-01  2.49930437E-01  2.71210340E-01  2.75508598E-01
  2.75573306E-01  3.14331956E-01  3.35903972E-01  3.36002948E-01  3.62062904E-01
  3.86164574E-01  3.86221018E-01  3.86970291E-01  4.65752515E-01  4.81190172E-01
  6.53508482E-01  7.32873241E-01  7.45553201E-01  7.45563734E-01  7.74631410E-01
  7.74686281E-01  8.80898716E-01  8.96900201E-01  8.96930740E-01  9.79599893E-01
  9.95243308E-01  9.95283152E-01  1.04583225E+00  1.04590040E+00  1.08501015E+00
  1.09673700E+00  1.09680294E+00  1.12517971E+00  1.19050088E+00  1.19054079E+00
  1.24489654E+00  1.26836651E+00  1.36926748E+00  1.47328717E+00  1.60438621E+00
  1.60441026E+00  1.76241102E+00  1.78155788E+00  1.78156059E+00  1.80412282E+00
  1.80414236E+00  2.15811655E+00  2.20160043E+00  2.20161657E+00  2.21956741E+00
  2.21958036E+00  2.29480005E+00  2.49316142E+00  2.49327143E+00  2.67244627E+00
  2.83294150E+00  2.83469680E+00  2.83472338E+00  2.95771968E+00  2.95773773E+00
  3.26049017E+00  3.38813642E+00  3.55892714E+00  3.55903665E+00  4.21236279E+00
  4.41621499E+00  4.45862444E+00  4.57295796E+00
Alpha MO coefficients                      R   N=        9604
 -6.32635131E-06  2.57867222E-05 -5.20153411E-05  5.48753984E-10 -3.25260016E-08
  1.12338170E-04 -3.96104812E-05  1.07379565E-09 -1.72356560E-08 -3.60674655E-05
 -1.03793395E-04 -2.25216636E-09  4.70341162E-08 -2.00559171E-05  1.25305740E-05
  1.25464189E-05  1.22812310E-10 -2.22772740E-08  9.00433695E-11  9.95996878E-01
  1.51508389E-02  3.97010623E-05 -3.26581740E-10  1.68818509E-08 -2.10650639E-02
 -1.76964970E-05  4.97950239E-12 -3.72192806E-09  1.88358132E-03 -5.12818691E-05
  5.30415306E-10 -3.38294999E-08 -4.32692429E-04 -2.73253632E-05  6.36744470E-10
 -2.88559341E-08  7.50243254E-03  7.52489429E-03  7.52489489E-03  1.53269334E-10
 -1.38606824E-08  1.25832039E-11 -2.69664520E-05 -3.10055352E-05  4.26138213E-05
  2.36143643E-05  2.79463428E-08 -1.21699783E-05 -2.70034818E-05 -3.08881993E-05
  4.24558732E-05  2.35870958E-05  1.05237352E-05  6.11868338E-06 -2.70032536E-05
 -3.08854016E-05  4.24504544E-05  2.35876619E-05 -1.05518259E-05  6.06976230E-06
 -5.31642939E-07  1.50565756E-06  4.18772394E-07  5.40071139E-10 -1.75369210E-08
 -1.15392570E-04 -9.64352843E-05  2.04262735E-09 -6.71592238E-08  3.90102230E-06
 -8.81613047E-05 -2.42132593E-09  9.54677716E-08 -1.11479397E-05  5.29667015E-07
  5.30970011E-07  5.99452047E-10 -1.84969845E-08  5.90615740E-12 -2.08462284E-06
 -8.23937019E-06 -1.08642763E-06  6.15673993E-12 -8.21647566E-10  1.22144814E-04
 -6.56676248E-05  3.01426891E-09 -9.44395923E-08  9.76145622E-05  1.22913952E-05
  3.37099222E-09 -1.17644164E-07  3.84753972E-06 -6.17582867E-06 -6.17609979E-06
 -6.81579748E-10  2.20089709E-08 -3.55184940E-12  3.59337827E-06  1.66169825E-05
  9.39267625E-07  4.23639838E-10 -1.53829835E-08 -3.31637346E-05 -3.11185745E-05
 -6.55055353E-10  5.55888706E-08  1.10632202E-03  8.76272590E-05  1.74862784E-08
 -6.41117845E-07 -6.87823187E-07  9.23582915E-06  9.22881268E-06 -1.35707988E-10
  3.14310054E-09  1.19673568E-11  1.26069638E-07  2.32682962E-06 -2.37123239E-07
  4.95266029E-11 -1.44868327E-09  5.48792146E-06  1.69772058E-06 -2.87410400E-10
  8.56729669E-09 -5.81893877E-05 -2.76026877E-05  1.21720500E-09 -4.58631679E-08
 -1.89936255E-04 -7.99708388E-05 -8.94650607E-09  2.92596548E-07  3.50036878E-06
  4.44383521E-06  4.44325895E-06 -5.55353040E-11  8.86818779E-10  5.74547176E-12
  9.22369085E-06 -4.98668580E-05 -1.78324344E-04  3.44686803E-07  7.35617597E-09
 -3.17920663E-06  9.21125344E-06 -4.97983119E-05 -1.78684015E-04  3.91814940E-07
  2.73550938E-06  1.58756605E-06  9.21048797E-06 -4.97939498E-05 -1.78703555E-04
  3.92700291E-07 -2.74228162E-06  1.57461768E-06  8.36993816E-05  2.08204257E-04
 -2.82851274E-04  1.14152082E-08 -3.65778080E-07 -2.49864565E-04 -4.25643697E-04
  1.95726838E-08 -6.35522771E-07  1.45746161E-03  1.01912527E-03 -3.92733361E-08
  1.20910412E-06 -7.59493321E-04 -1.33120847E-05 -1.33116987E-05  3.58566411E-08
 -1.15234041E-06  4.96738380E-11  9.92697904E-01  3.44439022E-02 -1.39926186E-03
  5.79880231E-08 -1.86799397E-06  5.21864695E-03  1.07063583E-04 -4.55084766E-09
  1.46727418E-07 -3.01331212E-03  5.87099721E-05 -4.64367777E-09  1.75140594E-07
 -7.70731379E-03 -8.42344777E-03 -8.42344726E-03 -3.41637540E-08  1.09839802E-06
 -5.65163292E-11  9.92991925E-01  4.96459244E-02 -7.09882373E-04 -1.26473668E-08
  7.11799820E-07 -1.65066739E-02  8.44679593E-04 -1.08689790E-08 -9.11636147E-07
  6.50411631E-03 -2.94937616E-03  1.06374118E-08 -1.42312163E-06 -9.28176834E-03
 -8.86211602E-03 -8.86230718E-03 -6.90977884E-10 -1.76103286E-07 -7.80441979E-10
 -9.16992889E-06 -4.86469183E-05 -2.20272621E-06 -6.04638657E-11 -1.35984827E-08
 -1.55822522E-05  1.85360167E-04 -5.78091085E-10  1.56024823E-07  3.18249652E-03
  1.84584908E-03 -1.23341323E-08  6.40077619E-07 -5.32212993E-03 -1.79334034E-03
  1.53348107E-08 -7.04222906E-07 -1.35497365E-04 -1.74412639E-04 -1.74370868E-04
 -3.60097159E-10 -2.60014862E-09 -4.09626910E-10 -1.52495900E-04  3.03291029E-03
 -9.03980857E-04  3.10863513E-05  2.22350486E-07 -9.57230664E-05 -1.52814512E-04
  3.03421286E-03 -9.04469989E-04  3.12817161E-05  8.31025592E-05  4.83159077E-05
 -1.52823020E-04  3.03419657E-03 -9.04465371E-04  3.12860500E-05 -8.33334646E-05
  4.79377460E-05 -1.89230361E-05 -6.15524233E-05  4.37142610E-05  5.07269290E-09
 -2.91323633E-07 -4.19201194E-04 -8.66459475E-04 -6.89468054E-10  5.74100617E-07
  1.55708456E-03  6.41586290E-04 -1.82638917E-08  1.62201899E-06 -3.42573661E-05
 -3.65509704E-05 -3.66297075E-05  5.09570714E-09 -2.04071786E-07 -3.85111769E-10
 -3.08458140E-05 -1.14841886E-04 -5.20549523E-06 -4.45487158E-09  1.75463931E-07
  1.20265817E-03 -3.58353462E-04  3.67938908E-08 -1.35381219E-06 -1.00039955E-03
 -1.93524141E-04 -2.01232380E-08  4.75806114E-09 -3.05452631E-05 -7.44289869E-05
 -7.44207002E-05 -2.83794097E-09  1.31735395E-07  4.15445946E-11 -1.91421638E-05
 -9.16263571E-05 -9.28615621E-05  7.45787369E-10 -5.48105339E-08  4.80881548E-04
  5.60410389E-04 -1.21947275E-08  9.70656984E-07 -1.84353917E-03  3.75833972E-03
  3.50447904E-09  2.75392177E-07 -2.21818525E-05 -3.11137338E-05 -3.11818501E-05
  1.94376594E-10  7.98522189E-09 -4.88201566E-10  1.35414798E-07  6.26929356E-06
  4.09825862E-06 -8.09538927E-11  9.24549085E-09  1.40575081E-05 -2.81559459E-05
  3.98020323E-10 -5.14636516E-08 -1.42617516E-04  3.14812396E-04 -4.29834253E-10
  1.36795185E-07  4.96596208E-03  1.17660144E-03 -1.49802292E-08  8.79983233E-07
  4.38757104E-05 -1.46849821E-06 -1.48212802E-06 -1.98100376E-10  2.20479996E-08
  3.48626311E-11 -3.44948156E-05 -4.76292814E-04 -1.44916752E-04 -3.54939664E-05
  3.70277464E-08 -1.56834494E-05 -3.43957396E-05 -4.77723867E-04 -1.42024897E-04
 -3.58112675E-05  1.37669124E-05  7.92420684E-06 -3.43962101E-05 -4.77741340E-04
 -1.41971841E-04 -3.58155154E-05 -1.38057900E-05  7.86281483E-06  9.92842126E-01
  4.93136072E-02  1.88489505E-03 -8.49113885E-08  2.75129037E-06 -1.10640604E-02
 -8.85644399E-04  6.55017053E-08 -2.20993204E-06 -6.51204166E-03 -7.31813994E-04
  1.41269437E-07 -5.46539770E-06 -8.45741835E-03 -9.70377768E-03 -9.70375661E-03
 -5.99627706E-08  1.94395193E-06  2.57683090E-11 -4.92781374E-04  3.46326532E-05
  4.41079772E-04 -1.76746809E-08  5.74681037E-07 -9.41497330E-04  4.63003613E-04
 -2.58265054E-08  7.99120949E-07  8.92414225E-03 -3.22491125E-03  9.01566399E-08
 -2.38636004E-06 -2.76276727E-04  1.64654535E-04  1.64653592E-04  2.32419458E-08
 -7.56133255E-07  3.75438855E-11 -1.08291810E-04  1.30699987E-04  3.64839491E-04
 -3.91006417E-10  4.01847824E-08  2.97217954E-03 -1.55610864E-03 -2.64064257E-08
  6.69099445E-07 -3.78809934E-02  3.60292666E-02  4.01906302E-08  4.13390281E-06
 -7.63277953E-04 -1.24438284E-04 -1.24486299E-04  3.65848067E-09 -2.65128595E-07
 -2.97818619E-09 -2.84604259E-01  1.02274359E+00  4.85507380E-03 -4.44425261E-08
  2.27112921E-06  7.60460252E-02  6.01332933E-04 -1.43586421E-09  1.55412513E-07
 -2.65557041E-02 -1.70078498E-03  6.51374903E-09 -4.77560132E-07  6.37407029E-02
  1.76522373E-02 -1.69887192E-07  1.08960966E-05 -1.51897005E-02 -1.55780262E-02
 -1.55780454E-02 -3.79502151E-09  2.55747786E-07 -1.76208785E-10 -4.00343125E-05
 -7.44863611E-04  1.07958377E-03 -7.25711800E-05 -2.52631557E-08  1.19830670E-05
 -3.98277256E-05 -7.47166683E-04  1.08332010E-03 -7.29836253E-05 -1.01499040E-05
 -6.03462070E-06 -3.98263715E-05 -7.47233504E-04  1.08347595E-03 -7.29816421E-05
  1.01742003E-05 -5.98287072E-06  1.49314774E-05  6.68972781E-05  4.55604564E-05
 -1.92434487E-08  7.25932193E-07  2.76083026E-04  5.48634514E-04  4.40809269E-08
 -1.77831605E-06 -1.94854860E-02  1.03264263E-02  6.05111697E-07 -2.47309706E-05
  8.46920282E-05  7.39497235E-06  7.40779446E-06 -4.79976211E-09  1.86484666E-07
  8.93329577E-11  1.09135765E-05  5.80922988E-05 -1.79392991E-05 -1.06800398E-08
  4.09171751E-07 -7.57682008E-04  5.59394452E-04  2.33172705E-08 -1.05925228E-06
  8.34779398E-04 -2.80997435E-03 -3.32320562E-07  1.35454490E-05 -4.63789289E-05
  2.90476470E-05  2.90465135E-05  8.31369115E-09 -3.00174155E-07  8.24516436E-11
  6.73215399E-05  1.58035079E-03  3.69341570E-04 -7.97808301E-09  4.87008618E-07
 -6.70854262E-04  1.64966818E-03  2.22112196E-08 -2.62183690E-06  4.84805769E-02
 -5.48929957E-02 -7.01207390E-08 -3.07468119E-06 -1.96175047E-03  2.01003721E-04
  2.01544985E-04  1.65233481E-08 -1.06383039E-06 -1.16798020E-09  1.43081055E-03
 -5.46014493E-03  9.90323980E-01 -7.33753915E-06  3.92810291E-04 -4.25460869E-04
  3.15065758E-02 -2.31242324E-07  1.26643538E-05  5.24415244E-03 -1.29311839E-02
  8.86152250E-08 -5.00521582E-06 -7.36094547E-02 -1.45298605E-02  2.19604140E-07
 -1.34540343E-05  7.49081403E-04 -4.70089920E-04 -4.70060711E-04 -7.58159104E-09
  6.03203693E-07 -6.37468021E-11 -1.73501560E-04  1.38152331E-03 -5.65038011E-03
 -3.22141408E-04  7.20518529E-08 -3.14728705E-05 -1.72473429E-04  1.38390040E-03
 -5.65025735E-03 -3.22624591E-04  2.68629612E-05  1.56781322E-05 -1.72476119E-04
  1.38391906E-03 -5.65025078E-03 -3.22618991E-04 -2.69311422E-05  1.55508166E-05
 -2.34631740E-05 -1.60196454E-04 -9.82705471E-05  2.26587268E-08 -8.67132165E-07
  2.82189551E-03  1.76602574E-03 -1.50602365E-07  5.25456800E-06  4.12552597E-02
 -1.69300970E-02 -1.09853068E-06  4.40641652E-05  1.35674742E-04 -4.34485268E-05
 -4.34594522E-05 -9.21270882E-09  2.30889552E-07 -1.60995917E-10 -7.96397538E-06
 -7.87632163E-06  3.90751923E-05  1.72258960E-08 -6.73083555E-07 -1.02644980E-03
  9.11361147E-04 -1.17583500E-07  4.39196865E-06 -8.48595326E-03  5.89778322E-03
  4.88874730E-07 -2.05886463E-05 -1.33803555E-04  7.10225039E-06  7.10927414E-06
  1.55156895E-09 -1.14118587E-08 -5.60222717E-11  1.00946841E-07  5.42480951E-07
  5.06090763E-07  1.12101300E-06 -8.40007365E-05 -2.78030987E-06 -3.11294005E-06
 -4.19508928E-06  3.14741524E-04  1.32512596E-05 -4.24379958E-05 -5.76663880E-06
  4.37569894E-04  6.68387187E-08 -8.52357424E-05  8.53531360E-05 -1.93269513E-06
  1.44755748E-04  6.30541467E-07  9.60849299E-08 -4.25131594E-07 -3.93166967E-04
 -1.32180408E-02  9.90753904E-01 -6.62631274E-08 -1.14889119E-05 -3.94923737E-04
  2.96017097E-02  1.60210843E-06  2.75570225E-06  1.55270598E-04 -1.16395372E-02
 -4.78988892E-05 -1.30927573E-05 -6.92314970E-05  5.19232458E-03 -5.04678187E-07
  4.90203695E-06 -4.78647512E-06 -4.29991997E-06  3.22328059E-04 -4.13451851E-08
  5.88468192E-05 -5.73485988E-04  4.71838923E-03  2.68161022E-04  3.94381051E-07
 -5.21707489E-05 -2.85464950E-05  2.85228129E-04 -2.31534765E-03 -1.31499210E-04
 -1.14917994E-05 -3.18145435E-05 -2.96682097E-05  2.96259756E-04 -2.40499915E-03
 -1.36621184E-04  1.26462588E-05 -3.20273072E-05 -3.56974507E-08 -9.68976505E-08
 -1.75011685E-07 -6.11077711E-07  4.59276852E-05 -9.47901596E-06 -7.83299905E-06
  2.36551207E-06 -1.78474119E-04  3.13353447E-05 -1.92454185E-05 -1.33935111E-05
  1.01524055E-03 -5.61972127E-07  3.60623017E-06 -3.42438634E-06  7.03273559E-08
 -5.39163833E-06 -2.51848033E-08 -2.65715736E-07 -1.05027746E-06  7.62799740E-08
  2.60088237E-07 -1.98746059E-05  1.22768965E-05 -6.01803401E-06 -1.59173893E-06
  1.21426039E-04 -8.70782858E-07  6.25405117E-06  5.39407542E-06 -4.12067436E-04
  9.92503466E-08  1.09070997E-06 -2.48876840E-06  1.70416606E-07 -1.28398573E-05
 -1.32001404E-08  1.23043269E-09  9.70368750E-09 -4.22250824E-09 -8.40750111E-05
 -1.12135568E-06 -4.76503165E-08  3.33587489E-08  3.13937188E-04  4.19238217E-06
  6.00550621E-08  1.05658181E-08  4.33883317E-04  5.85992869E-06 -1.86079360E-09
 -5.48918664E-07  5.47619108E-07  1.44844858E-04  1.93097733E-06 -9.86393719E-05
 -8.40250207E-10  2.42342274E-09  2.09579422E-06  9.90754018E-01  1.32180415E-02
 -1.45266518E-09  6.70861797E-08  2.96015163E-02  3.94929961E-04  2.55251413E-08
 -5.57965290E-09 -1.16387021E-02 -1.55293605E-04  2.71706369E-09 -1.74137639E-09
  5.19063735E-03  6.92916475E-05  5.45073056E-09  2.58539707E-08 -3.01102419E-08
  3.22345265E-04  4.30092454E-06  5.89500465E-06  6.45201411E-07 -6.34076603E-06
  5.21869708E-05  2.95550366E-06 -2.49427851E-05 -6.34308299E-07 -5.09195021E-05
  5.03269885E-04 -4.10087641E-03 -2.33799529E-04 -4.57899532E-05 -1.26049254E-05
  5.02788616E-05 -4.96883410E-04  4.04866036E-03  2.30831099E-04 -4.55820613E-05
  1.16884936E-05 -2.82724840E-10 -1.65562187E-09  1.90039963E-09  4.58465394E-05