RxCoord=3.29884 DE=46.31                                                
Freq      RB3LYP                                                      6-31++G(d,p)        
Number of atoms                            I                7
Info1-9                                    I   N=           9
          16          16           0           0           0         100
           6          18        -502
Full Title                                 C   N=           2
RxCoord=3.29884 DE=46.31
Route                                      C   N=           6
#p b3lyp 6-31++g(d,p) scf=verytight NoSymm freq=noraman int=
ultrafine   
Charge                                     I               -1
Multiplicity                               I                1
Number of electrons                        I               40
Number of alpha electrons                  I               20
Number of beta electrons                   I               20
Number of basis functions                  I               98
Number of independent functions            I               98
Number of point charges in /Mol/           I                0
Number of translation vectors              I                0
Atomic numbers                             I   N=           7
           6          17           1           1           1           6
           7
Nuclear charges                            R   N=           7
  6.00000000E+00  1.70000000E+01  1.00000000E+00  1.00000000E+00  1.00000000E+00
  6.00000000E+00  7.00000000E+00
Current cartesian coordinates              R   N=          21
 -6.83750155E-01 -2.64561657E-05  1.69697406E-03 -4.14218518E+00 -5.66917837E-06
 -1.00155485E-04 -5.38420767E-02  4.48620982E-03 -1.94980241E+00 -5.61343145E-02
  1.68827187E+00  9.82192712E-01 -5.61645501E-02 -1.69284312E+00  9.74380584E-01
  4.69153990E+00  7.55890450E-05 -2.74199261E-03  6.92144129E+00 -2.07869874E-05
  6.55734965E-04
Number of symbols in /Mol/                 I                0
Force Field                                I                0
Atom Types                                 C   N=           7
                                                            
                        
Int Atom Types                             I   N=           7
           0           0           0           0           0           0
           0
MM charges                                 R   N=           7
  0.00000000E+00  0.00000000E+00  0.00000000E+00  0.00000000E+00  0.00000000E+00
  0.00000000E+00  0.00000000E+00
Integer atomic weights                     I   N=           7
          12          35           1           1           1          12
          14
Real atomic weights                        R   N=           7
  1.20000000E+01  3.49688527E+01  1.00782504E+00  1.00782504E+00  1.00782504E+00
  1.20000000E+01  1.40030740E+01
Atom fragment info                         I   N=           7
           0           0           0           0           0           0
           0
Atom residue num                           I   N=           7
           0           0           0           0           0           0
           0
Nuclear spins                              I   N=           7
           0           3           1           1           1           0
           2
Nuclear ZEff                               R   N=           7
 -3.60000000E+00 -1.42400000E+01 -1.00000000E+00 -1.00000000E+00 -1.00000000E+00
 -3.60000000E+00 -4.55000000E+00
Nuclear ZNuc                               R   N=           7
  6.00000000E+00  1.70000000E+01  1.00000000E+00  1.00000000E+00  1.00000000E+00
  6.00000000E+00  7.00000000E+00
Nuclear QMom                               R   N=           7
  0.00000000E+00 -8.16500000E+00  0.00000000E+00  0.00000000E+00  0.00000000E+00
  0.00000000E+00  2.04400000E+00
Nuclear GFac                               R   N=           7
  0.00000000E+00  8.21874000E-01  2.79284600E+00  2.79284600E+00  2.79284600E+00
  0.00000000E+00  4.03761000E-01
MicOpt                                     I   N=           7
          -1          -1          -1          -1          -1          -1
          -1
Number of residues                         I                0
Number of secondary structures             I                0
Number of contracted shells                I               33
Number of primitive shells                 I               72
Pure/Cartesian d shells                    I                1
Pure/Cartesian f shells                    I                0
Highest angular momentum                   I                2
Largest degree of contraction              I                6
Shell types                                I   N=          33
           0          -1          -1          -1           2           0
          -1          -1          -1          -1           2           0
           0           0           1           0           0           0
           1           0           0           0           1           0
          -1          -1          -1           2           0          -1
          -1          -1           2
Number of primitives per shell             I   N=          33
           6           3           1           1           1           6
           6           3           1           1           1           3
           1           1           1           3           1           1
           1           3           1           1           1           6
           3           1           1           1           6           3
           1           1           1
Shell to atom map                          I   N=          33
           1           1           1           1           1           2
           2           2           2           2           2           3
           3           3           3           4           4           4
           4           5           5           5           5           6
           6           6           6           6           7           7
           7           7           7
Primitive exponents                        R   N=          72
  3.04752488E+03  4.57369518E+02  1.03948685E+02  2.92101553E+01  9.28666296E+00
  3.16392696E+00  7.86827235E+00  1.88128854E+00  5.44249258E-01  1.68714478E-01
  4.38000000E-02  8.00000000E-01  2.51801000E+04  3.78035000E+03  8.60474000E+02
  2.42145000E+02  7.73349000E+01  2.62470000E+01  4.91765000E+02  1.16984000E+02
  3.74153000E+01  1.37834000E+01  5.45215000E+00  2.22588000E+00  3.18649000E+00
  1.14427000E+00  4.20377000E-01  1.42657000E-01  4.83000000E-02  7.50000000E-01
  1.87311370E+01  2.82539436E+00  6.40121692E-01  1.61277759E-01  3.60000000E-02
  1.10000000E+00  1.87311370E+01  2.82539436E+00  6.40121692E-01  1.61277759E-01
  3.60000000E-02  1.10000000E+00  1.87311370E+01  2.82539436E+00  6.40121692E-01
  1.61277759E-01  3.60000000E-02  1.10000000E+00  3.04752488E+03  4.57369518E+02
  1.03948685E+02  2.92101553E+01  9.28666296E+00  3.16392696E+00  7.86827235E+00
  1.88128854E+00  5.44249258E-01  1.68714478E-01  4.38000000E-02  8.00000000E-01
  4.17351146E+03  6.27457911E+02  1.42902093E+02  4.02343293E+01  1.28202129E+01
  4.39043701E+00  1.16263619E+01  2.71627981E+00  7.72218397E-01  2.12031498E-01
  6.39000000E-02  8.00000000E-01
Contraction coefficients                   R   N=          72
  1.83473713E-03  1.40373228E-02  6.88426223E-02  2.32184443E-01  4.67941348E-01
  3.62311985E-01 -1.19332420E-01 -1.60854152E-01  1.14345644E+00  1.00000000E+00
  1.00000000E+00  1.00000000E+00  1.83295985E-03  1.40341988E-02  6.90973943E-02
  2.37451980E-01  4.83033960E-01  3.39855972E-01 -2.29739142E-03 -3.07137189E-02
 -1.12528069E-01  4.50163278E-02  5.89353363E-01  4.65206287E-01 -2.51828028E-01
  6.15892514E-02  1.06018433E+00  1.00000000E+00  1.00000000E+00  1.00000000E+00
  3.34946043E-02  2.34726953E-01  8.13757326E-01  1.00000000E+00  1.00000000E+00
  1.00000000E+00  3.34946043E-02  2.34726953E-01  8.13757326E-01  1.00000000E+00
  1.00000000E+00  1.00000000E+00  3.34946043E-02  2.34726953E-01  8.13757326E-01
  1.00000000E+00  1.00000000E+00  1.00000000E+00  1.83473713E-03  1.40373228E-02
  6.88426223E-02  2.32184443E-01  4.67941348E-01  3.62311985E-01 -1.19332420E-01
 -1.60854152E-01  1.14345644E+00  1.00000000E+00  1.00000000E+00  1.00000000E+00
  1.83477216E-03  1.39946270E-02  6.85865518E-02  2.32240873E-01  4.69069948E-01
  3.60455199E-01 -1.14961182E-01 -1.69117479E-01  1.14585195E+00  1.00000000E+00
  1.00000000E+00  1.00000000E+00
P(S=P) Contraction coefficients            R   N=          72
  0.00000000E+00  0.00000000E+00  0.00000000E+00  0.00000000E+00  0.00000000E+00
  0.00000000E+00  6.89990666E-02  3.16423961E-01  7.44308291E-01  1.00000000E+00
  1.00000000E+00  0.00000000E+00  0.00000000E+00  0.00000000E+00  0.00000000E+00
  0.00000000E+00  0.00000000E+00  0.00000000E+00  3.98940088E-03  3.03177067E-02
  1.29880029E-01  3.27951072E-01  4.53527100E-01  2.52154056E-01 -1.42993147E-02
  3.23572333E-01  7.43507765E-01  1.00000000E+00  1.00000000E+00  0.00000000E+00
  0.00000000E+00  0.00000000E+00  0.00000000E+00  0.00000000E+00  0.00000000E+00
  0.00000000E+00  0.00000000E+00  0.00000000E+00  0.00000000E+00  0.00000000E+00
  0.00000000E+00  0.00000000E+00  0.00000000E+00  0.00000000E+00  0.00000000E+00
  0.00000000E+00  0.00000000E+00  0.00000000E+00  0.00000000E+00  0.00000000E+00
  0.00000000E+00  0.00000000E+00  0.00000000E+00  0.00000000E+00  6.89990666E-02
  3.16423961E-01  7.44308291E-01  1.00000000E+00  1.00000000E+00  0.00000000E+00
  0.00000000E+00  0.00000000E+00  0.00000000E+00  0.00000000E+00  0.00000000E+00
  0.00000000E+00  6.75797439E-02  3.23907296E-01  7.40895140E-01  1.00000000E+00
  1.00000000E+00  0.00000000E+00
Coordinates of each shell                  R   N=          99
 -6.83750155E-01 -2.64561657E-05  1.69697406E-03 -6.83750155E-01 -2.64561657E-05
  1.69697406E-03 -6.83750155E-01 -2.64561657E-05  1.69697406E-03 -6.83750155E-01
 -2.64561657E-05  1.69697406E-03 -6.83750155E-01 -2.64561657E-05  1.69697406E-03
 -4.14218518E+00 -5.66917837E-06 -1.00155485E-04 -4.14218518E+00 -5.66917837E-06
 -1.00155485E-04 -4.14218518E+00 -5.66917837E-06 -1.00155485E-04 -4.14218518E+00
 -5.66917837E-06 -1.00155485E-04 -4.14218518E+00 -5.66917837E-06 -1.00155485E-04
 -4.14218518E+00 -5.66917837E-06 -1.00155485E-04 -5.38420767E-02  4.48620982E-03
 -1.94980241E+00 -5.38420767E-02  4.48620982E-03 -1.94980241E+00 -5.38420767E-02
  4.48620982E-03 -1.94980241E+00 -5.38420767E-02  4.48620982E-03 -1.94980241E+00
 -5.61343145E-02  1.68827187E+00  9.82192712E-01 -5.61343145E-02  1.68827187E+00
  9.82192712E-01 -5.61343145E-02  1.68827187E+00  9.82192712E-01 -5.61343145E-02
  1.68827187E+00  9.82192712E-01 -5.61645501E-02 -1.69284312E+00  9.74380584E-01
 -5.61645501E-02 -1.69284312E+00  9.74380584E-01 -5.61645501E-02 -1.69284312E+00
  9.74380584E-01 -5.61645501E-02 -1.69284312E+00  9.74380584E-01  4.69153990E+00
  7.55890450E-05 -2.74199261E-03  4.69153990E+00  7.55890450E-05 -2.74199261E-03
  4.69153990E+00  7.55890450E-05 -2.74199261E-03  4.69153990E+00  7.55890450E-05
 -2.74199261E-03  4.69153990E+00  7.55890450E-05 -2.74199261E-03  6.92144129E+00
 -2.07869874E-05  6.55734965E-04  6.92144129E+00 -2.07869874E-05  6.55734965E-04
  6.92144129E+00 -2.07869874E-05  6.55734965E-04  6.92144129E+00 -2.07869874E-05
  6.55734965E-04  6.92144129E+00 -2.07869874E-05  6.55734965E-04
Num ILSW                                   I              100
ILSW                                       I   N=         100
           0           1           0           0           2           0
           0           0           0           0         402          -1
           5           0           0           0           2           0
           0           0           0           0           1           0
           1           1           0           0           0           0
           0           0      100000           0          -1           0
           0           0           0           0           0           0
           0           0           0           1           0           0
           0 -2000000000           1           0           0           0
           0           0           4          52           0           0
           0           0           5           0           0           0
           0           0           0           7           0           1
           0           0           0           0           0           0
           0           0           0           0           0           0
           0           0           0           0           0           0
           0           0           0           0           0           0
           0           0           0           0
Num RLSW                                   I               52
RLSW                                       R   N=          52
  8.00000000E-01  7.20000000E-01  1.00000000E+00  8.10000000E-01  2.00000000E-01
  0.00000000E+00  0.00000000E+00  1.00000000E+00  0.00000000E+00  0.00000000E+00
  0.00000000E+00  0.00000000E+00  1.00000000E+00  0.00000000E+00  0.00000000E+00
  0.00000000E+00  0.00000000E+00  1.00000000E+00  0.00000000E+00  0.00000000E+00
  0.00000000E+00  0.00000000E+00  1.00000000E+00  0.00000000E+00  0.00000000E+00
  0.00000000E+00  0.00000000E+00  1.00000000E+00  0.00000000E+00  0.00000000E+00
  0.00000000E+00  0.00000000E+00  1.00000000E+00  0.00000000E+00  0.00000000E+00
  0.00000000E+00  0.00000000E+00  0.00000000E+00  1.00000000E+00  1.00000000E+00
  0.00000000E+00  1.00000000E+00  0.00000000E+00  0.00000000E+00  0.00000000E+00
  0.00000000E+00  0.00000000E+00  0.00000000E+00  0.00000000E+00  0.00000000E+00
  0.00000000E+00  0.00000000E+00
MxBond                                     I                4
NBond                                      I   N=           7
           4           1           1           1           1           1
           1
IBond                                      I   N=          28
           2           3           4           5           1           0
           0           0           1           0           0           0
           1           0           0           0           1           0
           0           0           7           0           0           0
           6           0           0           0
RBond                                      R   N=          28
  1.00000000E+00  1.00000000E+00  1.00000000E+00  1.00000000E+00  1.00000000E+00
  0.00000000E+00  0.00000000E+00  0.00000000E+00  1.00000000E+00  0.00000000E+00
  0.00000000E+00  0.00000000E+00  1.00000000E+00  0.00000000E+00  0.00000000E+00
  0.00000000E+00  1.00000000E+00  0.00000000E+00  0.00000000E+00  0.00000000E+00
  2.00000000E+00  0.00000000E+00  0.00000000E+00  0.00000000E+00  2.00000000E+00
  0.00000000E+00  0.00000000E+00  0.00000000E+00
Virial Ratio                               R      2.004531560289409E+00
SCF Energy                                 R     -5.929941861017406E+02
Total Energy                               R     -5.929941861017406E+02
RMS Force                                  R      3.358955985390069E-03
RMS Density                                R      1.987496668290220E-09
NImag                                      I                2
Job Status                                 I                1
Nuclear derivative order                   I                2
External E-field                           R   N=          35
  0.00000000E+00  0.00000000E+00  0.00000000E+00  0.00000000E+00  0.00000000E+00
  0.00000000E+00  0.00000000E+00  0.00000000E+00  0.00000000E+00  0.00000000E+00
  0.00000000E+00  0.00000000E+00  0.00000000E+00  0.00000000E+00  0.00000000E+00
  0.00000000E+00  0.00000000E+00  0.00000000E+00  0.00000000E+00  0.00000000E+00
  0.00000000E+00  0.00000000E+00  0.00000000E+00  0.00000000E+00  0.00000000E+00
  0.00000000E+00  0.00000000E+00  0.00000000E+00  0.00000000E+00  0.00000000E+00
  0.00000000E+00  0.00000000E+00  0.00000000E+00  0.00000000E+00  0.00000000E+00
IOpCl                                      I                0
IROHF                                      I                0
Alpha Orbital Energies                     R   N=          98
 -1.01409432E+02 -1.40948531E+01 -1.00994052E+01 -9.95987875E+00 -9.32570583E+00
 -7.08868377E+00 -7.08036589E+00 -7.08036576E+00 -7.15230173E-01 -6.48085284E-01
 -5.38237640E-01 -3.06165822E-01 -3.06153554E-01 -2.76609004E-01 -1.82716943E-01
 -1.74496248E-01 -1.74493914E-01 -9.71649832E-02 -9.71645189E-02 -6.91242844E-02
  1.09370174E-01  1.28367844E-01  1.45184587E-01  1.45204317E-01  1.73208379E-01
  2.03469452E-01  2.03474509E-01  2.04259103E-01  2.20899643E-01  2.21023935E-01
  2.41765474E-01  2.49704452E-01  2.49766842E-01  2.71020047E-01  2.75574436E-01
  2.75648573E-01  3.14185172E-01  3.35241168E-01  3.35351150E-01  3.61764342E-01
  3.86091675E-01  3.86159700E-01  3.87127898E-01  4.65519508E-01  4.80995887E-01
  6.51837679E-01  7.31858525E-01  7.45074340E-01  7.45088340E-01  7.74392851E-01
  7.74457588E-01  8.80178147E-01  8.96859968E-01  8.96893285E-01  9.78751788E-01
  9.94689660E-01  9.94730129E-01  1.04534039E+00  1.04541049E+00  1.08440117E+00
  1.09609898E+00  1.09616355E+00  1.12538409E+00  1.19041391E+00  1.19046091E+00
  1.24147127E+00  1.26749902E+00  1.36963307E+00  1.47160233E+00  1.60356459E+00
  1.60357751E+00  1.75918041E+00  1.78173596E+00  1.78173903E+00  1.80424738E+00
  1.80426943E+00  2.15823544E+00  2.20171945E+00  2.20173831E+00  2.21924782E+00
  2.21926706E+00  2.29416356E+00  2.48917662E+00  2.48927882E+00  2.67338007E+00
  2.83203300E+00  2.83481226E+00  2.83483974E+00  2.95493029E+00  2.95495958E+00
  3.25986938E+00  3.38353326E+00  3.55667730E+00  3.55680102E+00  4.21187423E+00
  4.41499814E+00  4.45798403E+00  4.57228182E+00
Alpha MO coefficients                      R   N=        9604
 -6.34509946E-06  2.61680750E-05 -5.21578100E-05  3.64567366E-10 -3.78484216E-08
  1.12926644E-04 -3.79034557E-05  8.75021969E-10 -2.75385691E-08 -3.47608845E-05
 -9.99796165E-05 -1.73599675E-09  5.85357390E-08 -2.06936252E-05  1.24063855E-05
  1.24205621E-05  3.41868072E-10 -2.56412789E-08 -2.11753353E-10  9.95996884E-01
  1.51507978E-02  3.98691156E-05 -2.80188508E-10  2.22666278E-08 -2.10651857E-02
 -1.76472248E-05  2.31185497E-11 -5.02208538E-09  1.88424389E-03 -5.06450186E-05
  5.11398724E-10 -4.04700971E-08 -4.29508597E-04 -2.68563950E-05  6.21626721E-10
 -3.44933478E-08  7.50263675E-03  7.52486057E-03  7.52486135E-03  1.89034345E-10
 -1.64134304E-08  9.64802874E-12 -2.69041922E-05 -3.14526577E-05  4.26418477E-05
  2.37687814E-05  2.79567962E-08 -1.21746085E-05 -2.69416867E-05 -3.13172169E-05
  4.24469955E-05  2.37452287E-05  1.05283288E-05  6.12465628E-06 -2.69426763E-05
 -3.13140233E-05  4.24428719E-05  2.37450061E-05 -1.05565874E-05  6.07573338E-06
 -4.85968644E-07  1.56968485E-06  3.42273831E-07  5.39019768E-10 -1.97716398E-08
 -1.13806494E-04 -9.41117653E-05  2.15513208E-09 -7.51169860E-08  7.65812179E-08
 -8.58148299E-05 -2.43371433E-09  1.09314824E-07 -1.09069280E-05  6.15694002E-07
  6.17141473E-07  6.00655968E-10 -2.07581181E-08  1.07494871E-11 -2.03516672E-06
 -8.04302908E-06 -1.04602245E-06  1.52768085E-11 -1.03545339E-09  1.19394319E-04
 -6.44917680E-05  3.03626140E-09 -1.04973424E-07  9.72602907E-05  1.17400844E-05
  3.43505876E-09 -1.34551380E-07  3.81402851E-06 -6.04847823E-06 -6.04878721E-06
 -6.92754284E-10  2.46811182E-08 -3.86562229E-12  3.66647527E-06  1.64609645E-05
  1.51761103E-06  4.57027709E-10 -1.76697160E-08 -3.42199180E-05 -3.24658408E-05
 -1.12028502E-09  5.91151829E-08  1.09546636E-03  8.83699811E-05  1.90811298E-08
 -7.46668975E-07 -2.95766360E-08  9.36454282E-06  9.35674410E-06 -1.05743134E-10
  3.98010140E-09 -4.32278949E-11  1.28517135E-07  2.35550612E-06 -2.27007984E-07
  4.38726195E-11 -1.74519738E-09  5.63895101E-06  1.67822654E-06 -2.56615030E-10
  1.03247377E-08 -5.89476769E-05 -2.82377601E-05  1.16867923E-09 -5.50605358E-08
 -1.87192935E-04 -7.89606002E-05 -9.48741765E-09  3.35266659E-07  3.37386139E-06
  4.51925303E-06  4.51876469E-06 -6.37084513E-11  7.20977680E-10 -6.94613624E-12
  9.40442845E-06 -4.89827789E-05 -1.77183091E-04  5.05151884E-07  7.14070528E-09
 -3.07134154E-06  9.38841916E-06 -4.88967325E-05 -1.77610941E-04  5.58618249E-07
  2.63971634E-06  1.53194054E-06  9.38759406E-06 -4.88929580E-05 -1.77628125E-04
  5.59730304E-07 -2.64629317E-06  1.51949358E-06  8.36665163E-05  2.08342952E-04
 -2.82575698E-04  1.18669984E-08 -4.17042400E-07 -2.49441549E-04 -4.25534365E-04
  2.03340300E-08 -7.24419076E-07  1.46024181E-03  1.01553063E-03 -3.98242494E-08
  1.37773194E-06 -7.59281453E-04 -1.33599117E-05 -1.33597524E-05  3.72886450E-08
 -1.31413091E-06  6.44855640E-11  9.92698011E-01  3.44434449E-02 -1.39883836E-03
  6.03530885E-08 -2.13080264E-06  5.21772425E-03  1.07071974E-04 -4.67872116E-09
  1.67628452E-07 -3.01152921E-03  5.94780907E-05 -5.33709381E-09  1.99398180E-07
 -7.70733986E-03 -8.42317614E-03 -8.42317536E-03 -3.55450286E-08  1.25253052E-06
 -6.26679513E-11  9.92992724E-01  4.96287929E-02 -7.14231313E-04 -1.77267711E-08
  7.94411617E-07 -1.64757009E-02  8.51359867E-04  8.24427199E-09 -8.10813815E-07
  6.58372202E-03 -3.00001287E-03  2.25539124E-09 -1.63928832E-06 -9.27604884E-03
 -8.86228719E-03 -8.86254099E-03  1.92593680E-10 -1.84222163E-07 -5.81358079E-09
 -9.20844144E-06 -4.88319038E-05 -1.77265183E-06  2.71617910E-10 -1.26135840E-08
 -1.43390129E-05  1.83629550E-04 -2.77724753E-09  1.68570805E-07  3.19127851E-03
  1.84862777E-03 -6.44419677E-09  8.62365079E-07 -5.39981503E-03 -1.81148434E-03
  1.36979200E-08 -9.74635773E-07 -1.38798847E-04 -1.75335297E-04 -1.75295162E-04
  7.68533096E-10  2.85180245E-09  4.41115579E-10 -1.52008761E-04  3.02059145E-03
 -9.15051229E-04  3.06748506E-05  2.20235894E-07 -9.58064298E-05 -1.52419178E-04
  3.02191919E-03 -9.15549311E-04  3.08906923E-05  8.32227816E-05  4.83834203E-05
 -1.52434073E-04  3.02194898E-03 -9.15603719E-04  3.08966373E-05 -8.34512069E-05
  4.79999636E-05 -1.90147289E-05 -5.90211551E-05  4.33963970E-05  6.50501663E-09
 -3.31937104E-07 -3.98455479E-04 -8.38064632E-04 -5.77857422E-09  6.73191136E-07
  1.60537768E-03  6.19879887E-04 -3.44878403E-08  1.89833893E-06 -3.64731521E-05
 -3.61899008E-05 -3.62780956E-05  5.47180283E-09 -2.26499706E-07 -5.63021806E-10
 -3.02136272E-05 -1.11803302E-04 -6.07130442E-06 -4.65389834E-09  1.95268431E-07
  1.17130909E-03 -3.44519622E-04  3.80754855E-08 -1.51106650E-06 -1.02108342E-03
 -1.83041876E-04 -1.08585254E-08  3.46387137E-09 -2.98789785E-05 -7.31381533E-05
 -7.31287672E-05 -3.34693825E-09  1.49420925E-07  3.73292877E-11 -1.86507720E-05
 -8.91722375E-05 -9.18883647E-05  8.14974603E-10 -5.80894282E-08  4.81103861E-04
  5.47914033E-04 -1.59175691E-08  1.09373024E-06 -1.75080590E-03  3.56895245E-03
  5.38964643E-09  4.16242171E-07 -2.44866581E-05 -3.07353863E-05 -3.08158329E-05
  6.12686034E-11  7.77312651E-09 -6.50254466E-10  1.31257619E-07  6.21097299E-06
  3.97169966E-06 -1.47819137E-10  1.03517030E-08  1.38250582E-05 -2.73982932E-05
  8.07506450E-10 -5.75868809E-08 -1.41115638E-04  3.04695043E-04 -1.75454482E-09
  1.58891504E-07  4.75251503E-03  1.12715933E-03 -1.46953231E-08  1.03280107E-06
  4.30010278E-05 -1.33084994E-06 -1.34538841E-06 -3.79851776E-10  2.66025328E-08
 -8.68640744E-11 -3.40194387E-05 -4.74713066E-04 -1.61716415E-04 -3.54995434E-05
  3.83100438E-08 -1.61367558E-05 -3.39029918E-05 -4.76343355E-04 -1.58455696E-04
 -3.58502620E-05  1.41876894E-05  8.16069029E-06 -3.39015015E-05 -4.76369429E-04
 -1.58384460E-04 -3.58568095E-05 -1.42281240E-05  8.09781318E-06  9.92842441E-01
  4.93086731E-02  1.88451918E-03 -8.81517764E-08  3.13227399E-06 -1.10865104E-02
 -9.10099279E-04  6.86946471E-08 -2.53256525E-06 -6.34766196E-03 -8.15415967E-04
  1.47596826E-07 -6.18802927E-06 -8.45842955E-03 -9.70256583E-03 -9.70254195E-03
 -6.23651236E-08  2.21188657E-06  5.59670954E-11 -4.93196228E-04  3.18264672E-05
  4.41130894E-04 -1.83813457E-08  6.56023373E-07 -9.06676069E-04  4.46518328E-04
 -2.60754306E-08  8.83856628E-07  8.91650153E-03 -3.20144634E-03  9.32719467E-08
 -2.74598665E-06 -2.76052900E-04  1.62936820E-04  1.62935599E-04  2.40765439E-08
 -8.57961850E-07  4.63571947E-11 -1.09165052E-04  1.28306481E-04  3.66133693E-04
 -8.89567079E-11  6.09805821E-08  2.99176245E-03 -1.55767689E-03 -1.88184848E-08
  8.51626964E-07 -3.79821660E-02  3.57147403E-02  2.40005974E-08  5.45744579E-06
 -7.66093752E-04 -1.24750583E-04 -1.24848955E-04  3.95519728E-09 -3.40540363E-07
 -6.65556600E-10 -2.84604378E-01  1.02274400E+00  4.87852077E-03 -3.88517185E-08
  2.96395244E-06  7.60418396E-02  6.03460455E-04 -1.59985151E-09  2.03680247E-07
 -2.65536865E-02 -1.70957685E-03  5.12466355E-09 -6.43857293E-07  6.35143178E-02
  1.76004957E-02 -1.82902240E-07  1.34967898E-05 -1.51875951E-02 -1.55776274E-02
 -1.55776522E-02 -4.44783369E-09  3.17144919E-07 -2.67426062E-10 -4.05867228E-05
 -7.48054318E-04  1.05762173E-03 -7.10741675E-05 -2.51347894E-08  1.18797565E-05
 -4.03604394E-05 -7.50998280E-04  1.06244181E-03 -7.14752686E-05 -1.00106947E-05
 -5.98466679E-06 -4.03541880E-05 -7.51057088E-04  1.06256359E-03 -7.14826068E-05
  1.00357652E-05 -5.93420856E-06  1.46300947E-05  6.57512385E-05  4.56370662E-05
 -2.06685512E-08  8.35024987E-07  2.90559827E-04  5.53432238E-04  4.82651740E-08
 -2.03318028E-06 -1.90826867E-02  1.01846392E-02  6.27946775E-07 -2.92678289E-05
  8.37097317E-05  6.82565056E-06  6.83949023E-06 -5.08042268E-09  2.20722692E-07
  1.45445696E-10  1.10509514E-05  5.85978036E-05 -1.79703783E-05 -1.09028843E-08
  4.82782920E-07 -7.63980164E-04  5.61204700E-04  2.30298704E-08 -1.29040845E-06
  8.02490408E-04 -2.78413265E-03 -3.47518226E-07  1.60593688E-05 -4.59458260E-05
  2.93380696E-05  2.93369152E-05  8.89938979E-09 -3.45213225E-07  7.02975767E-11
  6.66348314E-05  1.57951486E-03  3.77779920E-04 -9.08880522E-09  5.87603191E-07
 -6.49878227E-04  1.62269979E-03  5.06375873E-08 -2.81771775E-06  4.86134363E-02
 -5.42944579E-02 -7.72744168E-08 -4.73880291E-06 -1.96799973E-03  2.01249019E-04
  2.01809788E-04  1.54265915E-08 -1.34379996E-06  3.86068302E-09  1.43754606E-03
 -5.48389982E-03  9.90323966E-01 -6.13600252E-06  5.13228000E-04 -4.25154053E-04
  3.15044510E-02 -1.97028702E-07  1.64747414E-05  5.21035624E-03 -1.29344651E-02
  7.56820395E-08 -6.49276409E-06 -7.31474128E-02 -1.44185105E-02  2.39667118E-07
 -1.65119172E-05  7.52518577E-04 -4.68817399E-04 -4.68783889E-04 -8.84067474E-09
  7.45629799E-07  1.61906389E-10 -1.73495496E-04  1.36472767E-03 -5.60721079E-03
 -3.18533560E-04  7.04708579E-08 -3.13403493E-05 -1.72513995E-04  1.36750931E-03
 -5.60661337E-03 -3.18957874E-04  2.66822957E-05  1.55714790E-05 -1.72497487E-04
  1.36756165E-03 -5.60666205E-03 -3.18965033E-04 -2.67503668E-05  1.54435849E-05
 -2.32111434E-05 -1.59114116E-04 -9.75299817E-05  2.41807533E-08 -1.00550473E-06
  2.74429715E-03  1.70842990E-03 -1.57172390E-07  5.95545951E-06  4.04914467E-02
 -1.67023649E-02 -1.13701443E-06  5.19483399E-05  1.34762528E-04 -4.27383561E-05
 -4.27486552E-05 -9.06624394E-09  2.42035515E-07 -2.14150425E-10 -9.16342479E-06
 -1.31171305E-05  3.90437116E-05  1.76006908E-08 -7.90483481E-07 -9.56754492E-04
  8.78716069E-04 -1.19497463E-07  5.08551380E-06 -8.37373204E-03  5.85329929E-03
  5.11017527E-07 -2.45131417E-05 -1.33685019E-04  4.31178974E-06  4.32007037E-06
  1.21147920E-09 -5.40009864E-10 -5.80287148E-11  9.73594638E-08  4.96440331E-07
  5.90016253E-07  1.74489607E-07 -8.34617082E-05 -2.64381443E-06 -3.68131740E-06
 -6.69765330E-07  3.25199358E-04  1.43110675E-05 -4.66851951E-05 -8.91149762E-07
  4.34780658E-04  7.59751428E-08 -8.34063417E-05  8.35439940E-05 -3.05874941E-07
  1.46246244E-04 -4.66512762E-07  1.19101394E-07 -5.15058120E-07 -5.13589764E-04
 -2.06604004E-03  9.90840685E-01 -6.82399641E-08 -1.50945771E-05 -6.17217169E-05
  2.96014860E-02  1.62769050E-06  3.84157610E-06  2.42627708E-05 -1.16395054E-02
 -5.28343251E-05 -1.47570687E-05 -1.07999067E-05  5.18885166E-03 -6.41276099E-07
  4.94574240E-06 -4.75697822E-06 -6.73487308E-07  3.22927856E-04  2.52154534E-08
  6.21753729E-05 -5.64623090E-04  4.70319535E-03  2.66465672E-04  1.08224796E-07
 -5.00973981E-05 -3.07759142E-05  2.86680867E-04 -2.35344018E-03 -1.33209374E-04
 -1.06091600E-05 -3.23484134E-05 -3.07484113E-05  2.86473992E-04 -2.35140467E-03
 -1.33106951E-04  1.07417528E-05 -3.22945037E-05 -3.74635945E-08 -9.36193085E-08
 -2.00601718E-07 -9.34089878E-08  4.50981221E-05 -1.10911445E-05 -9.04308328E-06
  3.58527853E-07 -1.75099314E-04  3.41881233E-05 -2.14326608E-05 -2.04484766E-06
  1.01490731E-03 -6.51838718E-07  3.65109231E-06 -3.42702966E-06  1.08534837E-08
 -5.55939949E-06  2.02636111E-08 -3.06816090E-07 -1.21196287E-06  8.63039459E-08
  3.85688585E-08 -1.97164439E-05  1.41847248E-05 -6.96519450E-06 -2.37089447E-07
  1.20486780E-04 -7.00711986E-07  7.00767848E-06  8.14680615E-07 -4.15120672E-04
  1.16407445E-07  9.53489811E-07 -2.56950797E-06  2.57976787E-08 -1.25659147E-05
  9.89018692E-09 -1.65398060E-09 -7.65209987E-09 -1.08538573E-08 -8.35359102E-05
 -1.73728384E-07  4.74558537E-08  6.91120047E-08  3.24449265E-04  6.84878533E-07
 -1.63004135E-07  7.19618076E-07  4.30499728E-04  9.13278711E-07 -3.11047782E-09
  4.05426234E-07 -4.06651662E-07  1.46357183E-04  3.04243672E-07 -9.64810906E-05
 -2.10195290E-09  8.69861973E-09  5.06942966E-06  9.90840861E-01  2.06604255E-03
  5.15738148E-10  1.48377989E-07  2.96012541E-02  6.17242585E-05 -1.79787387E-08
 -2.17714498E-08 -1.16385230E-02 -2.42751618E-05  7.93766128E-07  2.03007979E-07
  5.18680263E-03  1.08348051E-05  8.96098952E-09 -2.79722964E-08  2.56744576E-08
  3.22937447E-04  6.73232597E-07  5.98645271E-06 -1.63429033E-08  8.73106990E-08
 -9.51294316E-07 -6.30027138E-08 -2.61205157E-05 -5.10230814E-08 -5.35114070E-05
  4.92452750E-04 -4.05892960E-03 -2.30768809E-04 -4.44115298E-05 -1.08577738E-05
  5.35151625E-05 -4.92691844E-04  4.05988178E-03  2.30827476E-04 -4.44746566E-05
  1.06705571E-05  4.56160705E-10  7.48715223E-10  4.01456823E-09  4.50027929E-05