 Entering Gaussian System, Link 0=g16
 Initial command:
 /usr/local/g16_AVX//g16/l1.exe "/scratch/alanqf/0134-54576.ixchel.mda.cinvestav.mx/Gau-21127.inp" -scrdir="/scratch/alanqf/0134-54576.ixchel.mda.cinvestav.mx/"
 Entering Link 1 = /usr/local/g16_AVX//g16/l1.exe PID=     21128.
  
 Copyright (c) 1988-2017, Gaussian, Inc.  All Rights Reserved.
  
 This is part of the Gaussian(R) 16 program.  It is based on
 the Gaussian(R) 09 system (copyright 2009, Gaussian, Inc.),
 the Gaussian(R) 03 system (copyright 2003, Gaussian, Inc.),
 the Gaussian(R) 98 system (copyright 1998, Gaussian, Inc.),
 the Gaussian(R) 94 system (copyright 1995, Gaussian, Inc.),
 the Gaussian 92(TM) system (copyright 1992, Gaussian, Inc.),
 the Gaussian 90(TM) system (copyright 1990, Gaussian, Inc.),
 the Gaussian 88(TM) system (copyright 1988, Gaussian, Inc.),
 the Gaussian 86(TM) system (copyright 1986, Carnegie Mellon
 University), and the Gaussian 82(TM) system (copyright 1983,
 Carnegie Mellon University). Gaussian is a federally registered
 trademark of Gaussian, Inc.
  
 This software contains proprietary and confidential information,
 including trade secrets, belonging to Gaussian, Inc.
  
 This software is provided under written license and may be
 used, copied, transmitted, or stored only in accord with that
 written license.
  
 The following legend is applicable only to US Government
 contracts under FAR:
  
                    RESTRICTED RIGHTS LEGEND
  
 Use, reproduction and disclosure by the US Government is
 subject to restrictions as set forth in subparagraphs (a)
 and (c) of the Commercial Computer Software - Restricted
 Rights clause in FAR 52.227-19.
  
 Gaussian, Inc.
 340 Quinnipiac St., Bldg. 40, Wallingford CT 06492
  
  
 ---------------------------------------------------------------
 Warning -- This program may not be used in any manner that
 competes with the business of Gaussian, Inc. or will provide
 assistance to any competitor of Gaussian, Inc.  The licensee
 of this program is prohibited from giving any competitor of
 Gaussian, Inc. access to this program.  By using this program,
 the user acknowledges that Gaussian, Inc. is engaged in the
 business of creating and licensing software in the field of
 computational chemistry and represents and warrants to the
 licensee that it is not a competitor of Gaussian, Inc. and that
 it will not use this program in any manner prohibited above.
 ---------------------------------------------------------------
  

 Cite this work as:
 Gaussian 16, Revision B.01,
 M. J. Frisch, G. W. Trucks, H. B. Schlegel, G. E. Scuseria, 
 M. A. Robb, J. R. Cheeseman, G. Scalmani, V. Barone, 
 G. A. Petersson, H. Nakatsuji, X. Li, M. Caricato, A. V. Marenich, 
 J. Bloino, B. G. Janesko, R. Gomperts, B. Mennucci, H. P. Hratchian, 
 J. V. Ortiz, A. F. Izmaylov, J. L. Sonnenberg, D. Williams-Young, 
 F. Ding, F. Lipparini, F. Egidi, J. Goings, B. Peng, A. Petrone, 
 T. Henderson, D. Ranasinghe, V. G. Zakrzewski, J. Gao, N. Rega, 
 G. Zheng, W. Liang, M. Hada, M. Ehara, K. Toyota, R. Fukuda, 
 J. Hasegawa, M. Ishida, T. Nakajima, Y. Honda, O. Kitao, H. Nakai, 
 T. Vreven, K. Throssell, J. A. Montgomery, Jr., J. E. Peralta, 
 F. Ogliaro, M. J. Bearpark, J. J. Heyd, E. N. Brothers, K. N. Kudin, 
 V. N. Staroverov, T. A. Keith, R. Kobayashi, J. Normand, 
 K. Raghavachari, A. P. Rendell, J. C. Burant, S. S. Iyengar, 
 J. Tomasi, M. Cossi, J. M. Millam, M. Klene, C. Adamo, R. Cammi, 
 J. W. Ochterski, R. L. Martin, K. Morokuma, O. Farkas, 
 J. B. Foresman, and D. J. Fox, Gaussian, Inc., Wallingford CT, 2016.
 
 ******************************************
 Gaussian 16:  ES64L-G16RevB.01 20-Dec-2017
                13-Oct-2024 
 ******************************************
 %NProcShared=26
 Will use up to   26 processors via shared memory.
 %MEM=20GB
 %chk=CHKfiles/0134.chk
 ---------------------------------------------------------------------
 #p b3lyp 6-31++g(d,p) scf=verytight NoSymm freq=noraman int=ultrafine
 ---------------------------------------------------------------------
 1/10=4,30=1,38=1/1,3;
 2/12=2,15=1,17=6,18=5,40=1/2;
 3/5=1,6=6,7=1111,11=2,25=1,30=1,71=2,74=-5,75=-5,140=1/1,2,3;
 4//1;
 5/5=2,17=3,38=5,98=1/2;
 8/6=4,10=90,11=11/1;
 11/6=1,8=1,9=11,15=111,16=1,31=1/1,2,10;
 10/6=1,31=1/2;
 6/7=2,8=2,9=2,10=2,28=1/1;
 7/8=1,10=1,25=1,30=1/1,2,3,16;
 1/10=4,30=1/3;
 99//99;
 Leave Link    1 at Sun Oct 13 09:51:52 2024, MaxMem=  2684354560 cpu:               1.4 elap:               0.1
 (Enter /usr/local/g16_AVX//g16/l101.exe)
 ------------------------
 RxCoord=3.29884 DE=46.31
 ------------------------
 Symbolic Z-matrix:
 Charge = -1 Multiplicity = 1
 C                    -0.36183  -0.00001   0.0009 
 Cl                   -2.19195  0.        -0.00005 
 H                    -0.02849   0.00237  -1.03179 
 H                    -0.02971   0.8934    0.51975 
 H                    -0.02972  -0.89581   0.51562 
 C                     2.48266   0.00004  -0.00145 
 N                     3.66267  -0.00001   0.00035 
 
 ITRead=  0  0  0  0  0  0  0
 MicOpt= -1 -1 -1 -1 -1 -1 -1
 NAtoms=      7 NQM=        7 NQMF=       0 NMMI=      0 NMMIF=      0
                NMic=       0 NMicF=      0.
                    Isotopes and Nuclear Properties:
 (Nuclear quadrupole moments (NQMom) in fm**2, nuclear magnetic moments (NMagM)
  in nuclear magnetons)

  Atom         1           2           3           4           5           6           7
 IAtWgt=          12          35           1           1           1          12          14
 AtmWgt=  12.0000000  34.9688527   1.0078250   1.0078250   1.0078250  12.0000000  14.0030740
 NucSpn=           0           3           1           1           1           0           2
 AtZEff=  -0.0000000  -0.0000000  -0.0000000  -0.0000000  -0.0000000  -0.0000000  -0.0000000
 NQMom=    0.0000000  -8.1650000   0.0000000   0.0000000   0.0000000   0.0000000   2.0440000
 NMagM=    0.0000000   0.8218740   2.7928460   2.7928460   2.7928460   0.0000000   0.4037610
 AtZNuc=   6.0000000  17.0000000   1.0000000   1.0000000   1.0000000   6.0000000   7.0000000
 Leave Link  101 at Sun Oct 13 09:51:52 2024, MaxMem=  2684354560 cpu:               2.9 elap:               0.1
 (Enter /usr/local/g16_AVX//g16/l103.exe)

 GradGradGradGradGradGradGradGradGradGradGradGradGradGradGradGradGradGrad
 Berny optimization.
 Initialization pass.
 Trust Radius=3.00D-01 FncErr=1.00D-07 GrdErr=1.00D-07 EigMax=2.50D+02 EigMin=1.00D-04
 Number of steps in this run=      2 maximum allowed number of steps=      2.
 GradGradGradGradGradGradGradGradGradGradGradGradGradGradGradGradGradGrad

 Leave Link  103 at Sun Oct 13 09:51:52 2024, MaxMem=  2684354560 cpu:               0.5 elap:               0.1
 (Enter /usr/local/g16_AVX//g16/l202.exe)
                          Input orientation:                          
 ---------------------------------------------------------------------
 Center     Atomic      Atomic             Coordinates (Angstroms)
 Number     Number       Type             X           Y           Z
 ---------------------------------------------------------------------
      1          6           0       -0.361825   -0.000014    0.000898
      2         17           0       -2.191950   -0.000003   -0.000053
      3          1           0       -0.028492    0.002374   -1.031791
      4          1           0       -0.029705    0.893395    0.519754
      5          1           0       -0.029721   -0.895814    0.515620
      6          6           0        2.482656    0.000040   -0.001451
      7          7           0        3.662669   -0.000011    0.000347
 ---------------------------------------------------------------------
                    Distance matrix (angstroms):
                    1          2          3          4          5
     1  C    0.000000
     2  Cl   1.830125   0.000000
     3  H    1.085156   2.396881   0.000000
     4  H    1.085217   2.396594   1.789193   0.000000
     5  H    1.085214   2.396587   1.789196   1.789214   0.000000
     6  C    2.844482   4.674606   2.714308   2.716928   2.716975
     7  N    4.024494   5.854619   3.832752   3.834264   3.834281
                    6          7
     6  C    0.000000
     7  N    1.180014   0.000000
 Symmetry turned off by external request.
 This structure is nearly, but not quite of a higher symmetry.
 Consider Symm=Loose if the higher symmetry is desired.
 Stoichiometry    C2H3ClN(1-)
 Framework group  C1[X(C2H3ClN)]
 Deg. of freedom    15
 Full point group                 C1      NOp   1
 Rotational constants (GHZ):         156.6421279           1.1671142           1.1671142
 Leave Link  202 at Sun Oct 13 09:51:52 2024, MaxMem=  2684354560 cpu:               0.4 elap:               0.1
 (Enter /usr/local/g16_AVX//g16/l301.exe)
 Standard basis: 6-31++G(d,p) (6D, 7F)
 Ernie: Thresh=  0.10000D-02 Tol=  0.10000D-05 Strict=F.
    98 basis functions,   176 primitive gaussians,    98 cartesian basis functions
    20 alpha electrons       20 beta electrons
       nuclear repulsion energy       110.1813323789 Hartrees.
 IExCor=  402 DFT=T Ex+Corr=B3LYP ExCW=0 ScaHFX=  0.200000
 ScaDFX=  0.800000  0.720000  1.000000  0.810000 ScalE2=  1.000000  1.000000
 IRadAn=      5 IRanWt=     -1 IRanGd=            0 ICorTp=0 IEmpDi=  4
 NAtoms=    7 NActive=    7 NUniq=    7 SFac= 1.00D+00 NAtFMM=   60 NAOKFM=F Big=F
 Integral buffers will be    131072 words long.
 Raffenetti 2 integral format.
 Two-electron integral symmetry is turned off.
 Leave Link  301 at Sun Oct 13 09:51:52 2024, MaxMem=  2684354560 cpu:               1.3 elap:               0.1
 (Enter /usr/local/g16_AVX//g16/l302.exe)
 NPDir=0 NMtPBC=     1 NCelOv=     1 NCel=       1 NClECP=     1 NCelD=      1
         NCelK=      1 NCelE2=     1 NClLst=     1 CellRange=     0.0.
 One-electron integrals computed using PRISM.
 NBasis=    98 RedAO= T EigKep=  1.33D-04  NBF=    98
 NBsUse=    98 1.00D-06 EigRej= -1.00D+00 NBFU=    98
 Precomputing XC quadrature grid using
 IXCGrd= 4 IRadAn=           5 IRanWt=          -1 IRanGd=           0 AccXCQ= 0.00D+00.
 Generated NRdTot=       0 NPtTot=           0 NUsed=           0 NTot=          32
 NSgBfM=    98    98    98    98    98 MxSgAt=     7 MxSgA2=     7.
 Leave Link  302 at Sun Oct 13 09:51:53 2024, MaxMem=  2684354560 cpu:               4.5 elap:               0.3
 (Enter /usr/local/g16_AVX//g16/l303.exe)
 DipDrv:  MaxL=1.
 Leave Link  303 at Sun Oct 13 09:51:53 2024, MaxMem=  2684354560 cpu:               1.5 elap:               0.1
 (Enter /usr/local/g16_AVX//g16/l401.exe)
 ExpMin= 3.60D-02 ExpMax= 2.52D+04 ExpMxC= 3.78D+03 IAcc=3 IRadAn=         5 AccDes= 0.00D+00
 Harris functional with IExCor=  402 and IRadAn=       5 diagonalized for initial guess.
 HarFok:  IExCor=  402 AccDes= 0.00D+00 IRadAn=         5 IDoV= 1 UseB2=F ITyADJ=14
 ICtDFT=  3500011 ScaDFX=  1.000000  1.000000  1.000000  1.000000
 FoFCou: FMM=F IPFlag=           0 FMFlag=      100000 FMFlg1=           0
         NFxFlg=           0 DoJE=T BraDBF=F KetDBF=T FulRan=T
         wScrn=  0.000000 ICntrl=       500 IOpCl=  0 I1Cent=   200000004 NGrid=           0
         NMat0=    1 NMatS0=      1 NMatT0=    0 NMatD0=    1 NMtDS0=    0 NMtDT0=    0
 Symmetry not used in FoFCou.
 Harris En= -593.077767987191    
 JPrj=0 DoOrth=F DoCkMO=F.
 Leave Link  401 at Sun Oct 13 09:51:53 2024, MaxMem=  2684354560 cpu:               6.7 elap:               0.3
 (Enter /usr/local/g16_AVX//g16/l502.exe)
 Keep R1 ints in memory in canonical form, NReq=35752935.
 FoFCou: FMM=F IPFlag=           0 FMFlag=           0 FMFlg1=           0
         NFxFlg=           0 DoJE=F BraDBF=F KetDBF=F FulRan=T
         wScrn=  0.000000 ICntrl=       600 IOpCl=  0 I1Cent=           0 NGrid=           0
         NMat0=    1 NMatS0=   4851 NMatT0=    0 NMatD0=    1 NMtDS0=    0 NMtDT0=    0
 Symmetry not used in FoFCou.
 Two-electron integral symmetry not used.
 Closed shell SCF:
 Using DIIS extrapolation, IDIIS=  1040.
 NGot=  2684354560 LenX=  2672563405 LenY=  2672553360
 Requested convergence on RMS density matrix=1.00D-08 within 128 cycles.
 Requested convergence on MAX density matrix=1.00D-06.
 Requested convergence on             energy=1.00D-06.
 No special actions if energy rises.

 Cycle   1  Pass 1  IDiag  1:
 E= -592.841062317714    
 DIIS: error= 3.48D-02 at cycle   1 NSaved=   1.
 NSaved= 1 IEnMin= 1 EnMin= -592.841062317714     IErMin= 1 ErrMin= 3.48D-02
 ErrMax= 3.48D-02  0.00D+00 EMaxC= 1.00D-01 BMatC= 1.32D-01 BMatP= 1.32D-01
 IDIUse=3 WtCom= 6.52D-01 WtEn= 3.48D-01
 Coeff-Com:  0.100D+01
 Coeff-En:   0.100D+01
 Coeff:      0.100D+01
 Gap=     0.629 Goal=   None    Shift=    0.000
 GapD=    0.629 DampG=2.000 DampE=0.500 DampFc=1.0000 IDamp=-1.
 RMSDP=8.38D-02 MaxDP=2.85D+00              OVMax= 3.83D-01

 Cycle   2  Pass 1  IDiag  1:
 E= -592.635892855037     Delta-E=        0.205169462677 Rises=F Damp=F
 DIIS: error= 4.88D-02 at cycle   2 NSaved=   2.
 NSaved= 2 IEnMin= 1 EnMin= -592.841062317714     IErMin= 1 ErrMin= 3.48D-02
 ErrMax= 4.88D-02  0.00D+00 EMaxC= 1.00D-01 BMatC= 3.01D-01 BMatP= 1.32D-01
 IDIUse=2 WtCom= 0.00D+00 WtEn= 1.00D+00
 Coeff-En:   0.687D+00 0.313D+00
 Coeff:      0.687D+00 0.313D+00
 Gap=     0.154 Goal=   None    Shift=    0.000
 RMSDP=8.23D-02 MaxDP=2.87D+00 DE= 2.05D-01 OVMax= 2.47D-01

 Cycle   3  Pass 1  IDiag  1:
 E= -592.982796557559     Delta-E=       -0.346903702522 Rises=F Damp=F
 DIIS: error= 8.04D-03 at cycle   3 NSaved=   3.
 NSaved= 3 IEnMin= 3 EnMin= -592.982796557559     IErMin= 3 ErrMin= 8.04D-03
 ErrMax= 8.04D-03  0.00D+00 EMaxC= 1.00D-01 BMatC= 1.05D-02 BMatP= 1.32D-01
 IDIUse=3 WtCom= 9.20D-01 WtEn= 8.04D-02
 Coeff-Com:  0.270D+00 0.105D+00 0.625D+00
 Coeff-En:   0.000D+00 0.000D+00 0.100D+01
 Coeff:      0.248D+00 0.969D-01 0.655D+00
 Gap=     0.185 Goal=   None    Shift=    0.000
 RMSDP=2.69D-03 MaxDP=4.70D-02 DE=-3.47D-01 OVMax= 5.05D-02

 Cycle   4  Pass 1  IDiag  1:
 E= -592.987515811891     Delta-E=       -0.004719254332 Rises=F Damp=F
 DIIS: error= 1.20D-02 at cycle   4 NSaved=   4.
 NSaved= 4 IEnMin= 4 EnMin= -592.987515811891     IErMin= 3 ErrMin= 8.04D-03
 ErrMax= 1.20D-02  0.00D+00 EMaxC= 1.00D-01 BMatC= 7.09D-03 BMatP= 1.05D-02
 IDIUse=3 WtCom= 8.80D-01 WtEn= 1.20D-01
 Coeff-Com:  0.514D-01-0.242D-01 0.493D+00 0.480D+00
 Coeff-En:   0.000D+00 0.000D+00 0.382D+00 0.618D+00
 Coeff:      0.453D-01-0.213D-01 0.479D+00 0.497D+00
 Gap=     0.175 Goal=   None    Shift=    0.000
 RMSDP=9.68D-04 MaxDP=1.53D-02 DE=-4.72D-03 OVMax= 2.97D-02

 Cycle   5  Pass 1  IDiag  1:
 E= -592.993892528151     Delta-E=       -0.006376716260 Rises=F Damp=F
 DIIS: error= 2.58D-03 at cycle   5 NSaved=   5.
 NSaved= 5 IEnMin= 5 EnMin= -592.993892528151     IErMin= 5 ErrMin= 2.58D-03
 ErrMax= 2.58D-03  0.00D+00 EMaxC= 1.00D-01 BMatC= 2.95D-04 BMatP= 7.09D-03
 IDIUse=3 WtCom= 9.74D-01 WtEn= 2.58D-02
 Coeff-Com:  0.167D-01-0.120D-01 0.225D+00 0.276D+00 0.495D+00
 Coeff-En:   0.000D+00 0.000D+00 0.000D+00 0.000D+00 0.100D+01
 Coeff:      0.162D-01-0.117D-01 0.219D+00 0.269D+00 0.508D+00
 Gap=     0.179 Goal=   None    Shift=    0.000
 RMSDP=2.85D-04 MaxDP=4.56D-03 DE=-6.38D-03 OVMax= 6.76D-03

 Cycle   6  Pass 1  IDiag  1:
 E= -592.994157081280     Delta-E=       -0.000264553130 Rises=F Damp=F
 DIIS: error= 8.47D-04 at cycle   6 NSaved=   6.
 NSaved= 6 IEnMin= 6 EnMin= -592.994157081280     IErMin= 6 ErrMin= 8.47D-04
 ErrMax= 8.47D-04  0.00D+00 EMaxC= 1.00D-01 BMatC= 2.98D-05 BMatP= 2.95D-04
 IDIUse=3 WtCom= 9.92D-01 WtEn= 8.47D-03
 Coeff-Com:  0.304D-02-0.588D-02 0.601D-01 0.748D-01 0.264D+00 0.604D+00
 Coeff-En:   0.000D+00 0.000D+00 0.000D+00 0.000D+00 0.765D-01 0.924D+00
 Coeff:      0.301D-02-0.583D-02 0.596D-01 0.741D-01 0.263D+00 0.606D+00
 Gap=     0.178 Goal=   None    Shift=    0.000
 RMSDP=7.35D-05 MaxDP=1.38D-03 DE=-2.65D-04 OVMax= 1.66D-03

 Cycle   7  Pass 1  IDiag  1:
 E= -592.994185615185     Delta-E=       -0.000028533905 Rises=F Damp=F
 DIIS: error= 6.65D-05 at cycle   7 NSaved=   7.
 NSaved= 7 IEnMin= 7 EnMin= -592.994185615185     IErMin= 7 ErrMin= 6.65D-05
 ErrMax= 6.65D-05  0.00D+00 EMaxC= 1.00D-01 BMatC= 4.03D-07 BMatP= 2.98D-05
 IDIUse=1 WtCom= 1.00D+00 WtEn= 0.00D+00
 Coeff-Com:  0.341D-03-0.824D-03 0.272D-02 0.213D-02 0.432D-01 0.182D+00
 Coeff-Com:  0.771D+00
 Coeff:      0.341D-03-0.824D-03 0.272D-02 0.213D-02 0.432D-01 0.182D+00
 Coeff:      0.771D+00
 Gap=     0.179 Goal=   None    Shift=    0.000
 RMSDP=1.35D-05 MaxDP=2.32D-04 DE=-2.85D-05 OVMax= 2.64D-04

 Cycle   8  Pass 1  IDiag  1:
 E= -592.994186083995     Delta-E=       -0.000000468810 Rises=F Damp=F
 DIIS: error= 9.96D-06 at cycle   8 NSaved=   8.
 NSaved= 8 IEnMin= 8 EnMin= -592.994186083995     IErMin= 8 ErrMin= 9.96D-06
 ErrMax= 9.96D-06  0.00D+00 EMaxC= 1.00D-01 BMatC= 1.53D-08 BMatP= 4.03D-07
 IDIUse=1 WtCom= 1.00D+00 WtEn= 0.00D+00
 Coeff-Com:  0.910D-04-0.122D-03 0.721D-04 0.234D-03 0.982D-02 0.441D-01
 Coeff-Com:  0.237D+00 0.709D+00
 Coeff:      0.910D-04-0.122D-03 0.721D-04 0.234D-03 0.982D-02 0.441D-01
 Coeff:      0.237D+00 0.709D+00
 Gap=     0.179 Goal=   None    Shift=    0.000
 RMSDP=2.32D-06 MaxDP=6.46D-05 DE=-4.69D-07 OVMax= 4.60D-05

 Cycle   9  Pass 1  IDiag  1:
 E= -592.994186099946     Delta-E=       -0.000000015951 Rises=F Damp=F
 DIIS: error= 3.07D-06 at cycle   9 NSaved=   9.
 NSaved= 9 IEnMin= 9 EnMin= -592.994186099946     IErMin= 9 ErrMin= 3.07D-06
 ErrMax= 3.07D-06  0.00D+00 EMaxC= 1.00D-01 BMatC= 1.61D-09 BMatP= 1.53D-08
 IDIUse=1 WtCom= 1.00D+00 WtEn= 0.00D+00
 Coeff-Com: -0.972D-05 0.116D-04-0.145D-03 0.123D-03 0.134D-02 0.500D-02
 Coeff-Com:  0.379D-01 0.275D+00 0.681D+00
 Coeff:     -0.972D-05 0.116D-04-0.145D-03 0.123D-03 0.134D-02 0.500D-02
 Coeff:      0.379D-01 0.275D+00 0.681D+00
 Gap=     0.178 Goal=   None    Shift=    0.000
 RMSDP=7.30D-07 MaxDP=1.98D-05 DE=-1.60D-08 OVMax= 1.18D-05

 Cycle  10  Pass 1  IDiag  1:
 E= -592.994186101710     Delta-E=       -0.000000001764 Rises=F Damp=F
 DIIS: error= 4.23D-07 at cycle  10 NSaved=  10.
 NSaved=10 IEnMin=10 EnMin= -592.994186101710     IErMin=10 ErrMin= 4.23D-07
 ErrMax= 4.23D-07  0.00D+00 EMaxC= 1.00D-01 BMatC= 2.40D-11 BMatP= 1.61D-09
 IDIUse=1 WtCom= 1.00D+00 WtEn= 0.00D+00
 Coeff-Com: -0.798D-05 0.666D-05-0.157D-04 0.376D-04-0.130D-04-0.582D-03
 Coeff-Com: -0.163D-02 0.229D-01 0.142D+00 0.837D+00
 Coeff:     -0.798D-05 0.666D-05-0.157D-04 0.376D-04-0.130D-04-0.582D-03
 Coeff:     -0.163D-02 0.229D-01 0.142D+00 0.837D+00
 Gap=     0.178 Goal=   None    Shift=    0.000
 RMSDP=1.59D-07 MaxDP=3.50D-06 DE=-1.76D-09 OVMax= 2.02D-06

 Cycle  11  Pass 1  IDiag  1:
 E= -592.994186101741     Delta-E=       -0.000000000031 Rises=F Damp=F
 DIIS: error= 5.12D-08 at cycle  11 NSaved=  11.
 NSaved=11 IEnMin=11 EnMin= -592.994186101741     IErMin=11 ErrMin= 5.12D-08
 ErrMax= 5.12D-08  0.00D+00 EMaxC= 1.00D-01 BMatC= 2.89D-13 BMatP= 2.40D-11
 IDIUse=1 WtCom= 1.00D+00 WtEn= 0.00D+00
 Coeff-Com: -0.113D-05 0.632D-06-0.801D-05-0.107D-04-0.503D-04-0.149D-03
 Coeff-Com: -0.220D-03-0.223D-02 0.492D-02 0.793D-01 0.918D+00
 Coeff:     -0.113D-05 0.632D-06-0.801D-05-0.107D-04-0.503D-04-0.149D-03
 Coeff:     -0.220D-03-0.223D-02 0.492D-02 0.793D-01 0.918D+00
 Gap=     0.178 Goal=   None    Shift=    0.000
 RMSDP=3.50D-08 MaxDP=6.63D-07 DE=-3.09D-11 OVMax= 3.80D-07

 Cycle  12  Pass 1  IDiag  1:
 E= -592.994186101741     Delta-E=        0.000000000001 Rises=F Damp=F
 DIIS: error= 6.03D-09 at cycle  12 NSaved=  12.
 NSaved=12 IEnMin=11 EnMin= -592.994186101741     IErMin=12 ErrMin= 6.03D-09
 ErrMax= 6.03D-09  0.00D+00 EMaxC= 1.00D-01 BMatC= 4.00D-15 BMatP= 2.89D-13
 IDIUse=1 WtCom= 1.00D+00 WtEn= 0.00D+00
 Coeff-Com: -0.563D-07 0.132D-07-0.964D-06-0.227D-05-0.910D-05-0.200D-04
 Coeff-Com: -0.374D-04-0.833D-03-0.210D-02-0.248D-03 0.118D+00 0.885D+00
 Coeff:     -0.563D-07 0.132D-07-0.964D-06-0.227D-05-0.910D-05-0.200D-04
 Coeff:     -0.374D-04-0.833D-03-0.210D-02-0.248D-03 0.118D+00 0.885D+00
 Gap=     0.178 Goal=   None    Shift=    0.000
 RMSDP=1.99D-09 MaxDP=3.90D-08 DE= 6.82D-13 OVMax= 4.17D-08

 SCF Done:  E(RB3LYP) =  -592.994186102     A.U. after   12 cycles
            NFock= 12  Conv=0.20D-08     -V/T= 2.0045
 KE= 5.903191194221D+02 PE=-1.630032459607D+03 EE= 3.365378217046D+02
 Leave Link  502 at Sun Oct 13 09:51:55 2024, MaxMem=  2684354560 cpu:              36.3 elap:               1.7
 (Enter /usr/local/g16_AVX//g16/l801.exe)
 DoSCS=F DFT=T ScalE2(SS,OS)=  1.000000  1.000000
 Range of M.O.s used for correlation:     1    98
 NBasis=    98 NAE=    20 NBE=    20 NFC=     0 NFV=     0
 NROrb=     98 NOA=    20 NOB=    20 NVA=    78 NVB=    78

 **** Warning!!: The largest alpha MO coefficient is  0.33771030D+02

 Leave Link  801 at Sun Oct 13 09:51:55 2024, MaxMem=  2684354560 cpu:               0.9 elap:               0.1
 (Enter /usr/local/g16_AVX//g16/l1101.exe)
 Using compressed storage, NAtomX=     7.
 Will process      8 centers per pass.
 Leave Link 1101 at Sun Oct 13 09:51:55 2024, MaxMem=  2684354560 cpu:               3.9 elap:               0.2
 (Enter /usr/local/g16_AVX//g16/l1102.exe)
 Symmetrizing basis deriv contribution to polar:
 IMax=3 JMax=2 DiffMx= 0.00D+00
 Leave Link 1102 at Sun Oct 13 09:51:55 2024, MaxMem=  2684354560 cpu:               1.0 elap:               0.1
 (Enter /usr/local/g16_AVX//g16/l1110.exe)
 Forming Gx(P) for the SCF density, NAtomX=     7.
 Integral derivatives from FoFJK, PRISM(SPDF).
 Do as many integral derivatives as possible in FoFJK.
 G2DrvN: MDV=    2684353864.
 G2DrvN: will do     8 centers at a time, making    1 passes.
 Calling FoFCou, ICntrl=  3107 FMM=F I1Cent=   0 AccDes= 0.00D+00.
 FoFJK:  IHMeth= 1 ICntrl=    3107 DoSepK=F KAlg= 0 I1Cent=           0 FoldK=F
 IRaf=         0 NMat=       1 IRICut=       1 DoRegI=T DoRafI=F ISym2E= 0 IDoP0=0 IntGTp=1.
 FoFCou: FMM=F IPFlag=           0 FMFlag=      100000 FMFlg1=           0
         NFxFlg=           0 DoJE=F BraDBF=F KetDBF=F FulRan=T
         wScrn=  0.000000 ICntrl=      3107 IOpCl=  0 I1Cent=           0 NGrid=           0
         NMat0=    1 NMatS0=      1 NMatT0=    0 NMatD0=    1 NMtDS0=    0 NMtDT0=    0
 Symmetry not used in FoFCou.
 End of G2Drv F.D. properties file   721 does not exist.
 End of G2Drv F.D. properties file   722 does not exist.
 End of G2Drv F.D. properties file   788 does not exist.
 Leave Link 1110 at Sun Oct 13 09:51:57 2024, MaxMem=  2684354560 cpu:              38.2 elap:               1.5
 (Enter /usr/local/g16_AVX//g16/l1002.exe)
 Minotr:  Closed shell wavefunction.
          IDoAtm=1111111
          Direct CPHF calculation.
          Differentiating once with respect to electric field.
                with respect to dipole field.
          Differentiating once with respect to nuclear coordinates.
          Requested convergence is 1.0D-08 RMS, and 1.0D-07 maximum.
          Secondary convergence is 1.0D-12 RMS, and 1.0D-12 maximum.
          NewPWx=T KeepS1=F KeepF1=F KeepIn=T MapXYZ=F SortEE=F KeepMc=T.
         2136 words used for storage of precomputed grid.
 Keep R1 ints in memory in canonical form, NReq=35668397.
 FoFCou: FMM=F IPFlag=           0 FMFlag=           0 FMFlg1=           0
         NFxFlg=           0 DoJE=F BraDBF=F KetDBF=F FulRan=T
         wScrn=  0.000000 ICntrl=       600 IOpCl=  0 I1Cent=           0 NGrid=           0
         NMat0=    1 NMatS0=   4851 NMatT0=    0 NMatD0=    1 NMtDS0=    0 NMtDT0=    0
 Symmetry not used in FoFCou.
 Two-electron integral symmetry not used.
          MDV=    2684354560 using IRadAn=       1.
          Solving linear equations simultaneously, MaxMat=       0.
          There are    24 degrees of freedom in the 1st order CPHF.  IDoFFX=6 NUNeed=     3.
     21 vectors produced by pass  0 Test12= 6.50D-15 4.17D-09 XBig12= 8.15D+01 4.32D+00.
 AX will form    21 AO Fock derivatives at one time.
     21 vectors produced by pass  1 Test12= 6.50D-15 4.17D-09 XBig12= 4.57D+01 2.05D+00.
     21 vectors produced by pass  2 Test12= 6.50D-15 4.17D-09 XBig12= 1.42D+00 3.09D-01.
     21 vectors produced by pass  3 Test12= 6.50D-15 4.17D-09 XBig12= 3.11D-02 5.15D-02.
     21 vectors produced by pass  4 Test12= 6.50D-15 4.17D-09 XBig12= 8.70D-05 2.32D-03.
     16 vectors produced by pass  5 Test12= 6.50D-15 4.17D-09 XBig12= 1.93D-07 9.30D-05.
      6 vectors produced by pass  6 Test12= 6.50D-15 4.17D-09 XBig12= 2.29D-10 3.20D-06.
      1 vectors produced by pass  7 Test12= 6.50D-15 4.17D-09 XBig12= 2.81D-13 1.37D-07.
      1 vectors produced by pass  8 Test12= 6.50D-15 4.17D-09 XBig12= 4.38D-16 4.95D-09.
 InvSVY:  IOpt=1 It=  1 EMax= 5.33D-15
 Solved reduced A of dimension   129 with    24 vectors.
 FullF1:  Do perturbations      1 to       3.
 Isotropic polarizability for W=    0.000000       56.17 Bohr**3.
 End of Minotr F.D. properties file   721 does not exist.
 End of Minotr F.D. properties file   722 does not exist.
 End of Minotr F.D. properties file   788 does not exist.
 Leave Link 1002 at Sun Oct 13 09:51:59 2024, MaxMem=  2684354560 cpu:              51.5 elap:               2.1
 (Enter /usr/local/g16_AVX//g16/l601.exe)
 Copying SCF densities to generalized density rwf, IOpCl= 0 IROHF=0.

 **********************************************************************

            Population analysis using the SCF Density.

 **********************************************************************

 Alpha  occ. eigenvalues -- -101.40943 -14.09485 -10.09941  -9.95988  -9.32571
 Alpha  occ. eigenvalues --   -7.08868  -7.08037  -7.08037  -0.71523  -0.64809
 Alpha  occ. eigenvalues --   -0.53824  -0.30617  -0.30615  -0.27661  -0.18272
 Alpha  occ. eigenvalues --   -0.17450  -0.17449  -0.09716  -0.09716  -0.06912
 Alpha virt. eigenvalues --    0.10937   0.12837   0.14518   0.14520   0.17321
 Alpha virt. eigenvalues --    0.20347   0.20347   0.20426   0.22090   0.22102
 Alpha virt. eigenvalues --    0.24177   0.24970   0.24977   0.27102   0.27557
 Alpha virt. eigenvalues --    0.27565   0.31419   0.33524   0.33535   0.36176
 Alpha virt. eigenvalues --    0.38609   0.38616   0.38713   0.46552   0.48100
 Alpha virt. eigenvalues --    0.65184   0.73186   0.74507   0.74509   0.77439
 Alpha virt. eigenvalues --    0.77446   0.88018   0.89686   0.89689   0.97875
 Alpha virt. eigenvalues --    0.99469   0.99473   1.04534   1.04541   1.08440
 Alpha virt. eigenvalues --    1.09610   1.09616   1.12538   1.19041   1.19046
 Alpha virt. eigenvalues --    1.24147   1.26750   1.36963   1.47160   1.60356
 Alpha virt. eigenvalues --    1.60358   1.75918   1.78174   1.78174   1.80425
 Alpha virt. eigenvalues --    1.80427   2.15824   2.20172   2.20174   2.21925
 Alpha virt. eigenvalues --    2.21927   2.29416   2.48918   2.48928   2.67338
 Alpha virt. eigenvalues --    2.83203   2.83481   2.83484   2.95493   2.95496
 Alpha virt. eigenvalues --    3.25987   3.38353   3.55668   3.55680   4.21187
 Alpha virt. eigenvalues --    4.41500   4.45798   4.57228
          Condensed to atoms (all electrons):
               1          2          3          4          5          6
     1  C    5.408677  -0.059721   0.415345   0.415293   0.415291  -0.160261
     2  Cl  -0.059721  17.340287  -0.049024  -0.049446  -0.049453   0.061138
     3  H    0.415345  -0.049024   0.507294  -0.023304  -0.023303  -0.041355
     4  H    0.415293  -0.049446  -0.023304   0.507585  -0.023354  -0.040664
     5  H    0.415291  -0.049453  -0.023303  -0.023354   0.507589  -0.040651
     6  C   -0.160261   0.061138  -0.041355  -0.040664  -0.040651   6.074036
     7  N   -0.001431  -0.002198   0.000539   0.000498   0.000497   0.660085
               7
     1  C   -0.001431
     2  Cl  -0.002198
     3  H    0.000539
     4  H    0.000498
     5  H    0.000497
     6  C    0.660085
     7  N    6.845493
 Mulliken charges:
               1
     1  C   -0.433192
     2  Cl  -0.191582
     3  H    0.213809
     4  H    0.213392
     5  H    0.213384
     6  C   -0.512328
     7  N   -0.503483
 Sum of Mulliken charges =  -1.00000
 Mulliken charges with hydrogens summed into heavy atoms:
               1
     1  C    0.207393
     2  Cl  -0.191582
     6  C   -0.512328
     7  N   -0.503483
 APT charges:
               1
     1  C    0.607691
     2  Cl  -0.643109
     3  H    0.016460
     4  H    0.016094
     5  H    0.016088
     6  C   -0.393177
     7  N   -0.620047
 Sum of APT charges =  -1.00000
 APT charges with hydrogens summed into heavy atoms:
               1
     1  C    0.656333
     2  Cl  -0.643109
     6  C   -0.393177
     7  N   -0.620047
 Electronic spatial extent (au):  <R**2>=            893.4506
 Charge=             -1.0000 electrons
 Dipole moment (field-independent basis, Debye):
    X=            -10.1055    Y=             -0.0001    Z=              0.0035  Tot=             10.1055
 Quadrupole moment (field-independent basis, Debye-Ang):
   XX=            -90.6682   YY=            -35.4462   ZZ=            -35.4454
   XY=             -0.0001   XZ=              0.0016   YZ=             -0.0000
 Traceless Quadrupole moment (field-independent basis, Debye-Ang):
   XX=            -36.8149   YY=             18.4070   ZZ=             18.4079
   XY=             -0.0001   XZ=              0.0016   YZ=             -0.0000
 Octapole moment (field-independent basis, Debye-Ang**2):
  XXX=           -190.3104  YYY=             -0.0064  ZZZ=             -0.8668  XYY=            -12.1031
  XXY=              0.0003  XXZ=             -0.0101  XZZ=            -12.1011  YZZ=              0.0060
  YYZ=              0.8802  XYZ=              0.0000
 Hexadecapole moment (field-independent basis, Debye-Ang**3):
 XXXX=          -1949.0074 YYYY=            -56.1316 ZZZZ=            -56.1316 XXXY=              0.0002
 XXXZ=             -0.0019 YYYX=             -0.0022 YYYZ=             -0.0000 ZZZX=              0.0095
 ZZZY=              0.0000 XXYY=           -230.8865 XXZZ=           -230.8854 YYZZ=            -18.7081
 XXYZ=              0.0000 YYXZ=              0.0696 ZZXY=             -0.0003
 N-N= 1.101813323789D+02 E-N=-1.630032459453D+03  KE= 5.903191194221D+02
  Exact polarizability:  88.732  -0.000  39.891   0.017  -0.000  39.889
 Approx polarizability: 109.439  -0.001  49.757   0.040  -0.000  49.755
 No NMR shielding tensors so no spin-rotation constants.
 Leave Link  601 at Sun Oct 13 09:51:59 2024, MaxMem=  2684354560 cpu:               2.6 elap:               0.1
 (Enter /usr/local/g16_AVX//g16/l701.exe)
 ... and contract with generalized density number  0.
 Compute integral second derivatives.
 Leave Link  701 at Sun Oct 13 09:52:00 2024, MaxMem=  2684354560 cpu:               4.6 elap:               0.2
 (Enter /usr/local/g16_AVX//g16/l702.exe)
 L702 exits ... SP integral derivatives will be done elsewhere.
 Leave Link  702 at Sun Oct 13 09:52:00 2024, MaxMem=  2684354560 cpu:               0.5 elap:               0.0
 (Enter /usr/local/g16_AVX//g16/l703.exe)
 Integral derivatives from FoFJK, PRISM(SPDF).
 Compute integral second derivatives, UseDBF=F ICtDFT=           0.
 Calling FoFJK, ICntrl=    100127 FMM=F ISym2X=0 I1Cent= 0 IOpClX= 0 NMat=1 NMatS=1 NMatT=0.
 FoFJK:  IHMeth= 1 ICntrl=  100127 DoSepK=F KAlg= 0 I1Cent=           0 FoldK=F
 IRaf=         0 NMat=       1 IRICut=       1 DoRegI=T DoRafI=F ISym2E= 0 IDoP0=0 IntGTp=1.
 FoFCou: FMM=F IPFlag=           0 FMFlag=      100000 FMFlg1=         800
         NFxFlg=           0 DoJE=F BraDBF=F KetDBF=F FulRan=T
         wScrn=  0.000000 ICntrl=    100127 IOpCl=  0 I1Cent=           0 NGrid=           0
         NMat0=    1 NMatS0=      1 NMatT0=    0 NMatD0=    1 NMtDS0=    0 NMtDT0=    0
 Symmetry not used in FoFCou.
 Leave Link  703 at Sun Oct 13 09:52:02 2024, MaxMem=  2684354560 cpu:              65.6 elap:               2.6
 (Enter /usr/local/g16_AVX//g16/l716.exe)
 Dipole        =-3.97582608D+00-2.95365096D-05 1.39510327D-03
 Polarizability= 8.87317484D+01-3.80012017D-04 3.98912037D+01
                 1.69107026D-02-1.89718480D-05 3.98892582D+01
 Full mass-weighted force constant matrix:
 Low frequencies ---  -80.4789  -80.4445  -38.5843  -38.5387    0.0036    0.0041
 Low frequencies ---    0.0046  102.2652  102.3915
 ******    2 imaginary frequencies (negative Signs) ****** 
 Diagonal vibrational polarizability:
       81.5749182      30.7647069      30.8496744
 Harmonic frequencies (cm**-1), IR intensities (KM/Mole), Raman scattering
 activities (A**4/AMU), depolarization ratios for plane and unpolarized
 incident light, reduced masses (AMU), force constants (mDyne/A),
 and normal coordinates:
                      1                      2                      3
                      A                      A                      A
 Frequencies --    -80.1944               -80.1628               101.4494
 Red. masses --      9.0700                 9.0696                 3.7479
 Frc consts  --      0.0344                 0.0343                 0.0227
 IR Inten    --      0.0329                 0.0328                11.7084
  Atom  AN      X      Y      Z        X      Y      Z        X      Y      Z
     1   6    -0.00   0.00   0.24     0.00   0.24  -0.00    -0.00  -0.01   0.39
     2  17    -0.00  -0.00  -0.11     0.00  -0.11   0.00    -0.00   0.00  -0.10
     3   1     0.19   0.00   0.31    -0.00   0.31  -0.00     0.27  -0.01   0.48
     4   1    -0.10  -0.00   0.31    -0.17   0.31  -0.00    -0.13   0.00   0.46
     5   1    -0.10   0.00   0.31     0.17   0.31   0.00    -0.14  -0.02   0.46
     6   6    -0.00   0.00   0.59     0.00   0.59  -0.00     0.00   0.00  -0.26
     7   7     0.00  -0.00  -0.50    -0.00  -0.50   0.00     0.00  -0.00   0.03
                      4                      5                      6
                      A                      A                      A
 Frequencies --    101.5886               152.7751               613.7773
 Red. masses --      3.7496                11.9921                 9.2967
 Frc consts  --      0.0228                 0.1649                 2.0635
 IR Inten    --     11.7063                54.8560               250.4711
  Atom  AN      X      Y      Z        X      Y      Z        X      Y      Z
     1   6     0.00   0.39   0.01    -0.31   0.00  -0.00     0.71  -0.00   0.00
     2  17     0.00  -0.10  -0.00    -0.28  -0.00   0.00    -0.28   0.00  -0.00
     3   1     0.00   0.46   0.01    -0.27   0.00   0.00     0.36   0.00  -0.10
     4   1    -0.23   0.47   0.02    -0.27  -0.01  -0.01     0.36   0.09   0.05
     5   1     0.23   0.47  -0.01    -0.27   0.01  -0.01     0.36  -0.09   0.05
     6   6    -0.00  -0.26  -0.00     0.55  -0.00   0.00     0.01   0.00  -0.00
     7   7    -0.00   0.03   0.00     0.55  -0.00   0.00     0.01  -0.00   0.00
                      7                      8                      9
                      A                      A                      A
 Frequencies --   1014.7060              1015.1806              1315.1457
 Red. masses --      1.1465                 1.1464                 1.0936
 Frc consts  --      0.6955                 0.6961                 1.1145
 IR Inten    --      0.2383                 0.2394                19.1359
  Atom  AN      X      Y      Z        X      Y      Z        X      Y      Z
     1   6     0.00  -0.00  -0.11    -0.00  -0.11   0.00    -0.08  -0.00   0.00
     2  17    -0.00   0.00   0.02    -0.00   0.02  -0.00    -0.02  -0.00  -0.00
     3   1     0.77   0.00   0.13    -0.00   0.23  -0.00     0.55  -0.00   0.18
     4   1    -0.39  -0.04   0.20    -0.66   0.16  -0.04     0.55  -0.15  -0.09
     5   1    -0.38   0.04   0.21     0.67   0.16   0.04     0.55   0.15  -0.09
     6   6    -0.00  -0.00  -0.00     0.00  -0.00   0.00    -0.00  -0.00   0.00
     7   7    -0.00  -0.00  -0.00     0.00  -0.00   0.00    -0.00   0.00  -0.00
                     10                     11                     12
                      A                      A                      A
 Frequencies --   1460.2124              1460.2639              2153.2631
 Red. masses --      1.0614                 1.0615                12.8290
 Frc consts  --      1.3335                 1.3336                35.0460
 IR Inten    --      7.5166                 7.5179                16.6823
  Atom  AN      X      Y      Z        X      Y      Z        X      Y      Z
     1   6    -0.00  -0.07  -0.00    -0.00   0.00  -0.07    -0.00  -0.00   0.00
     2  17    -0.00  -0.00  -0.00    -0.00   0.00  -0.00     0.00  -0.00   0.00
     3   1    -0.02   0.75  -0.01    -0.28  -0.04  -0.13    -0.02   0.00  -0.01
     4   1     0.25   0.07  -0.35     0.12  -0.39   0.55    -0.02   0.01   0.00
     5   1    -0.23   0.11   0.42     0.15   0.38   0.51    -0.02  -0.01   0.00
     6   6    -0.00  -0.00  -0.00    -0.00   0.00  -0.00     0.76  -0.00   0.00
     7   7    -0.00   0.00   0.00    -0.00  -0.00   0.00    -0.65   0.00  -0.00
                     13                     14                     15
                      A                      A                      A
 Frequencies --   3125.6345              3250.8482              3251.3796
 Red. masses --      1.0248                 1.1116                 1.1116
 Frc consts  --      5.8990                 6.9214                 6.9237
 IR Inten    --     12.5649                 0.2625                 0.2494
  Atom  AN      X      Y      Z        X      Y      Z        X      Y      Z
     1   6     0.04   0.00   0.00     0.00  -0.10  -0.00     0.00   0.00  -0.10
     2  17    -0.00  -0.00  -0.00    -0.00   0.00   0.00    -0.00  -0.00   0.00
     3   1    -0.16  -0.00   0.55    -0.00  -0.02   0.01    -0.24  -0.00   0.78
     4   1    -0.16  -0.48  -0.28     0.21   0.58   0.35     0.12   0.34   0.17
     5   1    -0.16   0.48  -0.28    -0.20   0.57  -0.34     0.12  -0.35   0.18
     6   6     0.00   0.00  -0.00     0.00   0.00   0.00     0.00  -0.00   0.00
     7   7     0.00  -0.00   0.00     0.00  -0.00  -0.00     0.00   0.00  -0.00

 -------------------
 - Thermochemistry -
 -------------------
 Temperature   298.150 Kelvin.  Pressure   1.00000 Atm.
 Atom     1 has atomic number  6 and mass  12.00000
 Atom     2 has atomic number 17 and mass  34.96885
 Atom     3 has atomic number  1 and mass   1.00783
 Atom     4 has atomic number  1 and mass   1.00783
 Atom     5 has atomic number  1 and mass   1.00783
 Atom     6 has atomic number  6 and mass  12.00000
 Atom     7 has atomic number  7 and mass  14.00307
 Molecular mass:    75.99540 amu.
 Principal axes and moments of inertia in atomic units:
                           1         2         3
     Eigenvalues --    11.521431546.327881546.32792
           X            1.00000  -0.00003   0.00006
           Y            0.00000   0.90813   0.41868
           Z           -0.00006  -0.41868   0.90813
 This molecule is an asymmetric top.
 Rotational symmetry number  1.
 Rotational temperatures (Kelvin)      7.51764     0.05601     0.05601
 Rotational constants (GHZ):         156.64213     1.16711     1.16711
    2 imaginary frequencies ignored.
 Zero-point vibrational energy     113742.3 (Joules/Mol)
                                   27.18506 (Kcal/Mol)
 Warning -- explicit consideration of   4 degrees of freedom as
           vibrations may cause significant error
 Vibrational temperatures:    145.96   146.16   219.81   883.09  1459.94
          (Kelvin)           1460.62  1892.20  2100.92  2100.99  3098.07
                             4497.09  4677.25  4678.01
 
 Zero-point correction=                           0.043322 (Hartree/Particle)
 Thermal correction to Energy=                    0.048501
 Thermal correction to Enthalpy=                  0.049445
 Thermal correction to Gibbs Free Energy=         0.014348
 Sum of electronic and zero-point Energies=           -592.950864
 Sum of electronic and thermal Energies=              -592.945685
 Sum of electronic and thermal Enthalpies=            -592.944741
 Sum of electronic and thermal Free Energies=         -592.979838
 
                     E (Thermal)             CV                S
                      KCal/Mol        Cal/Mol-Kelvin    Cal/Mol-Kelvin
 Total                   30.435             13.802             73.869
 Electronic               0.000              0.000              0.000
 Translational            0.889              2.981             38.900
 Rotational               0.889              2.981             24.825
 Vibrational             28.657              7.840             10.144
 Vibration     1          0.604              1.948              3.426
 Vibration     2          0.604              1.948              3.424
 Vibration     3          0.619              1.900              2.637
 Vibration     4          0.973              1.003              0.427
                       Q            Log10(Q)             Ln(Q)
 Total Bot       0.251431D-06         -6.599581        -15.196098
 Total V=0       0.212425D+14         13.327205         30.687024
 Vib (Bot)       0.162511D-18        -18.789117        -43.263540
 Vib (Bot)    1  0.202238D+01          0.305863          0.704277
 Vib (Bot)    2  0.201956D+01          0.305256          0.702878
 Vib (Bot)    3  0.132616D+01          0.122597          0.282291
 Vib (Bot)    4  0.239826D+00         -0.620103         -1.427840
 Vib (V=0)       0.137300D+02          1.137670          2.619582
 Vib (V=0)    1  0.258327D+01          0.412171          0.949058
 Vib (V=0)    2  0.258053D+01          0.411709          0.947996
 Vib (V=0)    3  0.191729D+01          0.282688          0.650913
 Vib (V=0)    4  0.105454D+01          0.023064          0.053106
 Electronic      0.100000D+01          0.000000          0.000000
 Translational   0.260396D+08          7.415635         17.075130
 Rotational      0.594156D+05          4.773900         10.992312
 
                                                       RxCoord=3.29884 DE=46.31
                                                             IR Spectrum
 
      3   3                                     2                          1     1           1                                       
      2   1                                     1                          4     3           0               6                 1 1   
      5   2                                     5                          6     1           1               1                 5 0   
      1   6                                     3                          0     5           5               4                 3 1   
 
      X   X                                     X                          X     X           X               X                 X X   
                                                                                 X                           X                 X X   
                                                                                                             X                 X     
                                                                                                             X                 X     
                                                                                                             X                       
                                                                                                             X                       
                                                                                                             X                       
                                                                                                             X                       
                                                                                                             X                       
                                                                                                             X                       
                                                                                                             X                       
                                                                                                             X                       
                                                                                                             X                       
                                                                                                             X                       
                                                                                                             X                       
                                                                                                             X                       
                                                                                                             X                       
                                                                                                             X                       
                                                                                                             X                       
                                                                                                             X                       
 
 -------------------------------------------------------------------
 Center     Atomic                   Forces (Hartrees/Bohr)
 Number     Number              X              Y              Z
 -------------------------------------------------------------------
      1        6           0.005872269    0.000001821    0.000047968
      2       17          -0.013388622    0.000000071   -0.000010901
      3        1           0.000800860   -0.000003172    0.001259284
      4        1           0.000822631   -0.001105857   -0.000654639
      5        1           0.000823871    0.001107265   -0.000648919
      6        6           0.001218343   -0.000000024    0.000004115
      7        7           0.003850647   -0.000000103    0.000003093
 -------------------------------------------------------------------
 Cartesian Forces:  Max     0.013388622 RMS     0.003358956
 Z-matrix is all fixed cartesians, so copy forces.
 Force constants in Cartesian coordinates: 
                1             2             3             4             5 
      1  0.252287D+00
      2  0.113607D-05  0.599414D+00
      3 -0.270802D-03 -0.441971D-05  0.599629D+00
      4 -0.922866D-01  0.000000D+00 -0.427488D-04  0.179379D+00
      5  0.000000D+00 -0.334666D-01  0.000000D+00 -0.114152D-05  0.179369D-01
      6 -0.387797D-04  0.000000D+00 -0.334822D-01  0.995833D-04  0.000000D+00
      7 -0.551206D-01 -0.195817D-03  0.847910D-01 -0.247438D-01 -0.451996D-04
      8 -0.192880D-03 -0.495308D-01  0.638812D-03  0.142754D-04  0.618813D-03
      9  0.834781D-01  0.638783D-03 -0.325611D+00 -0.611396D-02 -0.181341D-04
     10 -0.549730D-01 -0.730038D-01 -0.423979D-01 -0.247497D-01 -0.169782D-01
     11 -0.718813D-01 -0.256009D+00 -0.119901D+00  0.525229D-02  0.648868D-02
     12 -0.417360D-01 -0.119902D+00 -0.119167D+00  0.303250D-02  0.339292D-02
     13 -0.549715D-01  0.731974D-01 -0.420585D-01 -0.247499D-01  0.170242D-01
     14  0.720719D-01 -0.257119D+00  0.119267D+00 -0.526569D-02  0.651974D-02
     15 -0.414020D-01  0.119268D+00 -0.118063D+00  0.300804D-02 -0.337470D-02
     16 -0.120479D-02  0.000000D+00 -0.139352D-04 -0.627242D-02  0.000000D+00
     17  0.115698D-05 -0.425237D-02  0.000000D+00  0.000000D+00  0.228727D-02
     18 -0.500875D-04  0.000000D+00 -0.427566D-02  0.339294D-04  0.000000D+00
     19  0.626944D-02  0.000000D+00 -0.709082D-05 -0.657668D-02  0.000000D+00
     20  0.000000D+00  0.963954D-03  0.000000D+00  0.000000D+00 -0.384863D-03
     21  0.195161D-04  0.000000D+00  0.970443D-03 -0.173405D-04  0.000000D+00
                6             7             8             9            10 
      6  0.179341D-01
      7  0.195925D-01  0.743176D-01
      8 -0.182738D-04  0.201554D-03  0.461318D-01
      9  0.848501D-02 -0.871889D-01 -0.674185D-03  0.337535D+00
     10 -0.986969D-02  0.407471D-02  0.717957D-02  0.434899D-02  0.741563D-01
     11  0.340759D-02 -0.139076D-03  0.206240D-02  0.241864D-02  0.750883D-01
     12  0.259404D-02 -0.836675D-02 -0.250573D-01 -0.111491D-01  0.436126D-01
     13 -0.979136D-02  0.407463D-02 -0.719992D-02  0.431567D-02  0.406849D-02
     14 -0.338926D-02  0.177544D-03  0.195758D-02 -0.235815D-02  0.731245D-02
     15  0.256275D-02 -0.836599D-02  0.251179D-01 -0.110440D-01  0.407127D-02
     16  0.556233D-05 -0.277076D-02 -0.105086D-05  0.452718D-03 -0.274142D-02
     17  0.000000D+00  0.000000D+00 -0.156923D-02 -0.882583D-05  0.358169D-03
     18  0.229190D-02 -0.410761D-03 -0.885019D-05  0.229019D-02  0.209213D-03
     19  0.217639D-05  0.168172D-03 -0.155016D-05  0.707328D-03  0.164639D-03
     20  0.000000D+00  0.000000D+00  0.329403D-03  0.186920D-05  0.434688D-04
     21 -0.385638D-03 -0.511527D-04  0.189962D-05 -0.506504D-03  0.255447D-04
               11            12            13            14            15 
     11  0.264089D+00
     12  0.126568D+00  0.119620D+00
     13 -0.733147D-02  0.403757D-02  0.741544D-01
     14 -0.176542D-01  0.136852D-01 -0.752875D-01  0.265261D+00
     15 -0.138064D-01  0.857242D-02  0.432638D-01 -0.125898D+00  0.118454D+00
     16 -0.385508D-03 -0.225555D-03 -0.274070D-02  0.386472D-03 -0.223709D-03
     17  0.131997D-02  0.167685D-02 -0.359199D-03  0.133568D-02 -0.166793D-02
     18  0.167740D-02 -0.583984D-03  0.207509D-03 -0.166846D-02 -0.599341D-03
     19 -0.603282D-03 -0.354368D-03  0.164555D-03  0.604810D-03 -0.351418D-03
     20 -0.296812D-03 -0.363456D-03 -0.435780D-04 -0.300289D-03  0.361542D-03
     21 -0.364251D-03  0.114200D-03  0.253383D-04  0.362304D-03  0.117533D-03
               16            17            18            19            20 
     16  0.114500D+01
     17 -0.488438D-04 -0.243392D-03
     18  0.172572D-02  0.000000D+00 -0.244589D-03
     19 -0.112927D+01  0.486953D-04 -0.171552D-02  0.112908D+01
     20  0.487981D-04  0.112208D-02  0.000000D+00 -0.487727D-04 -0.143347D-02
     21 -0.172080D-02  0.000000D+00  0.112149D-02  0.171889D-02  0.000000D+00
               21 
     21 -0.143152D-02
 Leave Link  716 at Sun Oct 13 09:52:02 2024, MaxMem=  2684354560 cpu:               0.9 elap:               0.1
 (Enter /usr/local/g16_AVX//g16/l103.exe)

 GradGradGradGradGradGradGradGradGradGradGradGradGradGradGradGradGradGrad
 Berny optimization.
 Search for a local minimum.
 Step number   1 out of a maximum of    2
 All quantities printed in internal units (Hartrees-Bohrs-Radians)
 Second derivative matrix not updated -- analytic derivatives used.
 ITU=  0
     Eigenvalues ---   -0.00278  -0.00278   0.00190   0.00191   0.01017
     Eigenvalues ---    0.06215   0.06218   0.10938   0.10938   0.11461
     Eigenvalues ---    0.21386   0.49223   0.88627   0.88659   2.26534
 Eigenvalue     1 is  -2.78D-03 should be greater than     0.000000 Eigenvector:
                          Z6        Z7        Z2        Z5        Z4
   1                    0.66862  -0.61496  -0.19603   0.17091   0.17083
                          Z3        X3        Z1        X4        X5
   1                    0.16600   0.15538   0.11830  -0.07875  -0.07767
 Eigenvalue     2 is  -2.78D-03 should be greater than     0.000000 Eigenvector:
                          Y6        Y7        Y2        Y3        Y4
   1                    0.66846  -0.61493  -0.19610   0.17219   0.16801
                          Y5        X5        X4        Y1        Z4
   1                    0.16797   0.13529  -0.13464   0.11837  -0.00386
 Quadratic step=3.566D-01 exceeds max=3.000D-01 adjusted using Lamda=-2.010D-03.
 Angle between NR and scaled steps=   2.08 degrees.
 Angle between quadratic step and forces=  64.87 degrees.
 Linear search not attempted -- first point.
 B after Tr=     0.006084   -0.000006    0.000357
         Rot=    1.000000   -0.000000   -0.000014   -0.000000 Ang=  -0.00 deg.
 Variable       Old X    -DE/DX   Delta X   Delta X   Delta X     New X
                                 (Linear)    (Quad)   (Total)
    X1       -0.68375   0.00587   0.00000  -0.06948  -0.06340  -0.74715
    Y1       -0.00003   0.00000   0.00000   0.00002   0.00001  -0.00002
    Z1        0.00170   0.00005   0.00000  -0.00069  -0.00031   0.00139
    X2       -4.14219  -0.01339   0.00000  -0.12292  -0.11683  -4.25902
    Y2       -0.00001   0.00000   0.00000  -0.00001  -0.00002  -0.00002
    Z2       -0.00010  -0.00001   0.00000   0.00055   0.00103   0.00093
    X3       -0.05384   0.00080   0.00000  -0.06463  -0.05860  -0.11245
    Y3        0.00449  -0.00000   0.00000   0.00001   0.00000   0.00449
    Z3       -1.94980   0.00126   0.00000   0.00218   0.00254  -1.94727
    X4       -0.05613   0.00082   0.00000  -0.06303  -0.05692  -0.11305
    Y4        1.68827  -0.00111   0.00000  -0.00282  -0.00283   1.68545
    Z4        0.98219  -0.00065   0.00000  -0.00276  -0.00240   0.97979
    X5       -0.05616   0.00082   0.00000  -0.06300  -0.05688  -0.11305
    Y5       -1.69284   0.00111   0.00000   0.00287   0.00286  -1.68998
    Z5        0.97438  -0.00065   0.00000  -0.00275  -0.00239   0.97199
    X6        4.69154   0.00122   0.00000   0.16883   0.17491   4.86645
    Y6        0.00008  -0.00000   0.00000  -0.00003  -0.00003   0.00004
    Z6       -0.00274   0.00000   0.00000   0.00169   0.00191  -0.00084
    X7        6.92144   0.00385   0.00000   0.17164   0.17772   7.09917
    Y7       -0.00002  -0.00000   0.00000   0.00001   0.00001  -0.00001
    Z7        0.00066   0.00000   0.00000  -0.00052  -0.00037   0.00029
         Item               Value     Threshold  Converged?
 Maximum Force            0.013389     0.000450     NO 
 RMS     Force            0.003359     0.000300     NO 
 Maximum Displacement     0.177724     0.001800     NO 
 RMS     Displacement     0.065392     0.001200     NO 
 Predicted change in Energy=-1.071211D-03
 GradGradGradGradGradGradGradGradGradGradGradGradGradGradGradGradGradGrad

 Leave Link  103 at Sun Oct 13 09:52:02 2024, MaxMem=  2684354560 cpu:               0.8 elap:               0.1
 (Enter /usr/local/g16_AVX//g16/l9999.exe)

 ----------------------------------------------------------------------

 Electric dipole moment (input orientation):
 (Debye = 10**-18 statcoulomb cm , SI units = C m)
                  (au)            (Debye)         (10**-30 SI)
   Tot        0.397583D+01      0.101055D+02      0.337085D+02
   x         -0.397583D+01     -0.101055D+02     -0.337085D+02
   y         -0.295365D-04     -0.750743D-04     -0.250421D-03
   z          0.139510D-02      0.354600D-02      0.118282D-01

 Dipole polarizability, Alpha (input orientation).
 (esu units = cm**3 , SI units = C**2 m**2 J**-1)
 Alpha(0;0):
               (au)            (10**-24 esu)      (10**-40 SI)
   iso        0.561707D+02      0.832364D+01      0.926130D+01
   aniso      0.488415D+02      0.723757D+01      0.805288D+01
   xx         0.887317D+02      0.131487D+02      0.146299D+02
   yx        -0.380012D-03     -0.563120D-04     -0.626555D-04
   yy         0.398912D+02      0.591127D+01      0.657717D+01
   zx         0.169107D-01      0.250591D-02      0.278820D-02
   zy        -0.189718D-04     -0.281134D-05     -0.312804D-05
   zz         0.398893D+02      0.591098D+01      0.657685D+01

 ----------------------------------------------------------------------

 Dipole orientation:
     6          0.00145705         -0.00002137          0.68375071
    17         -0.00155363          0.00002509          4.14218489
     1         -1.94982121          0.00447212          0.05315786
     1          0.98216042          1.68827958          0.05646642
     1          0.97437339         -1.69283546          0.05651903
     6         -0.00109575          0.00004073         -4.69154058
     7          0.00308444         -0.00007218         -6.92144064

 Electric dipole moment (dipole orientation):
 (Debye = 10**-18 statcoulomb cm , SI units = C m)
                  (au)            (Debye)         (10**-30 SI)
   Tot        0.397583D+01      0.101055D+02      0.337085D+02
   x          0.000000D+00      0.000000D+00      0.000000D+00
   y          0.000000D+00      0.000000D+00      0.000000D+00
   z          0.397583D+01      0.101055D+02      0.337085D+02

 Dipole polarizability, Alpha (dipole orientation).
 (esu units = cm**3 , SI units = C**2 m**2 J**-1)
 Alpha(0;0):
               (au)            (10**-24 esu)      (10**-40 SI)
   iso        0.561707D+02      0.832364D+01      0.926130D+01
   aniso      0.488415D+02      0.723757D+01      0.805288D+01
   xx         0.398893D+02      0.591098D+01      0.657685D+01
   yx        -0.193725D-04     -0.287070D-05     -0.319409D-05
   yy         0.398912D+02      0.591127D+01      0.657717D+01
   zx        -0.340494D-01     -0.504559D-02     -0.561398D-02
   zy         0.742590D-03      0.110040D-03      0.122437D-03
   zz         0.887317D+02      0.131487D+02      0.146299D+02

 ----------------------------------------------------------------------
 1\1\GINC-NODO10\Freq\RB3LYP\6-31++G(d,p)\C2H3Cl1N1(1-)\ALANQF\13-Oct-2
 024\0\\#p b3lyp 6-31++g(d,p) scf=verytight NoSymm freq=noraman int=ult
 rafine\\RxCoord=3.29884 DE=46.31\\-1,1\C,-0.361825,-0.000014,0.000898\
 Cl,-2.19195,-0.000003,-0.000053\H,-0.028492,0.002374,-1.031791\H,-0.02
 9705,0.893395,0.519754\H,-0.029721,-0.895814,0.51562\C,2.482656,0.0000
 4,-0.001451\N,3.662669,-0.000011,0.000347\\Version=ES64L-G16RevB.01\HF
 =-592.9941861\RMSD=1.987e-09\RMSF=3.359e-03\ZeroPoint=0.0433221\Therma
 l=0.0485012\Dipole=-3.926761,-0.0000304,0.001482\DipoleDeriv=1.7004798
 ,0.000003,0.0001911,-0.0000049,0.0615241,-0.0000018,0.000716,-0.000001
 8,0.0610692,-1.3590164,-0.0000023,-0.0000464,0.0000014,-0.2851493,0.00
 00004,-0.0002911,0.0000004,-0.2851611,-0.0264281,-0.0000026,0.0016137,
 -0.0000454,0.0820307,0.000204,0.0209629,0.0002038,-0.0062229,-0.027072
 5,-0.0015346,-0.0009895,-0.018467,0.0156802,-0.0385105,-0.0109448,-0.0
 385124,0.0596746,-0.0270853,0.0015421,-0.0009829,0.0185255,0.0153208,0
 .0383076,-0.0108605,0.0383097,0.0600284,-0.2450073,-0.0000168,0.000559
 6,-0.0000415,-0.467284,0.0000004,0.0015536,0.0000005,-0.4672389,-1.015
 8702,0.0000113,-0.0003455,0.0000319,-0.4221226,-0.0000001,-0.0011362,-
 0.0000001,-0.4221495\Polar=88.7317484,-0.00038,39.8912037,0.0169107,-0
 .000019,39.8892582\Quadrupole=-27.3709775,13.6851697,13.6858078,-0.000
 0402,0.0011572,-0.0000027\PG=C01 [X(C2H3Cl1N1)]\NImag=2\\0.25228700,0.
 00000114,0.59941440,-0.00027080,-0.00000442,0.59962873,-0.09228656,0.0
 0000065,-0.00004275,0.17937905,0.00000048,-0.03346656,-0.00000002,-0.0
 0000114,0.01793692,-0.00003878,0.,-0.03348220,0.00009958,-0.00000009,0
 .01793414,-0.05512059,-0.00019582,0.08479100,-0.02474379,-0.00004520,0
 .01959251,0.07431763,-0.00019288,-0.04953075,0.00063881,0.00001428,0.0
 0061881,-0.00001827,0.00020155,0.04613178,0.08347810,0.00063878,-0.325
 61083,-0.00611396,-0.00001813,0.00848501,-0.08718885,-0.00067418,0.337
 53524,-0.05497304,-0.07300384,-0.04239790,-0.02474967,-0.01697815,-0.0
 0986969,0.00407471,0.00717957,0.00434899,0.07415630,-0.07188129,-0.256
 00948,-0.11990100,0.00525229,0.00648868,0.00340759,-0.00013908,0.00206
 240,0.00241864,0.07508834,0.26408942,-0.04173596,-0.11990231,-0.119167
 40,0.00303250,0.00339292,0.00259404,-0.00836675,-0.02505726,-0.0111491
 3,0.04361257,0.12656806,0.11961984,-0.05497146,0.07319742,-0.04205853,
 -0.02474994,0.01702423,-0.00979136,0.00407463,-0.00719992,0.00431567,0
 .00406849,-0.00733147,0.00403757,0.07415442,0.07207190,-0.25711918,0.1
 1926674,-0.00526569,0.00651974,-0.00338926,0.00017754,0.00195758,-0.00
 235815,0.00731245,-0.01765417,0.01368520,-0.07528749,0.26526064,-0.041
 40199,0.11926805,-0.11806309,0.00300804,-0.00337470,0.00256275,-0.0083
 6599,0.02511786,-0.01104398,0.00407127,-0.01380645,0.00857242,0.043263
 80,-0.12589838,0.11845370,-0.00120479,0.00000027,-0.00001394,-0.006272
 42,-0.00000013,0.00000556,-0.00277076,-0.00000105,0.00045272,-0.002741
 42,-0.00038551,-0.00022556,-0.00274070,0.00038647,-0.00022371,1.145003
 59,0.00000116,-0.00425237,-0.00000016,-0.00000086,0.00228727,0.0000000
 3,0.00000088,-0.00156923,-0.00000883,0.00035817,0.00131997,0.00167685,
 -0.00035920,0.00133568,-0.00166793,-0.00004884,-0.00024339,-0.00005009
 ,-0.00000016,-0.00427566,0.00003393,0.00000003,0.00229190,-0.00041076,
 -0.00000885,0.00229019,0.00020921,0.00167740,-0.00058398,0.00020751,-0
 .00166846,-0.00059934,0.00172572,-0.00000005,-0.00024459,0.00626944,0.
 00000018,-0.00000709,-0.00657668,-0.00000008,0.00000218,0.00016817,-0.
 00000155,0.00070733,0.00016464,-0.00060328,-0.00035437,0.00016456,0.00
 060481,-0.00035142,-1.12927349,0.00004870,-0.00171552,1.12908337,-0.00
 000051,0.00096395,0.00000005,0.00000048,-0.00038486,0.,0.00000011,0.00
 032940,0.00000187,0.00004347,-0.00029681,-0.00036346,-0.00004358,-0.00
 030029,0.00036154,0.00004880,0.00112208,0.00000008,-0.00004877,-0.0014
 3347,0.00001952,0.00000005,0.00097044,-0.00001734,0.,-0.00038564,-0.00
 005115,0.00000190,-0.00050650,0.00002554,-0.00036425,0.00011420,0.0000
 2534,0.00036230,0.00011753,-0.00172080,0.00000008,0.00112149,0.0017188
 9,-0.00000008,-0.00143152\\-0.00587227,-0.00000182,-0.00004797,0.01338
 862,-0.00000007,0.00001090,-0.00080086,0.00000317,-0.00125928,-0.00082
 263,0.00110586,0.00065464,-0.00082387,-0.00110726,0.00064892,-0.001218
 34,0.00000002,-0.00000412,-0.00385065,0.00000010,-0.00000309\\\@


 CHARLIE BROWN -- WHICH DO YOU THINK LASTS LONGER IN LIFE, THE GOOD THINGS 
                  OR THE BAD THINGS?
 LINUS --         GOOD THINGS LAST EIGHT SECONDS ..
                  BAD THINGS LAST THREE WEEKS
 CHARLIE BROWN -- WHAT ABOUT IN BETWEEN?
 SNOOPY --        IN BETWEEN YOU SHOULD TAKE A NAP ...
 Job cpu time:       0 days  0 hours  3 minutes 47.7 seconds.
 Elapsed time:       0 days  0 hours  0 minutes 10.1 seconds.
 File lengths (MBytes):  RWF=     88 Int=      0 D2E=      0 Chk=      2 Scr=      2
 Normal termination of Gaussian 16 at Sun Oct 13 09:52:03 2024.
