RxCoord=3.39866 DE=46.19                                                
Freq      RB3LYP                                                      6-31++G(d,p)        
Number of atoms                            I                7
Info1-9                                    I   N=           9
          16          16           0           0           0         100
           6          18        -502
Full Title                                 C   N=           2
RxCoord=3.39866 DE=46.19
Route                                      C   N=           6
#p b3lyp 6-31++g(d,p) scf=verytight NoSymm freq=noraman int=
ultrafine   
Charge                                     I               -1
Multiplicity                               I                1
Number of electrons                        I               40
Number of alpha electrons                  I               20
Number of beta electrons                   I               20
Number of basis functions                  I               98
Number of independent functions            I               98
Number of point charges in /Mol/           I                0
Number of translation vectors              I                0
Atomic numbers                             I   N=           7
           6          17           1           1           1           6
           7
Nuclear charges                            R   N=           7
  6.00000000E+00  1.70000000E+01  1.00000000E+00  1.00000000E+00  1.00000000E+00
  6.00000000E+00  7.00000000E+00
Current cartesian coordinates              R   N=          21
 -6.90347189E-01 -2.64561657E-05  2.05602202E-03 -4.15016549E+00 -5.66917837E-06
 -1.24721924E-04 -7.00275810E-02  4.47865092E-03 -1.94883676E+00 -7.26618592E-02
  1.68785613E+00  9.82323103E-01 -7.26807565E-02 -1.69243494E+00  9.74516645E-01
  4.70712069E+00  7.93684972E-05 -3.16151181E-03  6.93721295E+00 -2.26767135E-05
  6.84080857E-04
Number of symbols in /Mol/                 I                0
Force Field                                I                0
Atom Types                                 C   N=           7
                                                            
                        
Int Atom Types                             I   N=           7
           0           0           0           0           0           0
           0
MM charges                                 R   N=           7
  0.00000000E+00  0.00000000E+00  0.00000000E+00  0.00000000E+00  0.00000000E+00
  0.00000000E+00  0.00000000E+00
Integer atomic weights                     I   N=           7
          12          35           1           1           1          12
          14
Real atomic weights                        R   N=           7
  1.20000000E+01  3.49688527E+01  1.00782504E+00  1.00782504E+00  1.00782504E+00
  1.20000000E+01  1.40030740E+01
Atom fragment info                         I   N=           7
           0           0           0           0           0           0
           0
Atom residue num                           I   N=           7
           0           0           0           0           0           0
           0
Nuclear spins                              I   N=           7
           0           3           1           1           1           0
           2
Nuclear ZEff                               R   N=           7
 -3.60000000E+00 -1.42400000E+01 -1.00000000E+00 -1.00000000E+00 -1.00000000E+00
 -3.60000000E+00 -4.55000000E+00
Nuclear ZNuc                               R   N=           7
  6.00000000E+00  1.70000000E+01  1.00000000E+00  1.00000000E+00  1.00000000E+00
  6.00000000E+00  7.00000000E+00
Nuclear QMom                               R   N=           7
  0.00000000E+00 -8.16500000E+00  0.00000000E+00  0.00000000E+00  0.00000000E+00
  0.00000000E+00  2.04400000E+00
Nuclear GFac                               R   N=           7
  0.00000000E+00  8.21874000E-01  2.79284600E+00  2.79284600E+00  2.79284600E+00
  0.00000000E+00  4.03761000E-01
MicOpt                                     I   N=           7
          -1          -1          -1          -1          -1          -1
          -1
Number of residues                         I                0
Number of secondary structures             I                0
Number of contracted shells                I               33
Number of primitive shells                 I               72
Pure/Cartesian d shells                    I                1
Pure/Cartesian f shells                    I                0
Highest angular momentum                   I                2
Largest degree of contraction              I                6
Shell types                                I   N=          33
           0          -1          -1          -1           2           0
          -1          -1          -1          -1           2           0
           0           0           1           0           0           0
           1           0           0           0           1           0
          -1          -1          -1           2           0          -1
          -1          -1           2
Number of primitives per shell             I   N=          33
           6           3           1           1           1           6
           6           3           1           1           1           3
           1           1           1           3           1           1
           1           3           1           1           1           6
           3           1           1           1           6           3
           1           1           1
Shell to atom map                          I   N=          33
           1           1           1           1           1           2
           2           2           2           2           2           3
           3           3           3           4           4           4
           4           5           5           5           5           6
           6           6           6           6           7           7
           7           7           7
Primitive exponents                        R   N=          72
  3.04752488E+03  4.57369518E+02  1.03948685E+02  2.92101553E+01  9.28666296E+00
  3.16392696E+00  7.86827235E+00  1.88128854E+00  5.44249258E-01  1.68714478E-01
  4.38000000E-02  8.00000000E-01  2.51801000E+04  3.78035000E+03  8.60474000E+02
  2.42145000E+02  7.73349000E+01  2.62470000E+01  4.91765000E+02  1.16984000E+02
  3.74153000E+01  1.37834000E+01  5.45215000E+00  2.22588000E+00  3.18649000E+00
  1.14427000E+00  4.20377000E-01  1.42657000E-01  4.83000000E-02  7.50000000E-01
  1.87311370E+01  2.82539436E+00  6.40121692E-01  1.61277759E-01  3.60000000E-02
  1.10000000E+00  1.87311370E+01  2.82539436E+00  6.40121692E-01  1.61277759E-01
  3.60000000E-02  1.10000000E+00  1.87311370E+01  2.82539436E+00  6.40121692E-01
  1.61277759E-01  3.60000000E-02  1.10000000E+00  3.04752488E+03  4.57369518E+02
  1.03948685E+02  2.92101553E+01  9.28666296E+00  3.16392696E+00  7.86827235E+00
  1.88128854E+00  5.44249258E-01  1.68714478E-01  4.38000000E-02  8.00000000E-01
  4.17351146E+03  6.27457911E+02  1.42902093E+02  4.02343293E+01  1.28202129E+01
  4.39043701E+00  1.16263619E+01  2.71627981E+00  7.72218397E-01  2.12031498E-01
  6.39000000E-02  8.00000000E-01
Contraction coefficients                   R   N=          72
  1.83473713E-03  1.40373228E-02  6.88426223E-02  2.32184443E-01  4.67941348E-01
  3.62311985E-01 -1.19332420E-01 -1.60854152E-01  1.14345644E+00  1.00000000E+00
  1.00000000E+00  1.00000000E+00  1.83295985E-03  1.40341988E-02  6.90973943E-02
  2.37451980E-01  4.83033960E-01  3.39855972E-01 -2.29739142E-03 -3.07137189E-02
 -1.12528069E-01  4.50163278E-02  5.89353363E-01  4.65206287E-01 -2.51828028E-01
  6.15892514E-02  1.06018433E+00  1.00000000E+00  1.00000000E+00  1.00000000E+00
  3.34946043E-02  2.34726953E-01  8.13757326E-01  1.00000000E+00  1.00000000E+00
  1.00000000E+00  3.34946043E-02  2.34726953E-01  8.13757326E-01  1.00000000E+00
  1.00000000E+00  1.00000000E+00  3.34946043E-02  2.34726953E-01  8.13757326E-01
  1.00000000E+00  1.00000000E+00  1.00000000E+00  1.83473713E-03  1.40373228E-02
  6.88426223E-02  2.32184443E-01  4.67941348E-01  3.62311985E-01 -1.19332420E-01
 -1.60854152E-01  1.14345644E+00  1.00000000E+00  1.00000000E+00  1.00000000E+00
  1.83477216E-03  1.39946270E-02  6.85865518E-02  2.32240873E-01  4.69069948E-01
  3.60455199E-01 -1.14961182E-01 -1.69117479E-01  1.14585195E+00  1.00000000E+00
  1.00000000E+00  1.00000000E+00
P(S=P) Contraction coefficients            R   N=          72
  0.00000000E+00  0.00000000E+00  0.00000000E+00  0.00000000E+00  0.00000000E+00
  0.00000000E+00  6.89990666E-02  3.16423961E-01  7.44308291E-01  1.00000000E+00
  1.00000000E+00  0.00000000E+00  0.00000000E+00  0.00000000E+00  0.00000000E+00
  0.00000000E+00  0.00000000E+00  0.00000000E+00  3.98940088E-03  3.03177067E-02
  1.29880029E-01  3.27951072E-01  4.53527100E-01  2.52154056E-01 -1.42993147E-02
  3.23572333E-01  7.43507765E-01  1.00000000E+00  1.00000000E+00  0.00000000E+00
  0.00000000E+00  0.00000000E+00  0.00000000E+00  0.00000000E+00  0.00000000E+00
  0.00000000E+00  0.00000000E+00  0.00000000E+00  0.00000000E+00  0.00000000E+00
  0.00000000E+00  0.00000000E+00  0.00000000E+00  0.00000000E+00  0.00000000E+00
  0.00000000E+00  0.00000000E+00  0.00000000E+00  0.00000000E+00  0.00000000E+00
  0.00000000E+00  0.00000000E+00  0.00000000E+00  0.00000000E+00  6.89990666E-02
  3.16423961E-01  7.44308291E-01  1.00000000E+00  1.00000000E+00  0.00000000E+00
  0.00000000E+00  0.00000000E+00  0.00000000E+00  0.00000000E+00  0.00000000E+00
  0.00000000E+00  6.75797439E-02  3.23907296E-01  7.40895140E-01  1.00000000E+00
  1.00000000E+00  0.00000000E+00
Coordinates of each shell                  R   N=          99
 -6.90347189E-01 -2.64561657E-05  2.05602202E-03 -6.90347189E-01 -2.64561657E-05
  2.05602202E-03 -6.90347189E-01 -2.64561657E-05  2.05602202E-03 -6.90347189E-01
 -2.64561657E-05  2.05602202E-03 -6.90347189E-01 -2.64561657E-05  2.05602202E-03
 -4.15016549E+00 -5.66917837E-06 -1.24721924E-04 -4.15016549E+00 -5.66917837E-06
 -1.24721924E-04 -4.15016549E+00 -5.66917837E-06 -1.24721924E-04 -4.15016549E+00
 -5.66917837E-06 -1.24721924E-04 -4.15016549E+00 -5.66917837E-06 -1.24721924E-04
 -4.15016549E+00 -5.66917837E-06 -1.24721924E-04 -7.00275810E-02  4.47865092E-03
 -1.94883676E+00 -7.00275810E-02  4.47865092E-03 -1.94883676E+00 -7.00275810E-02
  4.47865092E-03 -1.94883676E+00 -7.00275810E-02  4.47865092E-03 -1.94883676E+00
 -7.26618592E-02  1.68785613E+00  9.82323103E-01 -7.26618592E-02  1.68785613E+00
  9.82323103E-01 -7.26618592E-02  1.68785613E+00  9.82323103E-01 -7.26618592E-02
  1.68785613E+00  9.82323103E-01 -7.26807565E-02 -1.69243494E+00  9.74516645E-01
 -7.26807565E-02 -1.69243494E+00  9.74516645E-01 -7.26807565E-02 -1.69243494E+00
  9.74516645E-01 -7.26807565E-02 -1.69243494E+00  9.74516645E-01  4.70712069E+00
  7.93684972E-05 -3.16151181E-03  4.70712069E+00  7.93684972E-05 -3.16151181E-03
  4.70712069E+00  7.93684972E-05 -3.16151181E-03  4.70712069E+00  7.93684972E-05
 -3.16151181E-03  4.70712069E+00  7.93684972E-05 -3.16151181E-03  6.93721295E+00
 -2.26767135E-05  6.84080857E-04  6.93721295E+00 -2.26767135E-05  6.84080857E-04
  6.93721295E+00 -2.26767135E-05  6.84080857E-04  6.93721295E+00 -2.26767135E-05
  6.84080857E-04  6.93721295E+00 -2.26767135E-05  6.84080857E-04
Num ILSW                                   I              100
ILSW                                       I   N=         100
           0           1           0           0           2           0
           0           0           0           0         402          -1
           5           0           0           0           2           0
           0           0           0           0           1           0
           1           1           0           0           0           0
           0           0      100000           0          -1           0
           0           0           0           0           0           0
           0           0           0           1           0           0
           0 -2000000000           1           0           0           0
           0           0           4          52           0           0
           0           0           5           0           0           0
           0           0           0           7           0           1
           0           0           0           0           0           0
           0           0           0           0           0           0
           0           0           0           0           0           0
           0           0           0           0           0           0
           0           0           0           0
Num RLSW                                   I               52
RLSW                                       R   N=          52
  8.00000000E-01  7.20000000E-01  1.00000000E+00  8.10000000E-01  2.00000000E-01
  0.00000000E+00  0.00000000E+00  1.00000000E+00  0.00000000E+00  0.00000000E+00
  0.00000000E+00  0.00000000E+00  1.00000000E+00  0.00000000E+00  0.00000000E+00
  0.00000000E+00  0.00000000E+00  1.00000000E+00  0.00000000E+00  0.00000000E+00
  0.00000000E+00  0.00000000E+00  1.00000000E+00  0.00000000E+00  0.00000000E+00
  0.00000000E+00  0.00000000E+00  1.00000000E+00  0.00000000E+00  0.00000000E+00
  0.00000000E+00  0.00000000E+00  1.00000000E+00  0.00000000E+00  0.00000000E+00
  0.00000000E+00  0.00000000E+00  0.00000000E+00  1.00000000E+00  1.00000000E+00
  0.00000000E+00  1.00000000E+00  0.00000000E+00  0.00000000E+00  0.00000000E+00
  0.00000000E+00  0.00000000E+00  0.00000000E+00  0.00000000E+00  0.00000000E+00
  0.00000000E+00  0.00000000E+00
MxBond                                     I                4
NBond                                      I   N=           7
           4           1           1           1           1           1
           1
IBond                                      I   N=          28
           2           3           4           5           1           0
           0           0           1           0           0           0
           1           0           0           0           1           0
           0           0           7           0           0           0
           6           0           0           0
RBond                                      R   N=          28
  1.00000000E+00  1.00000000E+00  1.00000000E+00  1.00000000E+00  1.00000000E+00
  0.00000000E+00  0.00000000E+00  0.00000000E+00  1.00000000E+00  0.00000000E+00
  0.00000000E+00  0.00000000E+00  1.00000000E+00  0.00000000E+00  0.00000000E+00
  0.00000000E+00  1.00000000E+00  0.00000000E+00  0.00000000E+00  0.00000000E+00
  2.00000000E+00  0.00000000E+00  0.00000000E+00  0.00000000E+00  2.00000000E+00
  0.00000000E+00  0.00000000E+00  0.00000000E+00
Virial Ratio                               R      2.004523018728135E+00
SCF Energy                                 R     -5.929942774677475E+02
Total Energy                               R     -5.929942774677475E+02
RMS Force                                  R      3.255230491422205E-03
RMS Density                                R      1.943132996997982E-09
NImag                                      I                2
Job Status                                 I                1
Nuclear derivative order                   I                2
External E-field                           R   N=          35
  0.00000000E+00  0.00000000E+00  0.00000000E+00  0.00000000E+00  0.00000000E+00
  0.00000000E+00  0.00000000E+00  0.00000000E+00  0.00000000E+00  0.00000000E+00
  0.00000000E+00  0.00000000E+00  0.00000000E+00  0.00000000E+00  0.00000000E+00
  0.00000000E+00  0.00000000E+00  0.00000000E+00  0.00000000E+00  0.00000000E+00
  0.00000000E+00  0.00000000E+00  0.00000000E+00  0.00000000E+00  0.00000000E+00
  0.00000000E+00  0.00000000E+00  0.00000000E+00  0.00000000E+00  0.00000000E+00
  0.00000000E+00  0.00000000E+00  0.00000000E+00  0.00000000E+00  0.00000000E+00
IOpCl                                      I                0
IROHF                                      I                0
Alpha Orbital Energies                     R   N=          98
 -1.01409634E+02 -1.40947662E+01 -1.00996853E+01 -9.95989502E+00 -9.32591570E+00
 -7.08889270E+00 -7.08057508E+00 -7.08057497E+00 -7.15648186E-01 -6.47941046E-01
 -5.39064660E-01 -3.07487924E-01 -3.07468782E-01 -2.76409670E-01 -1.82666701E-01
 -1.74869148E-01 -1.74868231E-01 -9.70331625E-02 -9.70326589E-02 -6.90705771E-02
  1.09165118E-01  1.28102116E-01  1.44995881E-01  1.45021240E-01  1.73198941E-01
  2.03294566E-01  2.03301445E-01  2.03821348E-01  2.20682995E-01  2.20820434E-01
  2.41411342E-01  2.49542246E-01  2.49614055E-01  2.70900501E-01  2.75786577E-01
  2.75871416E-01  3.14023495E-01  3.35166695E-01  3.35290182E-01  3.61701891E-01
  3.85986288E-01  3.86066401E-01  3.87321877E-01  4.65261811E-01  4.80479058E-01
  6.50943651E-01  7.31269729E-01  7.44887613E-01  7.44903725E-01  7.73636834E-01
  7.73715396E-01  8.79110368E-01  8.96903503E-01  8.96939279E-01  9.77972146E-01
  9.94345281E-01  9.94389649E-01  1.04496693E+00  1.04504099E+00  1.08414895E+00
  1.09589454E+00  1.09595565E+00  1.12457938E+00  1.19023784E+00  1.19029190E+00
  1.23774214E+00  1.26835545E+00  1.37006407E+00  1.47065004E+00  1.60332215E+00
  1.60332305E+00  1.75526896E+00  1.78186397E+00  1.78186701E+00  1.80424883E+00
  1.80427281E+00  2.15700870E+00  2.20177816E+00  2.20180026E+00  2.21813263E+00
  2.21819066E+00  2.29548873E+00  2.49379606E+00  2.49389074E+00  2.67403492E+00
  2.82730856E+00  2.83486970E+00  2.83489628E+00  2.95770114E+00  2.95777031E+00
  3.25961719E+00  3.38886051E+00  3.55888048E+00  3.55905553E+00  4.21108800E+00
  4.41465217E+00  4.45758479E+00  4.57243101E+00
Alpha MO coefficients                      R   N=        9604
 -6.39286759E-06  2.56466878E-05 -5.24428910E-05  6.33186372E-10 -4.63059511E-08
  1.13571677E-04 -3.69559386E-05  8.45690300E-10 -3.78311730E-08 -3.76978858E-05
 -9.41674861E-05 -1.99957540E-09  6.89072077E-08 -2.03339369E-05  1.24337980E-05
  1.24480935E-05  2.91174471E-10 -3.01355373E-08  1.11458372E-10  9.95996882E-01
  1.51507887E-02  3.98664228E-05 -2.95048598E-10  2.72583594E-08 -2.10651372E-02
 -1.77293407E-05  1.57453415E-11 -6.37812820E-09  1.88460180E-03 -5.00663166E-05
  5.48740109E-10 -4.72932122E-08 -4.22962479E-04 -2.53954628E-05  6.30368367E-10
 -3.89522055E-08  7.50256931E-03  7.52479523E-03  7.52479616E-03  1.87692838E-10
 -1.92867876E-08  9.02523960E-12 -2.72880007E-05 -3.15063021E-05  4.31488332E-05
  2.34557465E-05  2.80803044E-08 -1.22155538E-05 -2.73270868E-05 -3.13499605E-05
  4.29198091E-05  2.34298631E-05  1.05634751E-05  6.14786972E-06 -2.73273814E-05
 -3.13469305E-05  4.29149756E-05  2.34298110E-05 -1.05917203E-05  6.09878528E-06
 -4.39089773E-07  1.64101481E-06  2.73054508E-07  5.56359964E-10 -2.19495459E-08
 -1.12375538E-04 -9.19593315E-05  2.25507012E-09 -8.39669338E-08 -4.63397537E-06
 -8.30071113E-05 -2.35660406E-09  1.20913945E-07 -1.06774268E-05  7.06556064E-07
  7.08131953E-07  6.29379227E-10 -2.31341169E-08  8.03900845E-12 -1.98765537E-06
 -7.85410058E-06 -1.00732602E-06  1.49017296E-11 -1.25232145E-09  1.16789152E-04
 -6.33953504E-05  3.15342658E-09 -1.15967026E-07  9.71630769E-05  1.09668675E-05
  3.51893266E-09 -1.50807244E-07  3.78634836E-06 -5.92808044E-06 -5.92842052E-06
 -7.18822366E-10  2.74212677E-08 -3.89797260E-12  3.71050794E-06  1.63137766E-05
  2.02639934E-06  5.04238717E-10 -2.04885861E-08 -3.45841118E-05 -3.40020675E-05
 -1.04047130E-09  6.43844274E-08  1.07900220E-03  9.41760756E-05  1.92160881E-08
 -8.69003051E-07  4.41145655E-07  9.45430366E-06  9.44558809E-06 -1.16052473E-10
  4.89847596E-09 -1.61210159E-11  1.31839740E-07  2.39867363E-06 -2.01347313E-07
  5.02395568E-11 -2.00080343E-09  5.82791844E-06  1.55752216E-06 -2.93512437E-10
  1.18693137E-08 -6.03454970E-05 -2.86138669E-05  1.30991400E-09 -6.41533023E-08
 -1.75629160E-04 -7.56959618E-05 -9.92482313E-09  3.85201053E-07  3.28006481E-06
  4.61189706E-06  4.61145914E-06 -5.99829635E-11  5.71632471E-10 -1.27314352E-12
  9.57106885E-06 -4.82723341E-05 -1.74916101E-04  7.83233757E-07  6.95730938E-09
 -2.99301512E-06  9.54886960E-06 -4.81662964E-05 -1.75380702E-04  8.42216066E-07
  2.56979858E-06  1.49085608E-06  9.54796645E-06 -4.81620330E-05 -1.75399484E-04
  8.43205332E-07 -2.57609556E-06  1.47868722E-06  8.36111385E-05  2.08582576E-04
 -2.82185622E-04  1.25517154E-08 -4.71357189E-07 -2.48311685E-04 -4.25114650E-04
  2.14934343E-08 -8.18669227E-07  1.45549496E-03  1.01496995E-03 -4.22857774E-08
  1.54258695E-06 -7.59047943E-04 -1.34397919E-05 -1.34399111E-05  3.94659295E-08
 -1.48641835E-06  7.22480231E-11  9.92698194E-01  3.44428630E-02 -1.39843822E-03
  6.38694058E-08 -2.41115583E-06  5.21558384E-03  1.07540021E-04 -4.98233177E-09
  1.89694928E-07 -3.00794897E-03  5.89628102E-05 -5.52747764E-09  2.32123132E-07
 -7.70732491E-03 -8.42272632E-03 -8.42272516E-03 -3.76100311E-08  1.41663623E-06
 -7.49808487E-11  9.92990247E-01  4.96547366E-02 -7.15227798E-04 -1.50747698E-08
  8.49083996E-07 -1.65154977E-02  8.73555963E-04  2.89508866E-10 -6.32884653E-07
  6.55748278E-03 -3.08474062E-03  1.18053251E-08 -1.78305924E-06 -9.28561983E-03
 -8.86448943E-03 -8.86481196E-03  1.08036030E-09 -2.21953829E-07 -1.10615107E-09
 -9.22393973E-06 -4.92424832E-05 -2.62068954E-06  1.47719539E-10 -1.45962596E-08
 -1.78504152E-05  1.87888784E-04 -1.98119962E-09  1.99992929E-07  3.21028060E-03
  1.85418973E-03 -9.62066326E-09  1.03651765E-06 -5.48005317E-03 -1.83438432E-03
  1.45971947E-08 -1.27126762E-06 -1.34768199E-04 -1.75697922E-04 -1.75654463E-04
  2.23634590E-10 -1.24040803E-10 -1.53957038E-12 -1.54816762E-04  3.03880758E-03
 -9.14059196E-04  3.01465727E-05  2.20229429E-07 -9.53549589E-05 -1.55328666E-04
  3.04010741E-03 -9.14882050E-04  3.04034617E-05  8.29019863E-05  4.81985246E-05
 -1.55336903E-04  3.04010539E-03 -9.14895544E-04  3.04089194E-05 -8.31336809E-05
  4.78204034E-05 -1.94819479E-05 -5.72673322E-05  4.35949011E-05  6.72425355E-09
 -3.96260568E-07 -4.20039059E-04 -8.52699378E-04 -4.48297037E-09  7.93122224E-07
  1.67879530E-03  5.45860567E-04 -3.32025474E-08  2.37940693E-06 -4.18686667E-05
 -3.59588694E-05 -3.60579878E-05  5.64247825E-09 -2.59887615E-07 -4.86256016E-10
 -3.03742659E-05 -1.12301471E-04 -7.06535736E-06 -4.72482691E-09  2.17372816E-07
  1.19010637E-03 -3.56763765E-04  4.04650991E-08 -1.73074047E-06 -1.00500603E-03
 -1.61397049E-04 -1.30204138E-08 -1.53625105E-07 -2.80725683E-05 -7.38903412E-05
 -7.38798655E-05 -3.68667865E-09  1.81920173E-07  4.08712585E-11 -1.83897105E-05
 -8.75499355E-05 -9.00951026E-05  8.26045025E-10 -5.85842117E-08  4.91786216E-04
  5.31347605E-04 -1.50825210E-08  1.20257625E-06 -1.66612931E-03  3.42610429E-03
  2.04716066E-09  5.29797215E-07 -2.68796531E-05 -3.08938360E-05 -3.09886815E-05
  1.21996487E-10  1.92991125E-09 -4.96027442E-10  1.32193740E-07  6.19794729E-06
  3.99341066E-06 -1.18581193E-10  1.21657143E-08  1.38971930E-05 -2.76017499E-05
  6.24356915E-10 -6.80742751E-08 -1.45236038E-04  2.94591156E-04 -9.77714255E-10
  1.96116715E-07  4.58701720E-03  1.09114417E-03 -1.37402371E-08  1.18653131E-06
  4.19162377E-05 -1.14800689E-06 -1.16436374E-06 -2.45898518E-10  3.37029442E-08
 -2.46826234E-11 -3.24275282E-05 -4.77213989E-04 -1.74661617E-04 -3.62907916E-05
  3.92798702E-08 -1.66200608E-05 -3.22725279E-05 -4.79042539E-04 -1.70882626E-04
 -3.66782828E-05  1.46355947E-05  8.41544914E-06 -3.22716414E-05 -4.79064114E-04
 -1.70818593E-04 -3.66836991E-05 -1.46772823E-05  8.35042399E-06  9.92842953E-01
  4.93029556E-02  1.88357059E-03 -9.30450655E-08  3.53974320E-06 -1.11020602E-02
 -9.27491075E-04  7.23893286E-08 -2.87980748E-06 -6.23172519E-03 -8.73028808E-04
  1.49585659E-07 -6.99377649E-06 -8.45890952E-03 -9.70101919E-03 -9.70099203E-03
 -6.58087358E-08  2.49796597E-06  2.33966502E-11 -4.93205224E-04  2.99817565E-05
  4.41069822E-04 -1.94261567E-08  7.42722456E-07 -8.82236524E-04  4.34507021E-04
 -2.71956065E-08  9.76668627E-07  8.91159881E-03 -3.18595240E-03  1.02324976E-07
 -3.10562695E-06 -2.75724541E-04  1.61821247E-04  1.61819714E-04  2.53348664E-08
 -9.67838718E-07  5.21903833E-11 -1.08448218E-04  1.31272077E-04  3.66621612E-04
 -2.48414952E-10  8.97205322E-08  2.97204742E-03 -1.57008938E-03 -2.27720987E-08
  9.12742705E-07 -3.78173839E-02  3.52292451E-02  3.08736738E-08  6.87984297E-06
 -7.63990263E-04 -1.25381721E-04 -1.25509505E-04  3.84256638E-09 -4.20478723E-07
 -1.46963198E-09 -2.84604410E-01  1.02274266E+00  4.87689189E-03 -4.08410801E-08
  3.61140785E-06  7.60402629E-02  6.05765148E-04 -1.57195991E-09  2.53337478E-07
 -2.65220752E-02 -1.71784219E-03  6.10626044E-09 -7.96433264E-07  6.29574400E-02
  1.74767402E-02 -1.82350783E-07  1.61252983E-05 -1.51908497E-02 -1.55797913E-02
 -1.55798213E-02 -4.21646731E-09  3.83848372E-07 -1.57402155E-10 -4.02733643E-05
 -7.29486490E-04  1.01871639E-03 -7.35343365E-05 -2.69803185E-08  1.27184985E-05
 -4.00063408E-05 -7.32911256E-04  1.02447885E-03 -7.39717463E-05 -1.06979777E-05
 -6.41125151E-06 -4.00028056E-05 -7.32970428E-04  1.02460914E-03 -7.39759870E-05
  1.07241817E-05 -6.35706403E-06  1.42418318E-05  6.39214284E-05  4.52105307E-05
 -2.11125732E-08  9.48246256E-07  3.06982833E-04  5.58007767E-04  4.80851846E-08
 -2.29095345E-06 -1.85795725E-02  1.00011418E-02  6.39550950E-07 -3.37892664E-05
  8.32311897E-05  6.17603590E-06  6.19091919E-06 -5.34839441E-09  2.56535799E-07
  1.34451700E-10  1.08169283E-05  5.78458178E-05 -1.77535956E-05 -1.12667183E-08
  5.57041428E-07 -7.61891246E-04  5.61906811E-04  2.32586569E-08 -1.51671367E-06
  7.37472576E-04 -2.73808343E-03 -3.56362270E-07  1.86090234E-05 -4.63632201E-05
  2.88009653E-05  2.87996341E-05  9.22599337E-09 -3.93033668E-07  8.45401200E-11
  7.00541057E-05  1.59347942E-03  3.78763846E-04 -8.89915022E-09  6.78973132E-07
 -7.33229388E-04  1.60409503E-03  4.33688884E-08 -3.12324338E-06  4.85027958E-02
 -5.39053476E-02 -8.07296564E-08 -6.40489650E-06 -1.95899216E-03  2.04661524E-04
  2.05291858E-04  1.70029588E-08 -1.62647732E-06  1.95255076E-09  1.43739021E-03
 -5.48208640E-03  9.90324057E-01 -6.68389171E-06  6.29812513E-04 -4.19720463E-04
  3.15040602E-02 -2.13441095E-07  2.01921723E-05  5.18631984E-03 -1.29320328E-02
  8.21810955E-08 -7.96484416E-06 -7.27068167E-02 -1.43282644E-02  2.39885349E-07
 -1.97808963E-05  7.52404318E-04 -4.67594040E-04 -4.67553953E-04 -8.59502100E-09
  8.89901025E-07  5.61370185E-11 -1.66381545E-04  1.39063078E-03 -5.55248511E-03
 -3.22044388E-04  7.05264276E-08 -3.12955745E-05 -1.65336904E-04  1.39392633E-03
 -5.55148889E-03 -3.22453513E-04  2.65461299E-05  1.54920839E-05 -1.65325571E-04
  1.39396286E-03 -5.55149263E-03 -3.22456528E-04 -2.66129638E-05  1.53646007E-05
 -2.35031587E-05 -1.59585047E-04 -9.65464430E-05  2.52356601E-08 -1.17327851E-06
  2.64833965E-03  1.62240651E-03 -1.61800310E-07  6.72500222E-06  3.99031892E-02
 -1.65985413E-02 -1.17328400E-06  6.03619065E-05  1.30557858E-04 -4.25924458E-05
 -4.26035175E-05 -9.21901660E-09  2.44228188E-07 -2.10706397E-10 -1.06492691E-05
 -1.99142222E-05  3.89446547E-05  1.81976344E-08 -9.13424813E-07 -8.59574147E-04
  8.28053160E-04 -1.22259384E-07  5.76617566E-06 -8.23090595E-03  5.83487224E-03
  5.29722123E-07 -2.87879516E-05 -1.31929332E-04  6.69992139E-07  6.79665785E-07
  1.02058420E-09  2.35332194E-08 -7.09500766E-11  1.06246712E-07  5.27120828E-07
  6.78813476E-07  2.87843271E-07 -8.41974830E-05 -2.92170242E-06 -4.21714540E-06
 -1.05332120E-06  3.09236258E-04  1.53492200E-05 -5.25335525E-05 -1.49497459E-06
  4.48458640E-04  8.56290095E-08 -8.61942149E-05  8.63657357E-05 -4.96610669E-07
  1.45108173E-04 -3.50220242E-07  1.38432641E-07 -5.96795442E-07 -6.30248373E-04
 -3.38643572E-03  9.90836663E-01 -8.14231451E-08 -1.85568649E-05 -1.01171961E-04
  2.96025924E-02  1.84462894E-06  4.89794929E-06  3.97711720E-05 -1.16394642E-02
 -5.93993293E-05 -1.68285569E-05 -1.77171491E-05  5.19090170E-03 -7.66675184E-07
  4.87931935E-06 -4.63301099E-06 -1.10691658E-06  3.23921809E-04  1.68269312E-08
  5.65101030E-05 -5.75846643E-04  4.72557387E-03  2.69457662E-04  1.46714319E-07
 -5.26139620E-05 -2.78620320E-05  2.92269876E-04 -2.35896067E-03 -1.34348441E-04
 -1.24963577E-05 -3.15926065E-05 -2.79703800E-05  2.93394655E-04 -2.36773270E-03
 -1.34864564E-04  1.27461539E-05 -3.15628470E-05 -4.16214640E-08 -9.74872661E-08
 -2.27994991E-07 -1.51103940E-07  4.44880418E-05 -1.28337879E-05 -1.04138643E-05
  5.80516311E-07 -1.72408623E-04  3.80366309E-05 -2.43239062E-05 -3.36869570E-06
  1.01114202E-03 -7.58342497E-07  3.67733052E-06 -3.41377891E-06  1.88685554E-08
 -5.79270268E-06  1.49000271E-08 -3.51221922E-07 -1.38810621E-06  9.69327296E-08
  6.37640018E-08 -1.95536176E-05  1.62904994E-05 -8.02569149E-06 -3.91640193E-07
  1.19621196E-04 -4.62214195E-07  7.95815627E-06  1.36235776E-06 -4.16550559E-04
  1.40127965E-07  8.11143156E-07 -2.66310009E-06  4.17257426E-08 -1.23692144E-05
  7.07769042E-09 -9.90123802E-10 -3.95685047E-09 -9.34686393E-09 -8.42696699E-05
 -2.87940599E-07  2.11165885E-08  6.12711366E-08  3.08436369E-04  1.05775947E-06
 -1.34564611E-07  5.90239163E-07  4.43673320E-04  1.55432843E-06 -2.35529921E-09
  3.02332041E-07 -3.04372269E-07  1.45252390E-04  4.95768580E-07 -9.96908270E-05
 -1.61294078E-09  6.60196670E-09  4.53398595E-06  9.90836911E-01  3.38643859E-03
  2.14484502E-10  1.33928447E-07  2.96023291E-02  1.01175943E-04 -1.00240247E-08
 -1.79690965E-08 -1.16383419E-02 -3.97866481E-05  6.60024199E-07  1.68598218E-07
  5.18849546E-03  1.77571162E-05  8.53585797E-09 -2.16170652E-08  1.89270492E-08
  3.23928508E-04  1.10727969E-06  5.95996022E-06  5.96454964E-08 -6.68646897E-07
  5.37589647E-06  2.96135537E-07 -2.42364103E-05 -1.15660460E-07 -4.86365063E-05
  5.03020622E-04 -4.07925070E-03 -2.33506213E-04 -4.58820745E-05 -1.28616295E-05
  4.85701567E-05 -5.02454970E-04  4.07386829E-03  2.33202966E-04 -4.59193256E-05
  1.25815329E-05  2.33083257E-10 -2.74956621E-11  3.88393751E-09  4.43764152E-05