RxCoord=3.49776 DE=46.07                                                
Freq      RB3LYP                                                      6-31++G(d,p)        
Number of atoms                            I                7
Info1-9                                    I   N=           9
          16          16           0           0           0         100
           6          18        -502
Full Title                                 C   N=           2
RxCoord=3.49776 DE=46.07
Route                                      C   N=           6
#p b3lyp 6-31++g(d,p) scf=verytight NoSymm freq=noraman int=
ultrafine   
Charge                                     I               -1
Multiplicity                               I                1
Number of electrons                        I               40
Number of alpha electrons                  I               20
Number of beta electrons                   I               20
Number of basis functions                  I               98
Number of independent functions            I               98
Number of point charges in /Mol/           I                0
Number of translation vectors              I                0
Atomic numbers                             I   N=           7
           6          17           1           1           1           6
           7
Nuclear charges                            R   N=           7
  6.00000000E+00  1.70000000E+01  1.00000000E+00  1.00000000E+00  1.00000000E+00
  6.00000000E+00  7.00000000E+00
Current cartesian coordinates              R   N=          21
 -7.00774698E-01 -2.83458919E-05  2.38483437E-03 -4.15808155E+00 -5.66917837E-06
 -1.39839733E-04 -7.09818927E-02  4.46920228E-03 -1.94907675E+00 -7.38618353E-02
  1.68840604E+00  9.82944823E-01 -7.38618353E-02 -1.69298107E+00  9.75149703E-01
  4.72264668E+00  8.12582234E-05 -3.55835429E-03  6.95285043E+00 -2.26767135E-05
  7.06757571E-04
Number of symbols in /Mol/                 I                0
Force Field                                I                0
Atom Types                                 C   N=           7
                                                            
                        
Int Atom Types                             I   N=           7
           0           0           0           0           0           0
           0
MM charges                                 R   N=           7
  0.00000000E+00  0.00000000E+00  0.00000000E+00  0.00000000E+00  0.00000000E+00
  0.00000000E+00  0.00000000E+00
Integer atomic weights                     I   N=           7
          12          35           1           1           1          12
          14
Real atomic weights                        R   N=           7
  1.20000000E+01  3.49688527E+01  1.00782504E+00  1.00782504E+00  1.00782504E+00
  1.20000000E+01  1.40030740E+01
Atom fragment info                         I   N=           7
           0           0           0           0           0           0
           0
Atom residue num                           I   N=           7
           0           0           0           0           0           0
           0
Nuclear spins                              I   N=           7
           0           3           1           1           1           0
           2
Nuclear ZEff                               R   N=           7
 -3.60000000E+00 -1.42400000E+01 -1.00000000E+00 -1.00000000E+00 -1.00000000E+00
 -3.60000000E+00 -4.55000000E+00
Nuclear ZNuc                               R   N=           7
  6.00000000E+00  1.70000000E+01  1.00000000E+00  1.00000000E+00  1.00000000E+00
  6.00000000E+00  7.00000000E+00
Nuclear QMom                               R   N=           7
  0.00000000E+00 -8.16500000E+00  0.00000000E+00  0.00000000E+00  0.00000000E+00
  0.00000000E+00  2.04400000E+00
Nuclear GFac                               R   N=           7
  0.00000000E+00  8.21874000E-01  2.79284600E+00  2.79284600E+00  2.79284600E+00
  0.00000000E+00  4.03761000E-01
MicOpt                                     I   N=           7
          -1          -1          -1          -1          -1          -1
          -1
Number of residues                         I                0
Number of secondary structures             I                0
Number of contracted shells                I               33
Number of primitive shells                 I               72
Pure/Cartesian d shells                    I                1
Pure/Cartesian f shells                    I                0
Highest angular momentum                   I                2
Largest degree of contraction              I                6
Shell types                                I   N=          33
           0          -1          -1          -1           2           0
          -1          -1          -1          -1           2           0
           0           0           1           0           0           0
           1           0           0           0           1           0
          -1          -1          -1           2           0          -1
          -1          -1           2
Number of primitives per shell             I   N=          33
           6           3           1           1           1           6
           6           3           1           1           1           3
           1           1           1           3           1           1
           1           3           1           1           1           6
           3           1           1           1           6           3
           1           1           1
Shell to atom map                          I   N=          33
           1           1           1           1           1           2
           2           2           2           2           2           3
           3           3           3           4           4           4
           4           5           5           5           5           6
           6           6           6           6           7           7
           7           7           7
Primitive exponents                        R   N=          72
  3.04752488E+03  4.57369518E+02  1.03948685E+02  2.92101553E+01  9.28666296E+00
  3.16392696E+00  7.86827235E+00  1.88128854E+00  5.44249258E-01  1.68714478E-01
  4.38000000E-02  8.00000000E-01  2.51801000E+04  3.78035000E+03  8.60474000E+02
  2.42145000E+02  7.73349000E+01  2.62470000E+01  4.91765000E+02  1.16984000E+02
  3.74153000E+01  1.37834000E+01  5.45215000E+00  2.22588000E+00  3.18649000E+00
  1.14427000E+00  4.20377000E-01  1.42657000E-01  4.83000000E-02  7.50000000E-01
  1.87311370E+01  2.82539436E+00  6.40121692E-01  1.61277759E-01  3.60000000E-02
  1.10000000E+00  1.87311370E+01  2.82539436E+00  6.40121692E-01  1.61277759E-01
  3.60000000E-02  1.10000000E+00  1.87311370E+01  2.82539436E+00  6.40121692E-01
  1.61277759E-01  3.60000000E-02  1.10000000E+00  3.04752488E+03  4.57369518E+02
  1.03948685E+02  2.92101553E+01  9.28666296E+00  3.16392696E+00  7.86827235E+00
  1.88128854E+00  5.44249258E-01  1.68714478E-01  4.38000000E-02  8.00000000E-01
  4.17351146E+03  6.27457911E+02  1.42902093E+02  4.02343293E+01  1.28202129E+01
  4.39043701E+00  1.16263619E+01  2.71627981E+00  7.72218397E-01  2.12031498E-01
  6.39000000E-02  8.00000000E-01
Contraction coefficients                   R   N=          72
  1.83473713E-03  1.40373228E-02  6.88426223E-02  2.32184443E-01  4.67941348E-01
  3.62311985E-01 -1.19332420E-01 -1.60854152E-01  1.14345644E+00  1.00000000E+00
  1.00000000E+00  1.00000000E+00  1.83295985E-03  1.40341988E-02  6.90973943E-02
  2.37451980E-01  4.83033960E-01  3.39855972E-01 -2.29739142E-03 -3.07137189E-02
 -1.12528069E-01  4.50163278E-02  5.89353363E-01  4.65206287E-01 -2.51828028E-01
  6.15892514E-02  1.06018433E+00  1.00000000E+00  1.00000000E+00  1.00000000E+00
  3.34946043E-02  2.34726953E-01  8.13757326E-01  1.00000000E+00  1.00000000E+00
  1.00000000E+00  3.34946043E-02  2.34726953E-01  8.13757326E-01  1.00000000E+00
  1.00000000E+00  1.00000000E+00  3.34946043E-02  2.34726953E-01  8.13757326E-01
  1.00000000E+00  1.00000000E+00  1.00000000E+00  1.83473713E-03  1.40373228E-02
  6.88426223E-02  2.32184443E-01  4.67941348E-01  3.62311985E-01 -1.19332420E-01
 -1.60854152E-01  1.14345644E+00  1.00000000E+00  1.00000000E+00  1.00000000E+00
  1.83477216E-03  1.39946270E-02  6.85865518E-02  2.32240873E-01  4.69069948E-01
  3.60455199E-01 -1.14961182E-01 -1.69117479E-01  1.14585195E+00  1.00000000E+00
  1.00000000E+00  1.00000000E+00
P(S=P) Contraction coefficients            R   N=          72
  0.00000000E+00  0.00000000E+00  0.00000000E+00  0.00000000E+00  0.00000000E+00
  0.00000000E+00  6.89990666E-02  3.16423961E-01  7.44308291E-01  1.00000000E+00
  1.00000000E+00  0.00000000E+00  0.00000000E+00  0.00000000E+00  0.00000000E+00
  0.00000000E+00  0.00000000E+00  0.00000000E+00  3.98940088E-03  3.03177067E-02
  1.29880029E-01  3.27951072E-01  4.53527100E-01  2.52154056E-01 -1.42993147E-02
  3.23572333E-01  7.43507765E-01  1.00000000E+00  1.00000000E+00  0.00000000E+00
  0.00000000E+00  0.00000000E+00  0.00000000E+00  0.00000000E+00  0.00000000E+00
  0.00000000E+00  0.00000000E+00  0.00000000E+00  0.00000000E+00  0.00000000E+00
  0.00000000E+00  0.00000000E+00  0.00000000E+00  0.00000000E+00  0.00000000E+00
  0.00000000E+00  0.00000000E+00  0.00000000E+00  0.00000000E+00  0.00000000E+00
  0.00000000E+00  0.00000000E+00  0.00000000E+00  0.00000000E+00  6.89990666E-02
  3.16423961E-01  7.44308291E-01  1.00000000E+00  1.00000000E+00  0.00000000E+00
  0.00000000E+00  0.00000000E+00  0.00000000E+00  0.00000000E+00  0.00000000E+00
  0.00000000E+00  6.75797439E-02  3.23907296E-01  7.40895140E-01  1.00000000E+00
  1.00000000E+00  0.00000000E+00
Coordinates of each shell                  R   N=          99
 -7.00774698E-01 -2.83458919E-05  2.38483437E-03 -7.00774698E-01 -2.83458919E-05
  2.38483437E-03 -7.00774698E-01 -2.83458919E-05  2.38483437E-03 -7.00774698E-01
 -2.83458919E-05  2.38483437E-03 -7.00774698E-01 -2.83458919E-05  2.38483437E-03
 -4.15808155E+00 -5.66917837E-06 -1.39839733E-04 -4.15808155E+00 -5.66917837E-06
 -1.39839733E-04 -4.15808155E+00 -5.66917837E-06 -1.39839733E-04 -4.15808155E+00
 -5.66917837E-06 -1.39839733E-04 -4.15808155E+00 -5.66917837E-06 -1.39839733E-04
 -4.15808155E+00 -5.66917837E-06 -1.39839733E-04 -7.09818927E-02  4.46920228E-03
 -1.94907675E+00 -7.09818927E-02  4.46920228E-03 -1.94907675E+00 -7.09818927E-02
  4.46920228E-03 -1.94907675E+00 -7.09818927E-02  4.46920228E-03 -1.94907675E+00
 -7.38618353E-02  1.68840604E+00  9.82944823E-01 -7.38618353E-02  1.68840604E+00
  9.82944823E-01 -7.38618353E-02  1.68840604E+00  9.82944823E-01 -7.38618353E-02
  1.68840604E+00  9.82944823E-01 -7.38618353E-02 -1.69298107E+00  9.75149703E-01
 -7.38618353E-02 -1.69298107E+00  9.75149703E-01 -7.38618353E-02 -1.69298107E+00
  9.75149703E-01 -7.38618353E-02 -1.69298107E+00  9.75149703E-01  4.72264668E+00
  8.12582234E-05 -3.55835429E-03  4.72264668E+00  8.12582234E-05 -3.55835429E-03
  4.72264668E+00  8.12582234E-05 -3.55835429E-03  4.72264668E+00  8.12582234E-05
 -3.55835429E-03  4.72264668E+00  8.12582234E-05 -3.55835429E-03  6.95285043E+00
 -2.26767135E-05  7.06757571E-04  6.95285043E+00 -2.26767135E-05  7.06757571E-04
  6.95285043E+00 -2.26767135E-05  7.06757571E-04  6.95285043E+00 -2.26767135E-05
  7.06757571E-04  6.95285043E+00 -2.26767135E-05  7.06757571E-04
Num ILSW                                   I              100
ILSW                                       I   N=         100
           0           1           0           0           2           0
           0           0           0           0         402          -1
           5           0           0           0           2           0
           0           0           0           0           1           0
           1           1           0           0           0           0
           0           0      100000           0          -1           0
           0           0           0           0           0           0
           0           0           0           1           0           0
           0 -2000000000           1           0           0           0
           0           0           4          52           0           0
           0           0           5           0           0           0
           0           0           0           7           0           1
           0           0           0           0           0           0
           0           0           0           0           0           0
           0           0           0           0           0           0
           0           0           0           0           0           0
           0           0           0           0
Num RLSW                                   I               52
RLSW                                       R   N=          52
  8.00000000E-01  7.20000000E-01  1.00000000E+00  8.10000000E-01  2.00000000E-01
  0.00000000E+00  0.00000000E+00  1.00000000E+00  0.00000000E+00  0.00000000E+00
  0.00000000E+00  0.00000000E+00  1.00000000E+00  0.00000000E+00  0.00000000E+00
  0.00000000E+00  0.00000000E+00  1.00000000E+00  0.00000000E+00  0.00000000E+00
  0.00000000E+00  0.00000000E+00  1.00000000E+00  0.00000000E+00  0.00000000E+00
  0.00000000E+00  0.00000000E+00  1.00000000E+00  0.00000000E+00  0.00000000E+00
  0.00000000E+00  0.00000000E+00  1.00000000E+00  0.00000000E+00  0.00000000E+00
  0.00000000E+00  0.00000000E+00  0.00000000E+00  1.00000000E+00  1.00000000E+00
  0.00000000E+00  1.00000000E+00  0.00000000E+00  0.00000000E+00  0.00000000E+00
  0.00000000E+00  0.00000000E+00  0.00000000E+00  0.00000000E+00  0.00000000E+00
  0.00000000E+00  0.00000000E+00
MxBond                                     I                4
NBond                                      I   N=           7
           4           1           1           1           1           1
           1
IBond                                      I   N=          28
           2           3           4           5           1           0
           0           0           1           0           0           0
           1           0           0           0           1           0
           0           0           7           0           0           0
           6           0           0           0
RBond                                      R   N=          28
  1.00000000E+00  1.00000000E+00  1.00000000E+00  1.00000000E+00  1.00000000E+00
  0.00000000E+00  0.00000000E+00  0.00000000E+00  1.00000000E+00  0.00000000E+00
  0.00000000E+00  0.00000000E+00  1.00000000E+00  0.00000000E+00  0.00000000E+00
  0.00000000E+00  1.00000000E+00  0.00000000E+00  0.00000000E+00  0.00000000E+00
  2.00000000E+00  0.00000000E+00  0.00000000E+00  0.00000000E+00  2.00000000E+00
  0.00000000E+00  0.00000000E+00  0.00000000E+00
Virial Ratio                               R      2.004539972500961E+00
SCF Energy                                 R     -5.929943973169208E+02
Total Energy                               R     -5.929943973169208E+02
RMS Force                                  R      3.254061342475226E-03
RMS Density                                R      1.944187451612587E-09
NImag                                      I                2
Job Status                                 I                1
Nuclear derivative order                   I                2
External E-field                           R   N=          35
  0.00000000E+00  0.00000000E+00  0.00000000E+00  0.00000000E+00  0.00000000E+00
  0.00000000E+00  0.00000000E+00  0.00000000E+00  0.00000000E+00  0.00000000E+00
  0.00000000E+00  0.00000000E+00  0.00000000E+00  0.00000000E+00  0.00000000E+00
  0.00000000E+00  0.00000000E+00  0.00000000E+00  0.00000000E+00  0.00000000E+00
  0.00000000E+00  0.00000000E+00  0.00000000E+00  0.00000000E+00  0.00000000E+00
  0.00000000E+00  0.00000000E+00  0.00000000E+00  0.00000000E+00  0.00000000E+00
  0.00000000E+00  0.00000000E+00  0.00000000E+00  0.00000000E+00  0.00000000E+00
IOpCl                                      I                0
IROHF                                      I                0
Alpha Orbital Energies                     R   N=          98
 -1.01410507E+02 -1.40946098E+01 -1.01003493E+01 -9.95980588E+00 -9.32676592E+00
 -7.08976695E+00 -7.08141537E+00 -7.08141530E+00 -7.16332707E-01 -6.47750655E-01
 -5.39098427E-01 -3.07166241E-01 -3.07133737E-01 -2.77392654E-01 -1.82566661E-01
 -1.75371930E-01 -1.75369455E-01 -9.68505214E-02 -9.68500094E-02 -6.89522872E-02
  1.08986235E-01  1.27697892E-01  1.44856319E-01  1.44886352E-01  1.73227505E-01
  2.03069257E-01  2.03077651E-01  2.03532102E-01  2.20635820E-01  2.20784376E-01
  2.41157090E-01  2.49366679E-01  2.49447897E-01  2.70683969E-01  2.75831582E-01
  2.75925324E-01  3.13876260E-01  3.34376957E-01  3.34504159E-01  3.61360627E-01
  3.85922120E-01  3.86012565E-01  3.87476496E-01  4.65029863E-01  4.80264182E-01
  6.49210355E-01  7.30267735E-01  7.44376857E-01  7.44395827E-01  7.73503226E-01
  7.73589819E-01  8.78462545E-01  8.96850773E-01  8.96887300E-01  9.77097342E-01
  9.93750109E-01  9.93793829E-01  1.04442189E+00  1.04449634E+00  1.08345850E+00
  1.09521250E+00  1.09525888E+00  1.12498056E+00  1.19016627E+00  1.19022702E+00
  1.23448068E+00  1.26709144E+00  1.37041136E+00  1.46887524E+00  1.60248395E+00
  1.60250546E+00  1.75220545E+00  1.78204948E+00  1.78205283E+00  1.80438801E+00
  1.80441414E+00  2.15725342E+00  2.20190050E+00  2.20192581E+00  2.21769654E+00
  2.21776417E+00  2.29454645E+00  2.48852367E+00  2.48858217E+00  2.67487370E+00
  2.82687116E+00  2.83499076E+00  2.83501934E+00  2.95382096E+00  2.95391697E+00
  3.25891199E+00  3.38245581E+00  3.55567448E+00  3.55585840E+00  4.21065110E+00
  4.41335178E+00  4.45693786E+00  4.57164814E+00
Alpha MO coefficients                      R   N=        9604
 -6.40721798E-06  2.62004193E-05 -5.25601019E-05  6.97101392E-10 -5.06001688E-08
  1.14152673E-04 -3.52224188E-05  1.12964436E-09 -4.94101341E-08 -3.58775207E-05
 -9.09051277E-05 -2.38577681E-09  7.88278493E-08 -2.11819529E-05  1.22800339E-05
  1.22892556E-05  1.76502760E-10 -3.42057158E-08  2.27904324E-10  9.95996889E-01
  1.51507481E-02  4.00539208E-05 -3.81787505E-10  3.23555880E-08 -2.10652966E-02
 -1.76601547E-05  2.18387832E-11 -7.72046468E-09  1.88526805E-03 -4.94555181E-05
  5.86001634E-10 -5.25377741E-08 -4.20466409E-04 -2.51023636E-05  6.73297159E-10
 -4.37050508E-08  7.50282005E-03  7.52477217E-03  7.52477325E-03  1.77050676E-10
 -2.14075832E-08  1.08689372E-11 -2.71591771E-05 -3.20096692E-05  4.30873826E-05
  2.36755657E-05  2.80159217E-08 -1.22181393E-05 -2.72012984E-05 -3.18348839E-05
  4.28278287E-05  2.36518421E-05  1.05669006E-05  6.15326357E-06 -2.72009083E-05
 -3.18320881E-05  4.28221186E-05  2.36523686E-05 -1.05950829E-05  6.10421525E-06
 -3.97043991E-07  1.69284308E-06  2.00444517E-07  5.61582498E-10 -2.38225647E-08
 -1.10769722E-04 -8.97160669E-05  2.23513386E-09 -9.20127711E-08 -7.96719703E-06
 -8.08627956E-05 -2.34309074E-09  1.31322000E-07 -1.04386288E-05  7.83940482E-07
  7.85656295E-07  6.35477311E-10 -2.51740749E-08  4.47889945E-12 -1.93933237E-06
 -7.66384376E-06 -9.67399890E-07  1.42005031E-11 -1.50733970E-09  1.14111630E-04
 -6.22402109E-05  3.14444595E-09 -1.25228104E-07  9.67452530E-05  1.04739304E-05
  3.55983666E-09 -1.65558661E-07  3.75160094E-06 -5.80222046E-06 -5.80258991E-06
 -7.19518511E-10  2.98102837E-08 -3.84295795E-12  3.77171526E-06  1.61303442E-05
  2.55513166E-06  5.08086775E-10 -2.28632439E-08 -3.55306710E-05 -3.51021656E-05
 -7.62912859E-10  6.66444387E-08  1.06926832E-03  9.41735364E-05  1.90034957E-08
 -9.73807078E-07  1.07033101E-06  9.55451581E-06  9.54502732E-06 -1.31128111E-10
  5.50793884E-09  1.81754588E-11  1.33900462E-07  2.42072335E-06 -1.94891125E-07
  5.67149473E-11 -2.26891977E-09  5.95719031E-06  1.55743727E-06 -3.30237881E-10
  1.34751023E-08 -6.08843358E-05 -2.92088398E-05  1.42670120E-09 -7.27957717E-08
 -1.74299530E-04 -7.50735820E-05 -9.98183715E-09  4.28126439E-07  3.15701089E-06
  4.67456970E-06  4.67416170E-06 -5.41260196E-11  4.21763707E-10  5.81164074E-12
  9.73071543E-06 -4.74356162E-05 -1.73924859E-04  9.10554223E-07  6.68456754E-09
 -2.88468045E-06  9.70397807E-06 -4.73106075E-05 -1.74450775E-04  9.75440332E-07
  2.47381983E-06  1.43492192E-06  9.70303954E-06 -4.73058766E-05 -1.74472193E-04
  9.76288444E-07 -2.47980234E-06  1.42318190E-06  8.35842408E-05  2.08713258E-04
 -2.81921559E-04  1.27805340E-08 -5.22501527E-07 -2.47789166E-04 -4.24830879E-04
  2.18609138E-08 -9.06416562E-07  1.45920349E-03  1.01110896E-03 -4.35371920E-08
  1.70794587E-06 -7.58815619E-04 -1.34807081E-05 -1.34812042E-05  4.01860175E-08
 -1.64783554E-06  7.59191657E-11  9.92698291E-01  3.44424544E-02 -1.39799434E-03
  6.50388340E-08 -2.67335244E-06  5.21457156E-03  1.07610267E-04 -5.11828735E-09
  2.10423402E-07 -3.00654738E-03  5.98936629E-05 -5.35327967E-09  2.57791110E-07
 -7.70737337E-03 -8.42247265E-03 -8.42247110E-03 -3.82883927E-08  1.57049581E-06
 -8.42047961E-11  9.92991801E-01  4.96292580E-02 -7.19981865E-04 -1.31770610E-08
  9.13538793E-07 -1.64716281E-02  8.78230771E-04 -1.14768690E-08 -4.68451655E-07
  6.65449943E-03 -3.12412020E-03  1.59727291E-08 -1.89675519E-06 -9.27701901E-03
 -8.86366407E-03 -8.86408500E-03 -3.01623905E-12 -2.25605206E-07  1.19591841E-09
 -9.26578958E-06 -4.93479994E-05 -1.97341620E-06 -8.83038210E-11 -1.38313178E-08
 -1.56666263E-05  1.85164302E-04 -6.00167466E-10  2.14040237E-07  3.21706685E-03
  1.85655867E-03 -1.54498668E-08  1.22675190E-06 -5.55179006E-03 -1.85050519E-03
  1.88426009E-08 -1.55123440E-06 -1.39310862E-04 -1.76663146E-04 -1.76618360E-04
 -5.45631820E-10 -1.98494360E-09 -5.07328496E-10 -1.53773687E-04  3.02042765E-03
 -9.26846009E-04  2.97830307E-05  2.22354691E-07 -9.58063255E-05 -1.54395444E-04
  3.02176088E-03 -9.27943317E-04  3.00662606E-05  8.33241437E-05  4.84417447E-05
 -1.54401954E-04  3.02173803E-03 -9.27925756E-04  3.00705162E-05 -8.35568996E-05
  4.80643245E-05 -1.94469483E-05 -5.47636636E-05  4.31505981E-05  5.95488066E-09
 -4.34956619E-07 -3.93557069E-04 -8.18671777E-04 -2.14198332E-09  8.91090205E-07
  1.71679517E-03  5.34404088E-04 -2.64359061E-08  2.69485933E-06 -4.31806411E-05
 -3.55033609E-05 -3.56106301E-05  5.28271481E-09 -2.77089792E-07 -3.28029199E-10
 -2.96379392E-05 -1.08830736E-04 -7.81359147E-06 -4.52038290E-09  2.33302160E-07
  1.15194614E-03 -3.39225959E-04  3.93126411E-08 -1.85997755E-06 -1.02998448E-03
 -1.53244045E-04 -1.89670716E-08 -1.78608183E-07 -2.76986012E-05 -7.22889816E-05
 -7.22776683E-05 -3.43169062E-09  1.98428751E-07  3.46757938E-11 -1.78628659E-05
 -8.50196972E-05 -8.91237818E-05  6.99946611E-10 -5.92109942E-08  4.89199057E-04
  5.19649686E-04 -1.30399240E-08  1.29216123E-06 -1.57229976E-03  3.24244466E-03
 -2.16716921E-09  6.52527585E-07 -2.88318792E-05 -3.03389272E-05 -3.04461507E-05
  1.25840339E-10  1.43881915E-09 -3.48606862E-10  1.27869339E-07  6.14244540E-06
  3.84641334E-06 -7.16651975E-11  1.30224471E-08  1.36509114E-05 -2.66994208E-05
  3.42123001E-10 -7.29256023E-08 -1.43021176E-04  2.84759988E-04 -1.86665774E-10
  2.15323867E-07  4.37768644E-03  1.04209777E-03 -1.38570858E-08  1.28391878E-06
  4.10992471E-05 -1.00040455E-06 -1.01776717E-06 -1.53050971E-10  3.78255713E-08
  5.63771694E-11 -3.20386665E-05 -4.74524472E-04 -1.90774534E-04 -3.60935548E-05
  3.99653823E-08 -1.70201758E-05 -3.18600145E-05 -4.76519356E-04 -1.86612786E-04
 -3.65113787E-05  1.50068750E-05  8.62554110E-06 -3.18602272E-05 -4.76536091E-04
 -1.86561461E-04 -3.65153344E-05 -1.50491393E-05  8.55855389E-06  9.92843229E-01
  4.92984626E-02  1.88329402E-03 -9.44472519E-08  3.91486311E-06 -1.11247637E-02
 -9.51696581E-04  7.35192730E-08 -3.19583390E-06 -6.07582022E-03 -9.54212038E-04
  1.46270501E-07 -7.59047700E-06 -8.45999078E-03 -9.69991048E-03 -9.69988063E-03
 -6.67742167E-08  2.76267191E-06 -2.76351402E-11 -4.93643018E-04  2.71836496E-05
  4.41139679E-04 -1.97773988E-08  8.23181965E-07 -8.47641281E-04  4.18109446E-04
 -2.69899863E-08  1.05231546E-06  8.90486635E-03 -3.16284805E-03  1.07622071E-07
 -3.53205176E-06 -2.75525737E-04  1.60099807E-04  1.60097944E-04  2.56105720E-08
 -1.06641976E-06  5.64800617E-11 -1.09548692E-04  1.28222362E-04  3.68164485E-04
 -5.84280973E-10  1.10670896E-07  2.99639979E-03 -1.57033755E-03 -2.96226566E-08
  1.05756397E-06 -3.79559744E-02  3.49588655E-02  2.83384221E-08  8.14461134E-06
 -7.67535097E-04 -1.25651455E-04 -1.25823117E-04  4.31226213E-09 -4.95188416E-07
 -2.92109988E-09 -2.84604524E-01  1.02274328E+00  4.90349728E-03 -5.15412430E-08
  4.26461548E-06  7.60361143E-02  6.07896151E-04 -2.00806519E-09  3.01129579E-07
 -2.65255618E-02 -1.72659548E-03  8.82615555E-09 -9.59753547E-07  6.27992020E-02
  1.74395952E-02 -1.95904570E-07  1.85751494E-05 -1.51879178E-02 -1.55790604E-02
 -1.55790971E-02 -4.35558699E-09  4.43892881E-07 -1.20851436E-10 -4.09271045E-05
 -7.35456102E-04  1.00099058E-03 -7.15207065E-05 -2.61811420E-08  1.24857877E-05
 -4.06259804E-05 -7.39465513E-04  1.00770113E-03 -7.19643065E-05 -1.04512676E-05
 -6.29596205E-06 -4.06249847E-05 -7.39535947E-04  1.00785933E-03 -7.19621359E-05
  1.04762314E-05 -6.24238846E-06  1.39673694E-05  6.29338575E-05  4.53443820E-05
 -2.10226803E-08  1.05262563E-06  3.21321285E-04  5.63133971E-04  4.67446156E-08
 -2.52523102E-06 -1.82182937E-02  9.87328352E-03  6.56507095E-07 -3.79675047E-05
  8.22368761E-05  5.64027995E-06  5.65613744E-06 -5.53625770E-09  2.90985238E-07
  1.04666285E-10  1.10292253E-05  5.86137221E-05 -1.78228545E-05 -1.16499332E-08
  6.25563424E-07 -7.70142696E-04  5.64176690E-04  2.47595829E-08 -1.72446577E-06
  7.12037276E-04 -2.71636002E-03 -3.66481917E-07  2.09759211E-05 -4.58029508E-05
  2.92642010E-05  2.92626886E-05  9.26771806E-09 -4.37309108E-07  1.05023131E-10
  6.86795344E-05  1.59040610E-03  3.88304993E-04 -9.05964516E-09  7.74054918E-07
 -6.95959054E-04  1.57875352E-03  2.60344051E-08 -3.31531322E-06  4.86577952E-02
 -5.32991253E-02 -5.78123486E-08 -8.03837459E-06 -1.96786635E-03  2.04174388E-04
  2.04838037E-04  1.97030612E-08 -1.89290419E-06 -1.52924977E-09  1.44500025E-03
 -5.50920029E-03  9.90323876E-01 -8.57073156E-06  7.42087906E-04 -4.20517809E-04
  3.15021772E-02 -2.70437462E-07  2.37449201E-05  5.15421211E-03 -1.29350124E-02
  1.03889640E-07 -9.34329708E-06 -7.22623765E-02 -1.42178920E-02  2.51406350E-07
 -2.26248751E-05  7.56736444E-04 -4.66489626E-04 -4.66444511E-04 -9.04785976E-09
  1.02661923E-06 -8.28694656E-11 -1.67394236E-04  1.36776685E-03 -5.51158605E-03
 -3.17584396E-04  7.07943534E-08 -3.10630829E-05 -1.66375632E-04  1.37154406E-03
 -5.51013500E-03 -3.17955945E-04  2.62809573E-05  1.53371130E-05 -1.66378544E-04
  1.37156550E-03 -5.51010989E-03 -3.17949659E-04 -2.63465942E-05  1.52119750E-05
 -2.31556911E-05 -1.58111387E-04 -9.59161904E-05  2.52898530E-08 -1.30334829E-06
  2.57625684E-03  1.57267221E-03 -1.60872235E-07  7.36724914E-06  3.91495202E-02
 -1.63600390E-02 -1.20130989E-06  6.75545665E-05  1.30053829E-04 -4.17970786E-05
 -4.18068512E-05 -9.07826773E-09  2.51747122E-07 -1.82171961E-10 -1.17492997E-05
 -2.46534617E-05  3.89098705E-05  1.86565033E-08 -1.02075288E-06 -7.97700224E-04
  7.99563087E-04 -1.24232586E-07  6.39556556E-06 -8.12673225E-03  5.78682195E-03
  5.45678926E-07 -3.24337403E-05 -1.32003946E-04 -1.89261002E-06 -1.88177510E-06
  9.47275432E-10  3.54593524E-08 -8.91970783E-11  1.03814220E-07  4.92792983E-07
  7.52975554E-07  2.32141175E-06 -8.34418525E-05 -2.87683014E-06 -4.72617036E-06
 -8.96894256E-06  3.23096558E-04  1.57561610E-05 -5.58162254E-05 -1.21372332E-05
  4.42674011E-04  9.18252425E-08 -8.37026447E-05  8.38864599E-05 -4.09152048E-06
  1.46985170E-04  2.01818101E-06  1.59040472E-07 -6.78263315E-07 -7.42509571E-04
 -2.75395873E-02  9.90460504E-01 -8.51937618E-08 -2.19173545E-05 -8.22683418E-04
  2.95881548E-02  1.88445811E-06  5.95397198E-06  3.23438641E-04 -1.16339255E-02
 -6.31929934E-05 -1.81804439E-05 -1.44054228E-04  5.18426170E-03 -8.89564859E-07
  4.93277789E-06 -4.62142739E-06 -9.01770780E-06  3.24342180E-04 -1.31407828E-07
  6.11065937E-05 -5.64131083E-04  4.70216213E-03  2.67027465E-04  7.71037713E-07
 -4.98853007E-05 -2.88596786E-05  2.74752754E-04 -2.24805222E-03 -1.27451293E-04
 -9.58945987E-06 -3.18382702E-05 -3.15481532E-05  2.99883430E-04 -2.45451896E-03
 -1.39238131E-04  1.19939412E-05 -3.23447141E-05 -4.22997506E-08 -9.04007158E-08
 -2.50630675E-07 -1.20910277E-06  4.36296073E-05 -1.42712135E-05 -1.14722490E-05
  4.66276925E-06 -1.69014168E-04  3.99354825E-05 -2.60300796E-05 -2.77536646E-05
  1.01073788E-03 -8.38405629E-07  3.71783145E-06 -3.41361550E-06  1.61279530E-07
 -5.93566520E-06 -8.44986211E-08 -3.86461896E-07 -1.52677182E-06  1.05710818E-07
  5.27949383E-07 -1.93971437E-05  1.79446851E-05 -8.86036176E-06 -3.23633950E-06
  1.18677251E-04 -2.00674164E-07  8.55268934E-06  1.14298751E-05 -4.19533898E-04
  1.58082629E-07  6.88693846E-07 -2.72953858E-06  3.34086385E-07 -1.20891529E-05
 -4.12108268E-08  2.85678742E-09  1.66902333E-08  9.58506152E-09 -8.35142627E-05
 -2.32077855E-06 -9.37105663E-08 -5.42938463E-08  3.22288770E-04  8.97590548E-06
  3.01112479E-07 -9.41693222E-07  4.37516601E-04  1.23365395E-05 -4.45496894E-11
 -1.75095714E-06  1.75292138E-06  1.47151774E-04  4.08689938E-06 -9.67702303E-05
  2.14441733E-09 -1.00551883E-08 -1.20676394E-05  9.90460835E-01  2.75395838E-02
 -2.70953592E-09 -3.52272416E-07  2.95878640E-02  8.22695429E-04  5.37127462E-08
  1.11028737E-07 -1.16326780E-02 -3.23485177E-04 -1.06564780E-06 -3.14629242E-07
  5.18153967E-03  1.44165024E-04 -1.12261232E-08  9.67693358E-08 -9.44159497E-08
  3.24345237E-04  9.01893732E-06  6.06243533E-06  1.55397840E-06 -1.43974109E-05
  1.20046970E-04  6.80604046E-06 -2.57835980E-05 -1.33246049E-06 -5.33668028E-05
  5.00130507E-04 -4.11441788E-03 -2.34626454E-04 -4.45114498E-05 -1.18172626E-05
  5.18294489E-05 -4.85507095E-04  3.99434523E-03  2.27815311E-04 -4.40138079E-05
  9.97524140E-06 -1.07845401E-09 -3.33961132E-09 -2.30207830E-09  4.35078381E-05