 Entering Gaussian System, Link 0=g16
 Initial command:
 /usr/local/g16_AVX//g16/l1.exe "/scratch/alanqf/0136-54578.ixchel.mda.cinvestav.mx/Gau-42358.inp" -scrdir="/scratch/alanqf/0136-54578.ixchel.mda.cinvestav.mx/"
 Entering Link 1 = /usr/local/g16_AVX//g16/l1.exe PID=     42359.
  
 Copyright (c) 1988-2017, Gaussian, Inc.  All Rights Reserved.
  
 This is part of the Gaussian(R) 16 program.  It is based on
 the Gaussian(R) 09 system (copyright 2009, Gaussian, Inc.),
 the Gaussian(R) 03 system (copyright 2003, Gaussian, Inc.),
 the Gaussian(R) 98 system (copyright 1998, Gaussian, Inc.),
 the Gaussian(R) 94 system (copyright 1995, Gaussian, Inc.),
 the Gaussian 92(TM) system (copyright 1992, Gaussian, Inc.),
 the Gaussian 90(TM) system (copyright 1990, Gaussian, Inc.),
 the Gaussian 88(TM) system (copyright 1988, Gaussian, Inc.),
 the Gaussian 86(TM) system (copyright 1986, Carnegie Mellon
 University), and the Gaussian 82(TM) system (copyright 1983,
 Carnegie Mellon University). Gaussian is a federally registered
 trademark of Gaussian, Inc.
  
 This software contains proprietary and confidential information,
 including trade secrets, belonging to Gaussian, Inc.
  
 This software is provided under written license and may be
 used, copied, transmitted, or stored only in accord with that
 written license.
  
 The following legend is applicable only to US Government
 contracts under FAR:
  
                    RESTRICTED RIGHTS LEGEND
  
 Use, reproduction and disclosure by the US Government is
 subject to restrictions as set forth in subparagraphs (a)
 and (c) of the Commercial Computer Software - Restricted
 Rights clause in FAR 52.227-19.
  
 Gaussian, Inc.
 340 Quinnipiac St., Bldg. 40, Wallingford CT 06492
  
  
 ---------------------------------------------------------------
 Warning -- This program may not be used in any manner that
 competes with the business of Gaussian, Inc. or will provide
 assistance to any competitor of Gaussian, Inc.  The licensee
 of this program is prohibited from giving any competitor of
 Gaussian, Inc. access to this program.  By using this program,
 the user acknowledges that Gaussian, Inc. is engaged in the
 business of creating and licensing software in the field of
 computational chemistry and represents and warrants to the
 licensee that it is not a competitor of Gaussian, Inc. and that
 it will not use this program in any manner prohibited above.
 ---------------------------------------------------------------
  

 Cite this work as:
 Gaussian 16, Revision B.01,
 M. J. Frisch, G. W. Trucks, H. B. Schlegel, G. E. Scuseria, 
 M. A. Robb, J. R. Cheeseman, G. Scalmani, V. Barone, 
 G. A. Petersson, H. Nakatsuji, X. Li, M. Caricato, A. V. Marenich, 
 J. Bloino, B. G. Janesko, R. Gomperts, B. Mennucci, H. P. Hratchian, 
 J. V. Ortiz, A. F. Izmaylov, J. L. Sonnenberg, D. Williams-Young, 
 F. Ding, F. Lipparini, F. Egidi, J. Goings, B. Peng, A. Petrone, 
 T. Henderson, D. Ranasinghe, V. G. Zakrzewski, J. Gao, N. Rega, 
 G. Zheng, W. Liang, M. Hada, M. Ehara, K. Toyota, R. Fukuda, 
 J. Hasegawa, M. Ishida, T. Nakajima, Y. Honda, O. Kitao, H. Nakai, 
 T. Vreven, K. Throssell, J. A. Montgomery, Jr., J. E. Peralta, 
 F. Ogliaro, M. J. Bearpark, J. J. Heyd, E. N. Brothers, K. N. Kudin, 
 V. N. Staroverov, T. A. Keith, R. Kobayashi, J. Normand, 
 K. Raghavachari, A. P. Rendell, J. C. Burant, S. S. Iyengar, 
 J. Tomasi, M. Cossi, J. M. Millam, M. Klene, C. Adamo, R. Cammi, 
 J. W. Ochterski, R. L. Martin, K. Morokuma, O. Farkas, 
 J. B. Foresman, and D. J. Fox, Gaussian, Inc., Wallingford CT, 2016.
 
 ******************************************
 Gaussian 16:  ES64L-G16RevB.01 20-Dec-2017
                13-Oct-2024 
 ******************************************
 %NProcShared=26
 Will use up to   26 processors via shared memory.
 %MEM=20GB
 %chk=CHKfiles/0136.chk
 ---------------------------------------------------------------------
 #p b3lyp 6-31++g(d,p) scf=verytight NoSymm freq=noraman int=ultrafine
 ---------------------------------------------------------------------
 1/10=4,30=1,38=1/1,3;
 2/12=2,15=1,17=6,18=5,40=1/2;
 3/5=1,6=6,7=1111,11=2,25=1,30=1,71=2,74=-5,75=-5,140=1/1,2,3;
 4//1;
 5/5=2,17=3,38=5,98=1/2;
 8/6=4,10=90,11=11/1;
 11/6=1,8=1,9=11,15=111,16=1,31=1/1,2,10;
 10/6=1,31=1/2;
 6/7=2,8=2,9=2,10=2,28=1/1;
 7/8=1,10=1,25=1,30=1/1,2,3,16;
 1/10=4,30=1/3;
 99//99;
 Leave Link    1 at Sun Oct 13 09:51:53 2024, MaxMem=  2684354560 cpu:               1.6 elap:               0.1
 (Enter /usr/local/g16_AVX//g16/l101.exe)
 ------------------------
 RxCoord=3.49776 DE=46.07
 ------------------------
 Symbolic Z-matrix:
 Charge = -1 Multiplicity = 1
 C                    -0.37083  -0.00002   0.00126 
 Cl                   -2.20036  0.        -0.00007 
 H                    -0.03756   0.00237  -1.03141 
 H                    -0.03909   0.89347   0.52015 
 H                    -0.03909  -0.89589   0.51603 
 C                     2.49912   0.00004  -0.00188 
 N                     3.67929  -0.00001   0.00037 
 
 ITRead=  0  0  0  0  0  0  0
 MicOpt= -1 -1 -1 -1 -1 -1 -1
 NAtoms=      7 NQM=        7 NQMF=       0 NMMI=      0 NMMIF=      0
                NMic=       0 NMicF=      0.
                    Isotopes and Nuclear Properties:
 (Nuclear quadrupole moments (NQMom) in fm**2, nuclear magnetic moments (NMagM)
  in nuclear magnetons)

  Atom         1           2           3           4           5           6           7
 IAtWgt=          12          35           1           1           1          12          14
 AtmWgt=  12.0000000  34.9688527   1.0078250   1.0078250   1.0078250  12.0000000  14.0030740
 NucSpn=           0           3           1           1           1           0           2
 AtZEff=  -0.0000000  -0.0000000  -0.0000000  -0.0000000  -0.0000000  -0.0000000  -0.0000000
 NQMom=    0.0000000  -8.1650000   0.0000000   0.0000000   0.0000000   0.0000000   2.0440000
 NMagM=    0.0000000   0.8218740   2.7928460   2.7928460   2.7928460   0.0000000   0.4037610
 AtZNuc=   6.0000000  17.0000000   1.0000000   1.0000000   1.0000000   6.0000000   7.0000000
 Leave Link  101 at Sun Oct 13 09:51:53 2024, MaxMem=  2684354560 cpu:               2.8 elap:               0.2
 (Enter /usr/local/g16_AVX//g16/l103.exe)

 GradGradGradGradGradGradGradGradGradGradGradGradGradGradGradGradGradGrad
 Berny optimization.
 Initialization pass.
 Trust Radius=3.00D-01 FncErr=1.00D-07 GrdErr=1.00D-07 EigMax=2.50D+02 EigMin=1.00D-04
 Number of steps in this run=      2 maximum allowed number of steps=      2.
 GradGradGradGradGradGradGradGradGradGradGradGradGradGradGradGradGradGrad

 Leave Link  103 at Sun Oct 13 09:51:54 2024, MaxMem=  2684354560 cpu:               0.7 elap:               0.1
 (Enter /usr/local/g16_AVX//g16/l202.exe)
                          Input orientation:                          
 ---------------------------------------------------------------------
 Center     Atomic      Atomic             Coordinates (Angstroms)
 Number     Number       Type             X           Y           Z
 ---------------------------------------------------------------------
      1          6           0       -0.370834   -0.000015    0.001262
      2         17           0       -2.200362   -0.000003   -0.000074
      3          1           0       -0.037562    0.002365   -1.031407
      4          1           0       -0.039086    0.893466    0.520152
      5          1           0       -0.039086   -0.895887    0.516027
      6          6           0        2.499117    0.000043   -0.001883
      7          7           0        3.679290   -0.000012    0.000374
 ---------------------------------------------------------------------
                    Distance matrix (angstroms):
                    1          2          3          4          5
     1  C    0.000000
     2  Cl   1.829528   0.000000
     3  H    1.085118   2.396113   0.000000
     4  H    1.085178   2.395837   1.789245   0.000000
     5  H    1.085185   2.395847   1.789249   1.789358   0.000000
     6  C    2.869953   4.699479   2.737639   2.741022   2.741057
     7  N    4.050124   5.879652   3.857404   3.859377   3.859379
                    6          7
     6  C    0.000000
     7  N    1.180175   0.000000
 Symmetry turned off by external request.
 This structure is nearly, but not quite of a higher symmetry.
 Consider Symm=Loose if the higher symmetry is desired.
 Stoichiometry    C2H3ClN(1-)
 Framework group  C1[X(C2H3ClN)]
 Deg. of freedom    15
 Full point group                 C1      NOp   1
 Rotational constants (GHZ):         156.6262675           1.1562568           1.1562562
 Leave Link  202 at Sun Oct 13 09:51:54 2024, MaxMem=  2684354560 cpu:               0.4 elap:               0.1
 (Enter /usr/local/g16_AVX//g16/l301.exe)
 Standard basis: 6-31++G(d,p) (6D, 7F)
 Ernie: Thresh=  0.10000D-02 Tol=  0.10000D-05 Strict=F.
    98 basis functions,   176 primitive gaussians,    98 cartesian basis functions
    20 alpha electrons       20 beta electrons
       nuclear repulsion energy       109.9416300237 Hartrees.
 IExCor=  402 DFT=T Ex+Corr=B3LYP ExCW=0 ScaHFX=  0.200000
 ScaDFX=  0.800000  0.720000  1.000000  0.810000 ScalE2=  1.000000  1.000000
 IRadAn=      5 IRanWt=     -1 IRanGd=            0 ICorTp=0 IEmpDi=  4
 NAtoms=    7 NActive=    7 NUniq=    7 SFac= 1.00D+00 NAtFMM=   60 NAOKFM=F Big=F
 Integral buffers will be    131072 words long.
 Raffenetti 2 integral format.
 Two-electron integral symmetry is turned off.
 Leave Link  301 at Sun Oct 13 09:51:54 2024, MaxMem=  2684354560 cpu:               1.4 elap:               0.1
 (Enter /usr/local/g16_AVX//g16/l302.exe)
 NPDir=0 NMtPBC=     1 NCelOv=     1 NCel=       1 NClECP=     1 NCelD=      1
         NCelK=      1 NCelE2=     1 NClLst=     1 CellRange=     0.0.
 One-electron integrals computed using PRISM.
 NBasis=    98 RedAO= T EigKep=  1.36D-04  NBF=    98
 NBsUse=    98 1.00D-06 EigRej= -1.00D+00 NBFU=    98
 Precomputing XC quadrature grid using
 IXCGrd= 4 IRadAn=           5 IRanWt=          -1 IRanGd=           0 AccXCQ= 0.00D+00.
 Generated NRdTot=       0 NPtTot=           0 NUsed=           0 NTot=          32
 NSgBfM=    98    98    98    98    98 MxSgAt=     7 MxSgA2=     7.
 Leave Link  302 at Sun Oct 13 09:51:54 2024, MaxMem=  2684354560 cpu:               5.1 elap:               0.2
 (Enter /usr/local/g16_AVX//g16/l303.exe)
 DipDrv:  MaxL=1.
 Leave Link  303 at Sun Oct 13 09:51:54 2024, MaxMem=  2684354560 cpu:               1.9 elap:               0.1
 (Enter /usr/local/g16_AVX//g16/l401.exe)
 ExpMin= 3.60D-02 ExpMax= 2.52D+04 ExpMxC= 3.78D+03 IAcc=3 IRadAn=         5 AccDes= 0.00D+00
 Harris functional with IExCor=  402 and IRadAn=       5 diagonalized for initial guess.
 HarFok:  IExCor=  402 AccDes= 0.00D+00 IRadAn=         5 IDoV= 1 UseB2=F ITyADJ=14
 ICtDFT=  3500011 ScaDFX=  1.000000  1.000000  1.000000  1.000000
 FoFCou: FMM=F IPFlag=           0 FMFlag=      100000 FMFlg1=           0
         NFxFlg=           0 DoJE=T BraDBF=F KetDBF=T FulRan=T
         wScrn=  0.000000 ICntrl=       500 IOpCl=  0 I1Cent=   200000004 NGrid=           0
         NMat0=    1 NMatS0=      1 NMatT0=    0 NMatD0=    1 NMtDS0=    0 NMtDT0=    0
 Symmetry not used in FoFCou.
 Harris En= -593.078111424848    
 JPrj=0 DoOrth=F DoCkMO=F.
 Leave Link  401 at Sun Oct 13 09:51:55 2024, MaxMem=  2684354560 cpu:               5.8 elap:               0.3
 (Enter /usr/local/g16_AVX//g16/l502.exe)
 Keep R1 ints in memory in canonical form, NReq=35752935.
 FoFCou: FMM=F IPFlag=           0 FMFlag=           0 FMFlg1=           0
         NFxFlg=           0 DoJE=F BraDBF=F KetDBF=F FulRan=T
         wScrn=  0.000000 ICntrl=       600 IOpCl=  0 I1Cent=           0 NGrid=           0
         NMat0=    1 NMatS0=   4851 NMatT0=    0 NMatD0=    1 NMtDS0=    0 NMtDT0=    0
 Symmetry not used in FoFCou.
 Two-electron integral symmetry not used.
 Closed shell SCF:
 Using DIIS extrapolation, IDIIS=  1040.
 NGot=  2684354560 LenX=  2672563405 LenY=  2672553360
 Requested convergence on RMS density matrix=1.00D-08 within 128 cycles.
 Requested convergence on MAX density matrix=1.00D-06.
 Requested convergence on             energy=1.00D-06.
 No special actions if energy rises.

 Cycle   1  Pass 1  IDiag  1:
 E= -592.841448699721    
 DIIS: error= 3.48D-02 at cycle   1 NSaved=   1.
 NSaved= 1 IEnMin= 1 EnMin= -592.841448699721     IErMin= 1 ErrMin= 3.48D-02
 ErrMax= 3.48D-02  0.00D+00 EMaxC= 1.00D-01 BMatC= 1.32D-01 BMatP= 1.32D-01
 IDIUse=3 WtCom= 6.52D-01 WtEn= 3.48D-01
 Coeff-Com:  0.100D+01
 Coeff-En:   0.100D+01
 Coeff:      0.100D+01
 Gap=     0.629 Goal=   None    Shift=    0.000
 GapD=    0.629 DampG=2.000 DampE=0.500 DampFc=1.0000 IDamp=-1.
 RMSDP=8.09D-02 MaxDP=2.72D+00              OVMax= 3.82D-01

 Cycle   2  Pass 1  IDiag  1:
 E= -592.636600137506     Delta-E=        0.204848562215 Rises=F Damp=F
 DIIS: error= 4.90D-02 at cycle   2 NSaved=   2.
 NSaved= 2 IEnMin= 1 EnMin= -592.841448699721     IErMin= 1 ErrMin= 3.48D-02
 ErrMax= 4.90D-02  0.00D+00 EMaxC= 1.00D-01 BMatC= 3.01D-01 BMatP= 1.32D-01
 IDIUse=2 WtCom= 0.00D+00 WtEn= 1.00D+00
 Coeff-En:   0.687D+00 0.313D+00
 Coeff:      0.687D+00 0.313D+00
 Gap=     0.153 Goal=   None    Shift=    0.000
 RMSDP=7.94D-02 MaxDP=2.74D+00 DE= 2.05D-01 OVMax= 2.45D-01

 Cycle   3  Pass 1  IDiag  1:
 E= -592.982972737724     Delta-E=       -0.346372600218 Rises=F Damp=F
 DIIS: error= 8.04D-03 at cycle   3 NSaved=   3.
 NSaved= 3 IEnMin= 3 EnMin= -592.982972737724     IErMin= 3 ErrMin= 8.04D-03
 ErrMax= 8.04D-03  0.00D+00 EMaxC= 1.00D-01 BMatC= 1.05D-02 BMatP= 1.32D-01
 IDIUse=3 WtCom= 9.20D-01 WtEn= 8.04D-02
 Coeff-Com:  0.271D+00 0.107D+00 0.622D+00
 Coeff-En:   0.000D+00 0.000D+00 0.100D+01
 Coeff:      0.249D+00 0.980D-01 0.653D+00
 Gap=     0.184 Goal=   None    Shift=    0.000
 RMSDP=2.64D-03 MaxDP=4.59D-02 DE=-3.46D-01 OVMax= 5.06D-02

 Cycle   4  Pass 1  IDiag  1:
 E= -592.987734474269     Delta-E=       -0.004761736545 Rises=F Damp=F
 DIIS: error= 1.21D-02 at cycle   4 NSaved=   4.
 NSaved= 4 IEnMin= 4 EnMin= -592.987734474269     IErMin= 3 ErrMin= 8.04D-03
 ErrMax= 1.21D-02  0.00D+00 EMaxC= 1.00D-01 BMatC= 7.09D-03 BMatP= 1.05D-02
 IDIUse=3 WtCom= 8.79D-01 WtEn= 1.21D-01
 Coeff-Com:  0.513D-01-0.239D-01 0.491D+00 0.481D+00
 Coeff-En:   0.000D+00 0.000D+00 0.381D+00 0.619D+00
 Coeff:      0.451D-01-0.210D-01 0.478D+00 0.498D+00
 Gap=     0.175 Goal=   None    Shift=    0.000
 RMSDP=9.55D-04 MaxDP=1.52D-02 DE=-4.76D-03 OVMax= 2.97D-02

 Cycle   5  Pass 1  IDiag  1:
 E= -592.994110443045     Delta-E=       -0.006375968775 Rises=F Damp=F
 DIIS: error= 2.56D-03 at cycle   5 NSaved=   5.
 NSaved= 5 IEnMin= 5 EnMin= -592.994110443045     IErMin= 5 ErrMin= 2.56D-03
 ErrMax= 2.56D-03  0.00D+00 EMaxC= 1.00D-01 BMatC= 2.88D-04 BMatP= 7.09D-03
 IDIUse=3 WtCom= 9.74D-01 WtEn= 2.56D-02
 Coeff-Com:  0.165D-01-0.118D-01 0.223D+00 0.275D+00 0.497D+00
 Coeff-En:   0.000D+00 0.000D+00 0.000D+00 0.000D+00 0.100D+01
 Coeff:      0.161D-01-0.115D-01 0.217D+00 0.268D+00 0.509D+00
 Gap=     0.178 Goal=   None    Shift=    0.000
 RMSDP=2.78D-04 MaxDP=4.43D-03 DE=-6.38D-03 OVMax= 6.69D-03

 Cycle   6  Pass 1  IDiag  1:
 E= -592.994368653607     Delta-E=       -0.000258210563 Rises=F Damp=F
 DIIS: error= 8.43D-04 at cycle   6 NSaved=   6.
 NSaved= 6 IEnMin= 6 EnMin= -592.994368653607     IErMin= 6 ErrMin= 8.43D-04
 ErrMax= 8.43D-04  0.00D+00 EMaxC= 1.00D-01 BMatC= 2.94D-05 BMatP= 2.88D-04
 IDIUse=3 WtCom= 9.92D-01 WtEn= 8.43D-03
 Coeff-Com:  0.301D-02-0.583D-02 0.599D-01 0.749D-01 0.265D+00 0.603D+00
 Coeff-En:   0.000D+00 0.000D+00 0.000D+00 0.000D+00 0.776D-01 0.922D+00
 Coeff:      0.299D-02-0.578D-02 0.594D-01 0.742D-01 0.264D+00 0.605D+00
 Gap=     0.178 Goal=   None    Shift=    0.000
 RMSDP=7.23D-05 MaxDP=1.34D-03 DE=-2.58D-04 OVMax= 1.64D-03

 Cycle   7  Pass 1  IDiag  1:
 E= -592.994396834965     Delta-E=       -0.000028181357 Rises=F Damp=F
 DIIS: error= 6.58D-05 at cycle   7 NSaved=   7.
 NSaved= 7 IEnMin= 7 EnMin= -592.994396834965     IErMin= 7 ErrMin= 6.58D-05
 ErrMax= 6.58D-05  0.00D+00 EMaxC= 1.00D-01 BMatC= 3.98D-07 BMatP= 2.94D-05
 IDIUse=1 WtCom= 1.00D+00 WtEn= 0.00D+00
 Coeff-Com:  0.339D-03-0.823D-03 0.273D-02 0.214D-02 0.430D-01 0.181D+00
 Coeff-Com:  0.772D+00
 Coeff:      0.339D-03-0.823D-03 0.273D-02 0.214D-02 0.430D-01 0.181D+00
 Coeff:      0.772D+00
 Gap=     0.178 Goal=   None    Shift=    0.000
 RMSDP=1.34D-05 MaxDP=2.29D-04 DE=-2.82D-05 OVMax= 2.62D-04

 Cycle   8  Pass 1  IDiag  1:
 E= -592.994397299678     Delta-E=       -0.000000464713 Rises=F Damp=F
 DIIS: error= 9.69D-06 at cycle   8 NSaved=   8.
 NSaved= 8 IEnMin= 8 EnMin= -592.994397299678     IErMin= 8 ErrMin= 9.69D-06
 ErrMax= 9.69D-06  0.00D+00 EMaxC= 1.00D-01 BMatC= 1.48D-08 BMatP= 3.98D-07
 IDIUse=1 WtCom= 1.00D+00 WtEn= 0.00D+00
 Coeff-Com:  0.900D-04-0.121D-03 0.643D-04 0.221D-03 0.962D-02 0.434D-01
 Coeff-Com:  0.235D+00 0.711D+00
 Coeff:      0.900D-04-0.121D-03 0.643D-04 0.221D-03 0.962D-02 0.434D-01
 Coeff:      0.235D+00 0.711D+00
 Gap=     0.178 Goal=   None    Shift=    0.000
 RMSDP=2.28D-06 MaxDP=6.30D-05 DE=-4.65D-07 OVMax= 4.59D-05

 Cycle   9  Pass 1  IDiag  1:
 E= -592.994397315186     Delta-E=       -0.000000015508 Rises=F Damp=F
 DIIS: error= 3.03D-06 at cycle   9 NSaved=   9.
 NSaved= 9 IEnMin= 9 EnMin= -592.994397315186     IErMin= 9 ErrMin= 3.03D-06
 ErrMax= 3.03D-06  0.00D+00 EMaxC= 1.00D-01 BMatC= 1.56D-09 BMatP= 1.48D-08
 IDIUse=1 WtCom= 1.00D+00 WtEn= 0.00D+00
 Coeff-Com: -0.913D-05 0.107D-04-0.145D-03 0.117D-03 0.133D-02 0.506D-02
 Coeff-Com:  0.385D-01 0.277D+00 0.679D+00
 Coeff:     -0.913D-05 0.107D-04-0.145D-03 0.117D-03 0.133D-02 0.506D-02
 Coeff:      0.385D-01 0.277D+00 0.679D+00
 Gap=     0.178 Goal=   None    Shift=    0.000
 RMSDP=7.12D-07 MaxDP=1.96D-05 DE=-1.55D-08 OVMax= 1.17D-05

 Cycle  10  Pass 1  IDiag  1:
 E= -592.994397316890     Delta-E=       -0.000000001704 Rises=F Damp=F
 DIIS: error= 4.28D-07 at cycle  10 NSaved=  10.
 NSaved=10 IEnMin=10 EnMin= -592.994397316890     IErMin=10 ErrMin= 4.28D-07
 ErrMax= 4.28D-07  0.00D+00 EMaxC= 1.00D-01 BMatC= 2.43D-11 BMatP= 1.56D-09
 IDIUse=1 WtCom= 1.00D+00 WtEn= 0.00D+00
 Coeff-Com: -0.783D-05 0.660D-05-0.151D-04 0.386D-04-0.679D-05-0.568D-03
 Coeff-Com: -0.158D-02 0.235D-01 0.144D+00 0.834D+00
 Coeff:     -0.783D-05 0.660D-05-0.151D-04 0.386D-04-0.679D-05-0.568D-03
 Coeff:     -0.158D-02 0.235D-01 0.144D+00 0.834D+00
 Gap=     0.178 Goal=   None    Shift=    0.000
 RMSDP=1.57D-07 MaxDP=3.47D-06 DE=-1.70D-09 OVMax= 1.99D-06

 Cycle  11  Pass 1  IDiag  1:
 E= -592.994397316921     Delta-E=       -0.000000000030 Rises=F Damp=F
 DIIS: error= 5.00D-08 at cycle  11 NSaved=  11.
 NSaved=11 IEnMin=11 EnMin= -592.994397316921     IErMin=11 ErrMin= 5.00D-08
 ErrMax= 5.00D-08  0.00D+00 EMaxC= 1.00D-01 BMatC= 2.75D-13 BMatP= 2.43D-11
 IDIUse=1 WtCom= 1.00D+00 WtEn= 0.00D+00
 Coeff-Com: -0.111D-05 0.626D-06-0.786D-05-0.105D-04-0.496D-04-0.147D-03
 Coeff-Com: -0.224D-03-0.222D-02 0.493D-02 0.772D-01 0.921D+00
 Coeff:     -0.111D-05 0.626D-06-0.786D-05-0.105D-04-0.496D-04-0.147D-03
 Coeff:     -0.224D-03-0.222D-02 0.493D-02 0.772D-01 0.921D+00
 Gap=     0.178 Goal=   None    Shift=    0.000
 RMSDP=3.38D-08 MaxDP=6.36D-07 DE=-3.05D-11 OVMax= 3.71D-07

 Cycle  12  Pass 1  IDiag  1:
 E= -592.994397316921     Delta-E=       -0.000000000000 Rises=F Damp=F
 DIIS: error= 6.03D-09 at cycle  12 NSaved=  12.
 NSaved=12 IEnMin=12 EnMin= -592.994397316921     IErMin=12 ErrMin= 6.03D-09
 ErrMax= 6.03D-09  0.00D+00 EMaxC= 1.00D-01 BMatC= 3.86D-15 BMatP= 2.75D-13
 IDIUse=1 WtCom= 1.00D+00 WtEn= 0.00D+00
 Coeff-Com: -0.564D-07 0.135D-07-0.953D-06-0.223D-05-0.900D-05-0.197D-04
 Coeff-Com: -0.376D-04-0.832D-03-0.209D-02-0.460D-03 0.118D+00 0.886D+00
 Coeff:     -0.564D-07 0.135D-07-0.953D-06-0.223D-05-0.900D-05-0.197D-04
 Coeff:     -0.376D-04-0.832D-03-0.209D-02-0.460D-03 0.118D+00 0.886D+00
 Gap=     0.178 Goal=   None    Shift=    0.000
 RMSDP=1.94D-09 MaxDP=3.76D-08 DE=-1.14D-13 OVMax= 4.10D-08

 SCF Done:  E(RB3LYP) =  -592.994397317     A.U. after   12 cycles
            NFock= 12  Conv=0.19D-08     -V/T= 2.0045
 KE= 5.903143862365D+02 PE=-1.629527034299D+03 EE= 3.362766207223D+02
 Leave Link  502 at Sun Oct 13 09:51:56 2024, MaxMem=  2684354560 cpu:              35.2 elap:               1.6
 (Enter /usr/local/g16_AVX//g16/l801.exe)
 DoSCS=F DFT=T ScalE2(SS,OS)=  1.000000  1.000000
 Range of M.O.s used for correlation:     1    98
 NBasis=    98 NAE=    20 NBE=    20 NFC=     0 NFV=     0
 NROrb=     98 NOA=    20 NOB=    20 NVA=    78 NVB=    78

 **** Warning!!: The largest alpha MO coefficient is  0.33123051D+02

 Leave Link  801 at Sun Oct 13 09:51:56 2024, MaxMem=  2684354560 cpu:               1.0 elap:               0.1
 (Enter /usr/local/g16_AVX//g16/l1101.exe)
 Using compressed storage, NAtomX=     7.
 Will process      8 centers per pass.
 Leave Link 1101 at Sun Oct 13 09:51:57 2024, MaxMem=  2684354560 cpu:               3.9 elap:               0.2
 (Enter /usr/local/g16_AVX//g16/l1102.exe)
 Symmetrizing basis deriv contribution to polar:
 IMax=3 JMax=2 DiffMx= 0.00D+00
 Leave Link 1102 at Sun Oct 13 09:51:57 2024, MaxMem=  2684354560 cpu:               1.5 elap:               0.1
 (Enter /usr/local/g16_AVX//g16/l1110.exe)
 Forming Gx(P) for the SCF density, NAtomX=     7.
 Integral derivatives from FoFJK, PRISM(SPDF).
 Do as many integral derivatives as possible in FoFJK.
 G2DrvN: MDV=    2684353864.
 G2DrvN: will do     8 centers at a time, making    1 passes.
 Calling FoFCou, ICntrl=  3107 FMM=F I1Cent=   0 AccDes= 0.00D+00.
 FoFJK:  IHMeth= 1 ICntrl=    3107 DoSepK=F KAlg= 0 I1Cent=           0 FoldK=F
 IRaf=         0 NMat=       1 IRICut=       1 DoRegI=T DoRafI=F ISym2E= 0 IDoP0=0 IntGTp=1.
 FoFCou: FMM=F IPFlag=           0 FMFlag=      100000 FMFlg1=           0
         NFxFlg=           0 DoJE=F BraDBF=F KetDBF=F FulRan=T
         wScrn=  0.000000 ICntrl=      3107 IOpCl=  0 I1Cent=           0 NGrid=           0
         NMat0=    1 NMatS0=      1 NMatT0=    0 NMatD0=    1 NMtDS0=    0 NMtDT0=    0
 Symmetry not used in FoFCou.
 End of G2Drv F.D. properties file   721 does not exist.
 End of G2Drv F.D. properties file   722 does not exist.
 End of G2Drv F.D. properties file   788 does not exist.
 Leave Link 1110 at Sun Oct 13 09:51:59 2024, MaxMem=  2684354560 cpu:              37.9 elap:               1.5
 (Enter /usr/local/g16_AVX//g16/l1002.exe)
 Minotr:  Closed shell wavefunction.
          IDoAtm=1111111
          Direct CPHF calculation.
          Differentiating once with respect to electric field.
                with respect to dipole field.
          Differentiating once with respect to nuclear coordinates.
          Requested convergence is 1.0D-08 RMS, and 1.0D-07 maximum.
          Secondary convergence is 1.0D-12 RMS, and 1.0D-12 maximum.
          NewPWx=T KeepS1=F KeepF1=F KeepIn=T MapXYZ=F SortEE=F KeepMc=T.
         2136 words used for storage of precomputed grid.
 Keep R1 ints in memory in canonical form, NReq=35668397.
 FoFCou: FMM=F IPFlag=           0 FMFlag=           0 FMFlg1=           0
         NFxFlg=           0 DoJE=F BraDBF=F KetDBF=F FulRan=T
         wScrn=  0.000000 ICntrl=       600 IOpCl=  0 I1Cent=           0 NGrid=           0
         NMat0=    1 NMatS0=   4851 NMatT0=    0 NMatD0=    1 NMtDS0=    0 NMtDT0=    0
 Symmetry not used in FoFCou.
 Two-electron integral symmetry not used.
          MDV=    2684354560 using IRadAn=       1.
          Solving linear equations simultaneously, MaxMat=       0.
          There are    24 degrees of freedom in the 1st order CPHF.  IDoFFX=6 NUNeed=     3.
     21 vectors produced by pass  0 Test12= 6.50D-15 4.17D-09 XBig12= 8.10D+01 4.31D+00.
 AX will form    21 AO Fock derivatives at one time.
     21 vectors produced by pass  1 Test12= 6.50D-15 4.17D-09 XBig12= 4.60D+01 2.08D+00.
     21 vectors produced by pass  2 Test12= 6.50D-15 4.17D-09 XBig12= 1.44D+00 3.15D-01.
     21 vectors produced by pass  3 Test12= 6.50D-15 4.17D-09 XBig12= 3.22D-02 5.33D-02.
     21 vectors produced by pass  4 Test12= 6.50D-15 4.17D-09 XBig12= 8.78D-05 2.35D-03.
     16 vectors produced by pass  5 Test12= 6.50D-15 4.17D-09 XBig12= 1.90D-07 9.33D-05.
      6 vectors produced by pass  6 Test12= 6.50D-15 4.17D-09 XBig12= 2.23D-10 3.24D-06.
      1 vectors produced by pass  7 Test12= 6.50D-15 4.17D-09 XBig12= 2.76D-13 1.39D-07.
      1 vectors produced by pass  8 Test12= 6.50D-15 4.17D-09 XBig12= 4.34D-16 5.02D-09.
 InvSVY:  IOpt=1 It=  1 EMax= 8.88D-15
 Solved reduced A of dimension   129 with    24 vectors.
 FullF1:  Do perturbations      1 to       3.
 Isotropic polarizability for W=    0.000000       56.09 Bohr**3.
 End of Minotr F.D. properties file   721 does not exist.
 End of Minotr F.D. properties file   722 does not exist.
 End of Minotr F.D. properties file   788 does not exist.
 Leave Link 1002 at Sun Oct 13 09:52:01 2024, MaxMem=  2684354560 cpu:              50.9 elap:               2.0
 (Enter /usr/local/g16_AVX//g16/l601.exe)
 Copying SCF densities to generalized density rwf, IOpCl= 0 IROHF=0.

 **********************************************************************

            Population analysis using the SCF Density.

 **********************************************************************

 Alpha  occ. eigenvalues -- -101.41051 -14.09461 -10.10035  -9.95981  -9.32677
 Alpha  occ. eigenvalues --   -7.08977  -7.08142  -7.08142  -0.71633  -0.64775
 Alpha  occ. eigenvalues --   -0.53910  -0.30717  -0.30713  -0.27739  -0.18257
 Alpha  occ. eigenvalues --   -0.17537  -0.17537  -0.09685  -0.09685  -0.06895
 Alpha virt. eigenvalues --    0.10899   0.12770   0.14486   0.14489   0.17323
 Alpha virt. eigenvalues --    0.20307   0.20308   0.20353   0.22064   0.22078
 Alpha virt. eigenvalues --    0.24116   0.24937   0.24945   0.27068   0.27583
 Alpha virt. eigenvalues --    0.27593   0.31388   0.33438   0.33450   0.36136
 Alpha virt. eigenvalues --    0.38592   0.38601   0.38748   0.46503   0.48026
 Alpha virt. eigenvalues --    0.64921   0.73027   0.74438   0.74440   0.77350
 Alpha virt. eigenvalues --    0.77359   0.87846   0.89685   0.89689   0.97710
 Alpha virt. eigenvalues --    0.99375   0.99379   1.04442   1.04450   1.08346
 Alpha virt. eigenvalues --    1.09521   1.09526   1.12498   1.19017   1.19023
 Alpha virt. eigenvalues --    1.23448   1.26709   1.37041   1.46888   1.60248
 Alpha virt. eigenvalues --    1.60251   1.75221   1.78205   1.78205   1.80439
 Alpha virt. eigenvalues --    1.80441   2.15725   2.20190   2.20193   2.21770
 Alpha virt. eigenvalues --    2.21776   2.29455   2.48852   2.48858   2.67487
 Alpha virt. eigenvalues --    2.82687   2.83499   2.83502   2.95382   2.95392
 Alpha virt. eigenvalues --    3.25891   3.38246   3.55567   3.55586   4.21065
 Alpha virt. eigenvalues --    4.41335   4.45694   4.57165
          Condensed to atoms (all electrons):
               1          2          3          4          5          6
     1  C    5.391007  -0.047787   0.414024   0.413986   0.413985  -0.148943
     2  Cl  -0.047787  17.330930  -0.048574  -0.049135  -0.049142   0.057519
     3  H    0.414024  -0.048574   0.506974  -0.023198  -0.023199  -0.040786
     4  H    0.413986  -0.049135  -0.023198   0.507323  -0.023250  -0.039893
     5  H    0.413985  -0.049142  -0.023199  -0.023250   0.507327  -0.039881
     6  C   -0.148943   0.057519  -0.040786  -0.039893  -0.039881   6.066171
     7  N   -0.001513  -0.002033   0.000632   0.000579   0.000578   0.659157
               7
     1  C   -0.001513
     2  Cl  -0.002033
     3  H    0.000632
     4  H    0.000579
     5  H    0.000578
     6  C    0.659157
     7  N    6.844021
 Mulliken charges:
               1
     1  C   -0.434759
     2  Cl  -0.191778
     3  H    0.214128
     4  H    0.213589
     5  H    0.213582
     6  C   -0.513343
     7  N   -0.501420
 Sum of Mulliken charges =  -1.00000
 Mulliken charges with hydrogens summed into heavy atoms:
               1
     1  C    0.206540
     2  Cl  -0.191778
     6  C   -0.513343
     7  N   -0.501420
 APT charges:
               1
     1  C    0.597925
     2  Cl  -0.635261
     3  H    0.016809
     4  H    0.016360
     5  H    0.016356
     6  C   -0.393167
     7  N   -0.619022
 Sum of APT charges =  -1.00000
 APT charges with hydrogens summed into heavy atoms:
               1
     1  C    0.647450
     2  Cl  -0.635261
     6  C   -0.393167
     7  N   -0.619022
 Electronic spatial extent (au):  <R**2>=            901.0087
 Charge=             -1.0000 electrons
 Dipole moment (field-independent basis, Debye):
    X=            -10.2206    Y=             -0.0001    Z=              0.0048  Tot=             10.2206
 Quadrupole moment (field-independent basis, Debye-Ang):
   XX=            -91.1434   YY=            -35.4495   ZZ=            -35.4488
   XY=             -0.0001   XZ=              0.0030   YZ=              0.0000
 Traceless Quadrupole moment (field-independent basis, Debye-Ang):
   XX=            -37.1296   YY=             18.5644   ZZ=             18.5651
   XY=             -0.0001   XZ=              0.0030   YZ=              0.0000
 Octapole moment (field-independent basis, Debye-Ang**2):
  XXX=           -193.0010  YYY=             -0.0064  ZZZ=             -0.8647  XYY=            -12.2261
  XXY=              0.0004  XXZ=             -0.0103  XZZ=            -12.2236  YZZ=              0.0060
  YYZ=              0.8824  XYZ=              0.0000
 Hexadecapole moment (field-independent basis, Debye-Ang**3):
 XXXX=          -1972.6276 YYYY=            -56.1534 ZZZZ=            -56.1539 XXXY=              0.0003
 XXXZ=              0.0195 YYYX=             -0.0023 YYYZ=             -0.0000 ZZZX=              0.0440
 ZZZY=              0.0001 XXYY=           -232.9405 XXZZ=           -232.9393 YYZZ=            -18.7147
 XXYZ=              0.0000 YYXZ=              0.0680 ZZXY=             -0.0004
 N-N= 1.099416300237D+02 E-N=-1.629527034144D+03  KE= 5.903143862365D+02
  Exact polarizability:  88.364  -0.001  39.956   0.021  -0.000  39.953
 Approx polarizability: 108.981  -0.001  49.789   0.051  -0.000  49.786
 No NMR shielding tensors so no spin-rotation constants.
 Leave Link  601 at Sun Oct 13 09:52:01 2024, MaxMem=  2684354560 cpu:               2.7 elap:               0.1
 (Enter /usr/local/g16_AVX//g16/l701.exe)
 ... and contract with generalized density number  0.
 Compute integral second derivatives.
 Leave Link  701 at Sun Oct 13 09:52:01 2024, MaxMem=  2684354560 cpu:               4.6 elap:               0.2
 (Enter /usr/local/g16_AVX//g16/l702.exe)
 L702 exits ... SP integral derivatives will be done elsewhere.
 Leave Link  702 at Sun Oct 13 09:52:01 2024, MaxMem=  2684354560 cpu:               0.6 elap:               0.1
 (Enter /usr/local/g16_AVX//g16/l703.exe)
 Integral derivatives from FoFJK, PRISM(SPDF).
 Compute integral second derivatives, UseDBF=F ICtDFT=           0.
 Calling FoFJK, ICntrl=    100127 FMM=F ISym2X=0 I1Cent= 0 IOpClX= 0 NMat=1 NMatS=1 NMatT=0.
 FoFJK:  IHMeth= 1 ICntrl=  100127 DoSepK=F KAlg= 0 I1Cent=           0 FoldK=F
 IRaf=         0 NMat=       1 IRICut=       1 DoRegI=T DoRafI=F ISym2E= 0 IDoP0=0 IntGTp=1.
 FoFCou: FMM=F IPFlag=           0 FMFlag=      100000 FMFlg1=         800
         NFxFlg=           0 DoJE=F BraDBF=F KetDBF=F FulRan=T
         wScrn=  0.000000 ICntrl=    100127 IOpCl=  0 I1Cent=           0 NGrid=           0
         NMat0=    1 NMatS0=      1 NMatT0=    0 NMatD0=    1 NMtDS0=    0 NMtDT0=    0
 Symmetry not used in FoFCou.
 Leave Link  703 at Sun Oct 13 09:52:04 2024, MaxMem=  2684354560 cpu:              65.2 elap:               2.6
 (Enter /usr/local/g16_AVX//g16/l716.exe)
 Dipole        =-4.02107888D+00-3.24968209D-05 1.89883734D-03
 Polarizability= 8.83636083D+01-5.04450541D-04 3.99558654D+01
                 2.14114998D-02-3.82526940D-05 3.99529897D+01
 Full mass-weighted force constant matrix:
 Low frequencies ---  -76.4756  -76.4295  -37.5712  -37.5112    0.0027    0.0040
 Low frequencies ---    0.0058   97.6210   97.7664
 ******    2 imaginary frequencies (negative Signs) ****** 
 Diagonal vibrational polarizability:
       84.2406564      34.1924393      34.3087803
 Harmonic frequencies (cm**-1), IR intensities (KM/Mole), Raman scattering
 activities (A**4/AMU), depolarization ratios for plane and unpolarized
 incident light, reduced masses (AMU), force constants (mDyne/A),
 and normal coordinates:
                      1                      2                      3
                      A                      A                      A
 Frequencies --    -76.0920               -76.0505                96.5859
 Red. masses --      8.8272                 8.8274                 3.7752
 Frc consts  --      0.0301                 0.0301                 0.0208
 IR Inten    --      0.0527                 0.0525                11.7754
  Atom  AN      X      Y      Z        X      Y      Z        X      Y      Z
     1   6    -0.00   0.00   0.25     0.00   0.25  -0.00    -0.00   0.00   0.39
     2  17    -0.00  -0.00  -0.11     0.00  -0.11   0.00    -0.00  -0.00  -0.10
     3   1     0.20   0.01   0.32    -0.00   0.31  -0.01     0.27   0.00   0.48
     4   1    -0.10   0.00   0.32    -0.17   0.32  -0.01    -0.14   0.02   0.46
     5   1    -0.10   0.01   0.32     0.17   0.32  -0.00    -0.13  -0.01   0.46
     6   6    -0.00   0.01   0.57     0.00   0.57  -0.01     0.00  -0.00  -0.27
     7   7     0.00  -0.01  -0.49    -0.00  -0.49   0.01     0.00   0.00   0.04
                      4                      5                      6
                      A                      A                      A
 Frequencies --     96.7503               146.9974               616.9647
 Red. masses --      3.7770                11.9479                 9.2229
 Frc consts  --      0.0208                 0.1521                 2.0684
 IR Inten    --     11.7727                53.5889               241.4655
  Atom  AN      X      Y      Z        X      Y      Z        X      Y      Z
     1   6     0.00   0.39  -0.00    -0.31   0.00  -0.00     0.71  -0.00   0.00
     2  17     0.00  -0.10   0.00    -0.28  -0.00   0.00    -0.28   0.00  -0.00
     3   1    -0.00   0.46  -0.00    -0.27   0.00   0.00     0.36   0.00  -0.10
     4   1    -0.23   0.47   0.01    -0.27  -0.01  -0.01     0.36   0.08   0.05
     5   1     0.23   0.47  -0.02    -0.27   0.01  -0.01     0.36  -0.08   0.05
     6   6    -0.00  -0.27   0.00     0.55   0.00   0.00     0.01   0.00  -0.00
     7   7    -0.00   0.04  -0.00     0.55  -0.00   0.00     0.01  -0.00   0.00
                      7                      8                      9
                      A                      A                      A
 Frequencies --   1013.3681              1013.9186              1317.2122
 Red. masses --      1.1482                 1.1481                 1.0950
 Frc consts  --      0.6947                 0.6954                 1.1194
 IR Inten    --      0.2440                 0.2446                18.5774
  Atom  AN      X      Y      Z        X      Y      Z        X      Y      Z
     1   6     0.00  -0.00  -0.11    -0.00  -0.11   0.00    -0.08  -0.00   0.00
     2  17    -0.00   0.00   0.02     0.00   0.02  -0.00    -0.02   0.00  -0.00
     3   1     0.77   0.00   0.13    -0.01   0.23  -0.00     0.55  -0.00   0.18
     4   1    -0.39  -0.04   0.20    -0.66   0.16  -0.04     0.55  -0.15  -0.09
     5   1    -0.38   0.04   0.21     0.67   0.16   0.04     0.55   0.15  -0.09
     6   6    -0.00   0.00   0.00     0.00  -0.00  -0.00    -0.00  -0.00   0.00
     7   7    -0.00  -0.00  -0.00     0.00  -0.00   0.00    -0.00   0.00  -0.00
                     10                     11                     12
                      A                      A                      A
 Frequencies --   1460.7615              1460.7667              2151.8180
 Red. masses --      1.0613                 1.0613                12.8311
 Frc consts  --      1.3343                 1.3343                35.0045
 IR Inten    --      7.5651                 7.5670                16.8936
  Atom  AN      X      Y      Z        X      Y      Z        X      Y      Z
     1   6    -0.00   0.06  -0.04    -0.00  -0.04  -0.06    -0.00  -0.00   0.00
     2  17    -0.00   0.00  -0.00    -0.00  -0.00  -0.00     0.00  -0.00   0.00
     3   1    -0.16  -0.61  -0.08    -0.22   0.44  -0.11    -0.02   0.00  -0.01
     4   1    -0.11  -0.30   0.62     0.25  -0.26   0.20    -0.02   0.01   0.00
     5   1     0.28   0.16   0.00    -0.03   0.36   0.66    -0.02  -0.01   0.00
     6   6    -0.00   0.00  -0.00    -0.00  -0.00  -0.00     0.76  -0.00   0.00
     7   7    -0.00  -0.00   0.00    -0.00   0.00   0.00    -0.65   0.00  -0.00
                     13                     14                     15
                      A                      A                      A
 Frequencies --   3126.0162              3251.0165              3251.5593
 Red. masses --      1.0249                 1.1116                 1.1116
 Frc consts  --      5.9006                 6.9219                 6.9242
 IR Inten    --     12.7191                 0.2741                 0.2581
  Atom  AN      X      Y      Z        X      Y      Z        X      Y      Z
     1   6     0.04  -0.00   0.00    -0.00  -0.10   0.00     0.00  -0.00  -0.10
     2  17    -0.00   0.00  -0.00     0.00   0.00  -0.00    -0.00   0.00   0.00
     3   1    -0.16  -0.00   0.55     0.01  -0.02  -0.03    -0.24  -0.00   0.78
     4   1    -0.16  -0.48  -0.28     0.20   0.56   0.34     0.13   0.36   0.19
     5   1    -0.16   0.48  -0.28    -0.21   0.59  -0.35     0.11  -0.32   0.16
     6   6     0.00   0.00  -0.00    -0.00   0.00  -0.00     0.00   0.00   0.00
     7   7     0.00  -0.00   0.00    -0.00  -0.00   0.00     0.00  -0.00  -0.00

 -------------------
 - Thermochemistry -
 -------------------
 Temperature   298.150 Kelvin.  Pressure   1.00000 Atm.
 Atom     1 has atomic number  6 and mass  12.00000
 Atom     2 has atomic number 17 and mass  34.96885
 Atom     3 has atomic number  1 and mass   1.00783
 Atom     4 has atomic number  1 and mass   1.00783
 Atom     5 has atomic number  1 and mass   1.00783
 Atom     6 has atomic number  6 and mass  12.00000
 Atom     7 has atomic number  7 and mass  14.00307
 Molecular mass:    75.99540 amu.
 Principal axes and moments of inertia in atomic units:
                           1         2         3
     Eigenvalues --    11.522601560.848111560.84883
           X            1.00000  -0.00000   0.00009
           Y            0.00000   0.99978   0.02110
           Z           -0.00009  -0.02110   0.99978
 This molecule is an asymmetric top.
 Rotational symmetry number  1.
 Rotational temperatures (Kelvin)      7.51688     0.05549     0.05549
 Rotational constants (GHZ):         156.62627     1.15626     1.15626
    2 imaginary frequencies ignored.
 Zero-point vibrational energy     113667.6 (Joules/Mol)
                                   27.16720 (Kcal/Mol)
 Warning -- explicit consideration of   4 degrees of freedom as
           vibrations may cause significant error
 Vibrational temperatures:    138.97   139.20   211.50   887.67  1458.01
          (Kelvin)           1458.80  1895.17  2101.71  2101.72  3095.99
                             4497.64  4677.49  4678.27
 
 Zero-point correction=                           0.043294 (Hartree/Particle)
 Thermal correction to Energy=                    0.048500
 Thermal correction to Enthalpy=                  0.049444
 Thermal correction to Gibbs Free Energy=         0.014214
 Sum of electronic and zero-point Energies=           -592.951104
 Sum of electronic and thermal Energies=              -592.945897
 Sum of electronic and thermal Enthalpies=            -592.944953
 Sum of electronic and thermal Free Energies=         -592.980183
 
                     E (Thermal)             CV                S
                      KCal/Mol        Cal/Mol-Kelvin    Cal/Mol-Kelvin
 Total                   30.434             13.810             74.147
 Electronic               0.000              0.000              0.000
 Translational            0.889              2.981             38.900
 Rotational               0.889              2.981             24.843
 Vibrational             28.657              7.849             10.404
 Vibration     1          0.603              1.952              3.522
 Vibration     2          0.603              1.951              3.519
 Vibration     3          0.617              1.906              2.711
 Vibration     4          0.977              0.996              0.421
                       Q            Log10(Q)             Ln(Q)
 Total Bot       0.289626D-06         -6.538162        -15.054674
 Total V=0       0.237431D+14         13.375538         30.798314
 Vib (Bot)       0.185448D-18        -18.731778        -43.131513
 Vib (Bot)    1  0.212620D+01          0.327604          0.754335
 Vib (Bot)    2  0.212252D+01          0.326851          0.752603
 Vib (Bot)    3  0.138059D+01          0.140064          0.322509
 Vib (Bot)    4  0.237791D+00         -0.623805         -1.436363
 Vib (V=0)       0.152027D+02          1.181922          2.721475
 Vib (V=0)    1  0.268420D+01          0.428814          0.987382
 Vib (V=0)    2  0.268062D+01          0.428235          0.986046
 Vib (V=0)    3  0.196834D+01          0.294100          0.677190
 Vib (V=0)    4  0.105366D+01          0.022702          0.052274
 Electronic      0.100000D+01          0.000000          0.000000
 Translational   0.260396D+08          7.415635         17.075130
 Rotational      0.599766D+05          4.777982         11.001709
 
                                                       RxCoord=3.49776 DE=46.07
                                                             IR Spectrum
 
      3   3                                     2                          1     1           1                                       
      2   1                                     1                          4     3           0              6                  1     
      5   2                                     5                          6     1           1              1                  4 9   
      1   6                                     2                          1     7           3              7                  7 7   
 
      X   X                                     X                          X     X           X              X                  X X   
                                                                                 X                          X                  X X   
                                                                                                            X                  X     
                                                                                                            X                  X     
                                                                                                            X                        
                                                                                                            X                        
                                                                                                            X                        
                                                                                                            X                        
                                                                                                            X                        
                                                                                                            X                        
                                                                                                            X                        
                                                                                                            X                        
                                                                                                            X                        
                                                                                                            X                        
                                                                                                            X                        
                                                                                                            X                        
                                                                                                            X                        
                                                                                                            X                        
                                                                                                            X                        
                                                                                                            X                        
 
 -------------------------------------------------------------------
 Center     Atomic                   Forces (Hartrees/Bohr)
 Number     Number              X              Y              Z
 -------------------------------------------------------------------
      1        6           0.005673845   -0.000003115    0.000032943
      2       17          -0.013023425   -0.000000388   -0.000008148
      3        1           0.000980993   -0.000002570    0.001203243
      4        1           0.001004969   -0.001056811   -0.000620165
      5        1           0.001003175    0.001063003   -0.000616991
      6        6           0.000835123   -0.000000021    0.000005908
      7        7           0.003525320   -0.000000097    0.000003210
 -------------------------------------------------------------------
 Cartesian Forces:  Max     0.013023425 RMS     0.003254061
 Z-matrix is all fixed cartesians, so copy forces.
 Force constants in Cartesian coordinates: 
                1             2             3             4             5 
      1  0.254643D+00
      2  0.459418D-05  0.599401D+00
      3 -0.330301D-03  0.649923D-05  0.599576D+00
      4 -0.935703D-01  0.000000D+00 -0.568120D-04  0.180181D+00
      5  0.000000D+00 -0.334539D-01  0.000000D+00  0.000000D+00  0.180437D-01
      6 -0.527857D-04  0.000000D+00 -0.334700D-01  0.131119D-03  0.000000D+00
      7 -0.554726D-01 -0.195153D-03  0.847078D-01 -0.247788D-01 -0.453366D-04
      8 -0.192373D-03 -0.495935D-01  0.636584D-03  0.140456D-04  0.624339D-03
      9  0.834719D-01  0.636297D-03 -0.325603D+00 -0.605914D-02 -0.180163D-04
     10 -0.552864D-01 -0.728628D-01 -0.423174D-01 -0.247790D-01 -0.170791D-01
     11 -0.718078D-01 -0.256055D+00 -0.119891D+00  0.519488D-02  0.646954D-02
     12 -0.416929D-01 -0.119890D+00 -0.119219D+00  0.299415D-02  0.337469D-02
     13 -0.552872D-01  0.730527D-01 -0.419777D-01 -0.247782D-01  0.171248D-01
     14  0.719945D-01 -0.257148D+00  0.119248D+00 -0.520805D-02  0.650048D-02
     15 -0.413581D-01  0.119247D+00 -0.118113D+00  0.296993D-02 -0.335662D-02
     16 -0.105981D-02  0.000000D+00 -0.170635D-04 -0.590618D-02  0.000000D+00
     17  0.105516D-05 -0.406056D-02  0.000000D+00  0.000000D+00  0.217982D-02
     18 -0.617601D-04  0.000000D+00 -0.408915D-02  0.419149D-04  0.000000D+00
     19  0.603338D-02  0.000000D+00 -0.848915D-05 -0.636819D-02  0.000000D+00
     20  0.000000D+00  0.910142D-03  0.000000D+00  0.000000D+00 -0.363966D-03
     21  0.238295D-04  0.000000D+00  0.918204D-03 -0.211602D-04  0.000000D+00
                6             7             8             9            10 
      6  0.180404D-01
      7  0.197002D-01  0.743087D-01
      8 -0.180727D-04  0.200953D-03  0.461299D-01
      9  0.846237D-02 -0.872284D-01 -0.672302D-03  0.337595D+00
     10 -0.993326D-02  0.415918D-02  0.724939D-02  0.434112D-02  0.741004D-01
     11  0.339398D-02 -0.983634D-04  0.207792D-02  0.241450D-02  0.750554D-01
     12  0.258895D-02 -0.841671D-02 -0.250611D-01 -0.111373D-01  0.435968D-01
     13 -0.985436D-02  0.415912D-02 -0.726937D-02  0.430752D-02  0.415140D-02
     14 -0.337587D-02  0.137144D-03  0.197293D-02 -0.235376D-02  0.733479D-02
     15  0.255775D-02 -0.841620D-02  0.251216D-01 -0.110326D-01  0.413488D-02
     16  0.675359D-05 -0.256277D-02 -0.111604D-05  0.468845D-03 -0.252808D-02
     17  0.000000D+00  0.000000D+00 -0.152868D-02 -0.849646D-05  0.246445D-03
     18  0.218551D-02 -0.281239D-03 -0.853373D-05  0.219795D-02  0.145074D-03
     19  0.232506D-05  0.187169D-03 -0.153417D-05  0.698110D-03  0.182487D-03
     20  0.000000D+00  0.000000D+00  0.317112D-03  0.177931D-05  0.557624D-04
     21 -0.364969D-03 -0.654847D-04  0.181309D-05 -0.482678D-03  0.327627D-04
               11            12            13            14            15 
     11  0.264167D+00
     12  0.126618D+00  0.119639D+00
     13 -0.735376D-02  0.410104D-02  0.741000D-01
     14 -0.176388D-01  0.136864D-01 -0.752513D-01  0.265322D+00
     15 -0.138071D-01  0.859269D-02  0.432471D-01 -0.125940D+00  0.118471D+00
     16 -0.397238D-03 -0.232909D-03 -0.252749D-02  0.398197D-03 -0.231030D-03
     17  0.126173D-02  0.161916D-02 -0.247164D-03  0.127689D-02 -0.161060D-02
     18  0.161985D-02 -0.574203D-03  0.143916D-03 -0.161126D-02 -0.588998D-03
     19 -0.593194D-03 -0.349538D-03  0.182423D-03  0.594706D-03 -0.346655D-03
     20 -0.282362D-03 -0.347863D-03 -0.559129D-04 -0.285697D-03  0.346048D-03
     21 -0.348913D-03  0.109944D-03  0.324947D-04  0.347063D-03  0.113126D-03
               16            17            18            19            20 
     16  0.114268D+01
     17 -0.525062D-04 -0.107569D-03
     18  0.216245D-02  0.000000D+00 -0.107770D-03
     19 -0.112810D+01  0.524330D-04 -0.215036D-02  0.112788D+01
     20  0.525353D-04  0.978365D-03  0.000000D+00 -0.525172D-04 -0.127360D-02
     21 -0.215704D-02  0.000000D+00  0.976661D-03  0.215460D-02  0.000000D+00
               21 
     21 -0.127029D-02
 Leave Link  716 at Sun Oct 13 09:52:04 2024, MaxMem=  2684354560 cpu:               1.0 elap:               0.1
 (Enter /usr/local/g16_AVX//g16/l103.exe)

 GradGradGradGradGradGradGradGradGradGradGradGradGradGradGradGradGradGrad
 Berny optimization.
 Search for a local minimum.
 Step number   1 out of a maximum of    2
 All quantities printed in internal units (Hartrees-Bohrs-Radians)
 Second derivative matrix not updated -- analytic derivatives used.
 ITU=  0
     Eigenvalues ---   -0.00247  -0.00247   0.00174   0.00174   0.00941
     Eigenvalues ---    0.06225   0.06228   0.10942   0.10942   0.11503
     Eigenvalues ---    0.21561   0.49352   0.88623   0.88652   2.26240
 Eigenvalue     1 is  -2.47D-03 should be greater than     0.000000 Eigenvector:
                          Z6        Z7        Z2        Z5        Z4
   1                    0.65819  -0.61331  -0.20092   0.17935   0.17922
                          Z3        X3        Z1        X4        X5
   1                    0.17500   0.16226   0.12464  -0.08346  -0.08017
 Eigenvalue     2 is  -2.47D-03 should be greater than     0.000000 Eigenvector:
                          Y6        Y7        Y2        Y3        Y4
   1                    0.65799  -0.61328  -0.20100   0.18039   0.17688
                          Y5        X5        X4        Y1        Z6
   1                    0.17680   0.14200  -0.14008   0.12473  -0.00615
 Quadratic step=3.276D-01 exceeds max=3.000D-01 adjusted using Lamda=-8.974D-04.
 Angle between NR and scaled steps=   1.14 degrees.
 Angle between quadratic step and forces=  66.78 degrees.
 Linear search not attempted -- first point.
 B after Tr=     0.006071   -0.000012    0.000686
         Rot=    1.000000   -0.000000   -0.000029   -0.000001 Ang=  -0.00 deg.
 Variable       Old X    -DE/DX   Delta X   Delta X   Delta X     New X
                                 (Linear)    (Quad)   (Total)
    X1       -0.70077   0.00567   0.00000  -0.07062  -0.06454  -0.76532
    Y1       -0.00003  -0.00000   0.00000   0.00003   0.00001  -0.00002
    Z1        0.00238   0.00003   0.00000  -0.00151  -0.00077   0.00161
    X2       -4.15808  -0.01302   0.00000  -0.12259  -0.11652  -4.27460
    Y2       -0.00001  -0.00000   0.00000  -0.00002  -0.00004  -0.00004
    Z2       -0.00014  -0.00001   0.00000   0.00111   0.00205   0.00191
    X3       -0.07098   0.00098   0.00000  -0.06521  -0.05925  -0.13023
    Y3        0.00447  -0.00000   0.00000   0.00003   0.00001   0.00448
    Z3       -1.94908   0.00120   0.00000   0.00127   0.00196  -1.94711
    X4       -0.07386   0.00100   0.00000  -0.06246  -0.05633  -0.13019
    Y4        1.68841  -0.00106   0.00000  -0.00303  -0.00304   1.68537
    Z4        0.98294  -0.00062   0.00000  -0.00380  -0.00311   0.97984
    X5       -0.07386   0.00100   0.00000  -0.06244  -0.05631  -0.13017
    Y5       -1.69298   0.00106   0.00000   0.00311   0.00310  -1.68988
    Z5        0.97515  -0.00062   0.00000  -0.00379  -0.00310   0.97205
    X6        4.72265   0.00084   0.00000   0.16904   0.17511   4.89776
    Y6        0.00008  -0.00000   0.00000  -0.00005  -0.00006   0.00002
    Z6       -0.00356   0.00001   0.00000   0.00336   0.00376   0.00020
    X7        6.95285   0.00353   0.00000   0.17177   0.17784   7.13069
    Y7       -0.00002  -0.00000   0.00000   0.00002   0.00001  -0.00001
    Z7        0.00071   0.00000   0.00000  -0.00106  -0.00079  -0.00009
         Item               Value     Threshold  Converged?
 Maximum Force            0.013023     0.000450     NO 
 RMS     Force            0.003254     0.000300     NO 
 Maximum Displacement     0.177843     0.001800     NO 
 RMS     Displacement     0.065447     0.001200     NO 
 Predicted change in Energy=-9.234259D-04
 GradGradGradGradGradGradGradGradGradGradGradGradGradGradGradGradGradGrad

 Leave Link  103 at Sun Oct 13 09:52:04 2024, MaxMem=  2684354560 cpu:               0.6 elap:               0.1
 (Enter /usr/local/g16_AVX//g16/l9999.exe)

 ----------------------------------------------------------------------

 Electric dipole moment (input orientation):
 (Debye = 10**-18 statcoulomb cm , SI units = C m)
                  (au)            (Debye)         (10**-30 SI)
   Tot        0.402108D+01      0.102206D+02      0.340921D+02
   x         -0.402108D+01     -0.102206D+02     -0.340921D+02
   y         -0.324968D-04     -0.825987D-04     -0.275520D-03
   z          0.189884D-02      0.482636D-02      0.160990D-01

 Dipole polarizability, Alpha (input orientation).
 (esu units = cm**3 , SI units = C**2 m**2 J**-1)
 Alpha(0;0):
               (au)            (10**-24 esu)      (10**-40 SI)
   iso        0.560908D+02      0.831180D+01      0.924813D+01
   aniso      0.484092D+02      0.717350D+01      0.798160D+01
   xx         0.883636D+02      0.130941D+02      0.145692D+02
   yx        -0.504451D-03     -0.747519D-04     -0.831727D-04
   yy         0.399559D+02      0.592085D+01      0.658783D+01
   zx         0.214115D-01      0.317286D-02      0.353028D-02
   zy        -0.382527D-04     -0.566846D-05     -0.630702D-05
   zz         0.399530D+02      0.592042D+01      0.658736D+01

 ----------------------------------------------------------------------

 Dipole orientation:
     6          0.00205391         -0.00002267          0.70077575
    17         -0.00210337          0.00002792          4.15808103
     1         -1.94911009          0.00445402          0.07006145
     1          0.98289620          1.68841458          0.07431235
     1          0.97512839         -1.69297259          0.07433600
     6         -0.00132822          0.00004308         -4.72264784
     7          0.00399004         -0.00007883         -6.95284932

 Electric dipole moment (dipole orientation):
 (Debye = 10**-18 statcoulomb cm , SI units = C m)
                  (au)            (Debye)         (10**-30 SI)
   Tot        0.402108D+01      0.102206D+02      0.340921D+02
   x          0.000000D+00      0.000000D+00      0.000000D+00
   y          0.000000D+00      0.000000D+00      0.000000D+00
   z          0.402108D+01      0.102206D+02      0.340921D+02

 Dipole polarizability, Alpha (dipole orientation).
 (esu units = cm**3 , SI units = C**2 m**2 J**-1)
 Alpha(0;0):
               (au)            (10**-24 esu)      (10**-40 SI)
   iso        0.560908D+02      0.831180D+01      0.924813D+01
   aniso      0.484092D+02      0.717350D+01      0.798160D+01
   xx         0.399530D+02      0.592043D+01      0.658736D+01
   yx        -0.388717D-04     -0.576019D-05     -0.640907D-05
   yy         0.399559D+02      0.592085D+01      0.658783D+01
   zx        -0.442720D-01     -0.656043D-02     -0.729947D-02
   zy         0.895287D-03      0.132668D-03      0.147613D-03
   zz         0.883636D+02      0.130941D+02      0.145692D+02

 ----------------------------------------------------------------------
 1\1\GINC-NODO6\Freq\RB3LYP\6-31++G(d,p)\C2H3Cl1N1(1-)\ALANQF\13-Oct-20
 24\0\\#p b3lyp 6-31++g(d,p) scf=verytight NoSymm freq=noraman int=ultr
 afine\\RxCoord=3.49776 DE=46.07\\-1,1\C,-0.370834,-0.000015,0.001262\C
 l,-2.200362,-0.000003,-0.000074\H,-0.037562,0.002365,-1.031407\H,-0.03
 9086,0.893466,0.520152\H,-0.039086,-0.895887,0.516027\C,2.499117,0.000
 043,-0.001883\N,3.67929,-0.000012,0.000374\\Version=ES64L-G16RevB.01\H
 F=-592.9943973\RMSD=1.944e-09\RMSF=3.254e-03\ZeroPoint=0.0432937\Therm
 al=0.0484999\Dipole=-3.9724868,-0.0000336,0.0020154\DipoleDeriv=1.6698
 038,-0.0000005,0.0003042,-0.000006,0.0622788,-0.000004,0.0009467,-0.00
 00041,0.0616924,-1.3388202,-0.000002,-0.0000772,0.0000038,-0.2834787,0
 .,-0.0004442,0.,-0.2834845,-0.0256557,-0.000003,0.0018346,-0.0000486,0
 .0824056,0.0002054,0.0222083,0.0002051,-0.0063231,-0.0264638,-0.001768
 7,-0.00117,-0.0195935,0.0156266,-0.0387632,-0.0116661,-0.0387551,0.059
 9172,-0.0264681,0.00178,-0.0011639,0.0196556,0.0152639,0.0385617,-0.01
 15775,0.0385541,0.060272,-0.239245,-0.0000184,0.0007113,-0.0000456,-0.
 4701563,0.,0.0019536,0.,-0.4700997,-1.0131511,0.0000127,-0.0004391,0.0
 000343,-0.4219399,0.,-0.0014208,0.,-0.4219742\Polar=88.3636083,-0.0005
 045,39.9558654,0.0214115,-0.0000383,39.9529897\Quadrupole=-27.6049115,
 13.8021968,13.8027147,-0.0000574,0.0022387,0.0000037\PG=C01 [X(C2H3Cl1
 N1)]\NImag=2\\0.25464299,0.00000459,0.59940106,-0.00033030,0.00000650,
 0.59957597,-0.09357032,0.00000025,-0.00005681,0.18018081,0.00000045,-0
 .03345391,-0.00000008,-0.00000073,0.01804370,-0.00005279,-0.00000005,-
 0.03346998,0.00013112,0.,0.01804038,-0.05547262,-0.00019515,0.08470780
 ,-0.02477883,-0.00004534,0.01970021,0.07430874,-0.00019237,-0.04959352
 ,0.00063658,0.00001405,0.00062434,-0.00001807,0.00020095,0.04612990,0.
 08347192,0.00063630,-0.32560272,-0.00605914,-0.00001802,0.00846237,-0.
 08722837,-0.00067230,0.33759506,-0.05528637,-0.07286278,-0.04231739,-0
 .02477905,-0.01707905,-0.00993326,0.00415918,0.00724939,0.00434112,0.0
 7410043,-0.07180777,-0.25605490,-0.11989055,0.00519488,0.00646954,0.00
 339398,-0.00009836,0.00207792,0.00241450,0.07505544,0.26416688,-0.0416
 9285,-0.11988966,-0.11921891,0.00299415,0.00337469,0.00258895,-0.00841
 671,-0.02506105,-0.01113734,0.04359681,0.12661828,0.11963887,-0.055287
 25,0.07305269,-0.04197774,-0.02477824,0.01712485,-0.00985436,0.0041591
 2,-0.00726937,0.00430752,0.00415140,-0.00735376,0.00410104,0.07410003,
 0.07199455,-0.25714830,0.11924762,-0.00520805,0.00650048,-0.00337587,0
 .00013714,0.00197293,-0.00235376,0.00733479,-0.01763880,0.01368645,-0.
 07525133,0.26532250,-0.04135805,0.11924699,-0.11811341,0.00296993,-0.0
 0335662,0.00255775,-0.00841620,0.02512156,-0.01103265,0.00413488,-0.01
 380715,0.00859269,0.04324713,-0.12594023,0.11847149,-0.00105981,0.0000
 0023,-0.00001706,-0.00590618,-0.00000010,0.00000675,-0.00256277,-0.000
 00112,0.00046884,-0.00252808,-0.00039724,-0.00023291,-0.00252749,0.000
 39820,-0.00023103,1.14268322,0.00000106,-0.00406056,-0.00000011,-0.000
 00088,0.00217982,0.00000002,0.00000062,-0.00152868,-0.00000850,0.00024
 644,0.00126173,0.00161916,-0.00024716,0.00127689,-0.00161060,-0.000052
 51,-0.00010757,-0.00006176,-0.00000011,-0.00408915,0.00004191,0.000000
 02,0.00218551,-0.00028124,-0.00000853,0.00219795,0.00014507,0.00161985
 ,-0.00057420,0.00014392,-0.00161126,-0.00058900,0.00216245,-0.00000008
 ,-0.00010777,0.00603338,0.00000017,-0.00000849,-0.00636819,-0.00000007
 ,0.00000233,0.00018717,-0.00000153,0.00069811,0.00018249,-0.00059319,-
 0.00034954,0.00018242,0.00059471,-0.00034666,-1.12809888,0.00005243,-0
 .00215036,1.12788161,-0.00000050,0.00091014,0.00000003,0.00000050,-0.0
 0036397,0.,0.00000014,0.00031711,0.00000178,0.00005576,-0.00028236,-0.
 00034786,-0.00005591,-0.00028570,0.00034605,0.00005254,0.00097837,0.00
 000011,-0.00005252,-0.00127360,0.00002383,0.00000004,0.00091820,-0.000
 02116,0.,-0.00036497,-0.00006548,0.00000181,-0.00048268,0.00003276,-0.
 00034891,0.00010994,0.00003249,0.00034706,0.00011313,-0.00215704,0.000
 00011,0.00097666,0.00215460,-0.00000010,-0.00127029\\-0.00567384,0.000
 00312,-0.00003294,0.01302343,0.00000039,0.00000815,-0.00098099,0.00000
 257,-0.00120324,-0.00100497,0.00105681,0.00062016,-0.00100317,-0.00106
 300,0.00061699,-0.00083512,0.00000002,-0.00000591,-0.00352532,0.000000
 10,-0.00000321\\\@


 IT IS BY EATING THE LIGHT OF A STAR THAT WE EXIST, 
 IN THE FINAL ANALYSIS, 
 JUST AS IT IS BY PERCEIVING THE LIGHT OF STARS
 THAT WE DEFINE THE WORLD AROUND US.

                                    -- GILBERT GROSVENOR
 Job cpu time:       0 days  0 hours  3 minutes 46.0 seconds.
 Elapsed time:       0 days  0 hours  0 minutes 10.1 seconds.
 File lengths (MBytes):  RWF=     88 Int=      0 D2E=      0 Chk=      2 Scr=      2
 Normal termination of Gaussian 16 at Sun Oct 13 09:52:04 2024.
