RxCoord=3.59763 DE=45.95                                                
Freq      RB3LYP                                                      6-31++G(d,p)        
Number of atoms                            I                7
Info1-9                                    I   N=           9
          16          16           0           0           0         100
           6          18        -502
Full Title                                 C   N=           2
RxCoord=3.59763 DE=45.95
Route                                      C   N=           6
#p b3lyp 6-31++g(d,p) scf=verytight NoSymm freq=noraman int=
ultrafine   
Charge                                     I               -1
Multiplicity                               I                1
Number of electrons                        I               40
Number of alpha electrons                  I               20
Number of beta electrons                   I               20
Number of basis functions                  I               98
Number of independent functions            I               98
Number of point charges in /Mol/           I                0
Number of translation vectors              I                0
Atomic numbers                             I   N=           7
           6          17           1           1           1           6
           7
Nuclear charges                            R   N=           7
  6.00000000E+00  1.70000000E+01  1.00000000E+00  1.00000000E+00  1.00000000E+00
  6.00000000E+00  7.00000000E+00
Current cartesian coordinates              R   N=          21
 -7.08144630E-01 -2.64561657E-05  2.69474945E-03 -4.16652296E+00 -7.55890450E-06
 -1.51178090E-04 -8.04683178E-02  4.46164338E-03 -1.94812622E+00 -8.34654235E-02
  1.68796007E+00  9.82941044E-01 -8.35277844E-02 -1.69251053E+00  9.75164821E-01
  4.73843157E+00  8.12582234E-05 -3.94763787E-03  6.96879027E+00 -2.26767135E-05
  7.35103462E-04
Number of symbols in /Mol/                 I                0
Force Field                                I                0
Atom Types                                 C   N=           7
                                                            
                        
Int Atom Types                             I   N=           7
           0           0           0           0           0           0
           0
MM charges                                 R   N=           7
  0.00000000E+00  0.00000000E+00  0.00000000E+00  0.00000000E+00  0.00000000E+00
  0.00000000E+00  0.00000000E+00
Integer atomic weights                     I   N=           7
          12          35           1           1           1          12
          14
Real atomic weights                        R   N=           7
  1.20000000E+01  3.49688527E+01  1.00782504E+00  1.00782504E+00  1.00782504E+00
  1.20000000E+01  1.40030740E+01
Atom fragment info                         I   N=           7
           0           0           0           0           0           0
           0
Atom residue num                           I   N=           7
           0           0           0           0           0           0
           0
Nuclear spins                              I   N=           7
           0           3           1           1           1           0
           2
Nuclear ZEff                               R   N=           7
 -3.60000000E+00 -1.42400000E+01 -1.00000000E+00 -1.00000000E+00 -1.00000000E+00
 -3.60000000E+00 -4.55000000E+00
Nuclear ZNuc                               R   N=           7
  6.00000000E+00  1.70000000E+01  1.00000000E+00  1.00000000E+00  1.00000000E+00
  6.00000000E+00  7.00000000E+00
Nuclear QMom                               R   N=           7
  0.00000000E+00 -8.16500000E+00  0.00000000E+00  0.00000000E+00  0.00000000E+00
  0.00000000E+00  2.04400000E+00
Nuclear GFac                               R   N=           7
  0.00000000E+00  8.21874000E-01  2.79284600E+00  2.79284600E+00  2.79284600E+00
  0.00000000E+00  4.03761000E-01
MicOpt                                     I   N=           7
          -1          -1          -1          -1          -1          -1
          -1
Number of residues                         I                0
Number of secondary structures             I                0
Number of contracted shells                I               33
Number of primitive shells                 I               72
Pure/Cartesian d shells                    I                1
Pure/Cartesian f shells                    I                0
Highest angular momentum                   I                2
Largest degree of contraction              I                6
Shell types                                I   N=          33
           0          -1          -1          -1           2           0
          -1          -1          -1          -1           2           0
           0           0           1           0           0           0
           1           0           0           0           1           0
          -1          -1          -1           2           0          -1
          -1          -1           2
Number of primitives per shell             I   N=          33
           6           3           1           1           1           6
           6           3           1           1           1           3
           1           1           1           3           1           1
           1           3           1           1           1           6
           3           1           1           1           6           3
           1           1           1
Shell to atom map                          I   N=          33
           1           1           1           1           1           2
           2           2           2           2           2           3
           3           3           3           4           4           4
           4           5           5           5           5           6
           6           6           6           6           7           7
           7           7           7
Primitive exponents                        R   N=          72
  3.04752488E+03  4.57369518E+02  1.03948685E+02  2.92101553E+01  9.28666296E+00
  3.16392696E+00  7.86827235E+00  1.88128854E+00  5.44249258E-01  1.68714478E-01
  4.38000000E-02  8.00000000E-01  2.51801000E+04  3.78035000E+03  8.60474000E+02
  2.42145000E+02  7.73349000E+01  2.62470000E+01  4.91765000E+02  1.16984000E+02
  3.74153000E+01  1.37834000E+01  5.45215000E+00  2.22588000E+00  3.18649000E+00
  1.14427000E+00  4.20377000E-01  1.42657000E-01  4.83000000E-02  7.50000000E-01
  1.87311370E+01  2.82539436E+00  6.40121692E-01  1.61277759E-01  3.60000000E-02
  1.10000000E+00  1.87311370E+01  2.82539436E+00  6.40121692E-01  1.61277759E-01
  3.60000000E-02  1.10000000E+00  1.87311370E+01  2.82539436E+00  6.40121692E-01
  1.61277759E-01  3.60000000E-02  1.10000000E+00  3.04752488E+03  4.57369518E+02
  1.03948685E+02  2.92101553E+01  9.28666296E+00  3.16392696E+00  7.86827235E+00
  1.88128854E+00  5.44249258E-01  1.68714478E-01  4.38000000E-02  8.00000000E-01
  4.17351146E+03  6.27457911E+02  1.42902093E+02  4.02343293E+01  1.28202129E+01
  4.39043701E+00  1.16263619E+01  2.71627981E+00  7.72218397E-01  2.12031498E-01
  6.39000000E-02  8.00000000E-01
Contraction coefficients                   R   N=          72
  1.83473713E-03  1.40373228E-02  6.88426223E-02  2.32184443E-01  4.67941348E-01
  3.62311985E-01 -1.19332420E-01 -1.60854152E-01  1.14345644E+00  1.00000000E+00
  1.00000000E+00  1.00000000E+00  1.83295985E-03  1.40341988E-02  6.90973943E-02
  2.37451980E-01  4.83033960E-01  3.39855972E-01 -2.29739142E-03 -3.07137189E-02
 -1.12528069E-01  4.50163278E-02  5.89353363E-01  4.65206287E-01 -2.51828028E-01
  6.15892514E-02  1.06018433E+00  1.00000000E+00  1.00000000E+00  1.00000000E+00
  3.34946043E-02  2.34726953E-01  8.13757326E-01  1.00000000E+00  1.00000000E+00
  1.00000000E+00  3.34946043E-02  2.34726953E-01  8.13757326E-01  1.00000000E+00
  1.00000000E+00  1.00000000E+00  3.34946043E-02  2.34726953E-01  8.13757326E-01
  1.00000000E+00  1.00000000E+00  1.00000000E+00  1.83473713E-03  1.40373228E-02
  6.88426223E-02  2.32184443E-01  4.67941348E-01  3.62311985E-01 -1.19332420E-01
 -1.60854152E-01  1.14345644E+00  1.00000000E+00  1.00000000E+00  1.00000000E+00
  1.83477216E-03  1.39946270E-02  6.85865518E-02  2.32240873E-01  4.69069948E-01
  3.60455199E-01 -1.14961182E-01 -1.69117479E-01  1.14585195E+00  1.00000000E+00
  1.00000000E+00  1.00000000E+00
P(S=P) Contraction coefficients            R   N=          72
  0.00000000E+00  0.00000000E+00  0.00000000E+00  0.00000000E+00  0.00000000E+00
  0.00000000E+00  6.89990666E-02  3.16423961E-01  7.44308291E-01  1.00000000E+00
  1.00000000E+00  0.00000000E+00  0.00000000E+00  0.00000000E+00  0.00000000E+00
  0.00000000E+00  0.00000000E+00  0.00000000E+00  3.98940088E-03  3.03177067E-02
  1.29880029E-01  3.27951072E-01  4.53527100E-01  2.52154056E-01 -1.42993147E-02
  3.23572333E-01  7.43507765E-01  1.00000000E+00  1.00000000E+00  0.00000000E+00
  0.00000000E+00  0.00000000E+00  0.00000000E+00  0.00000000E+00  0.00000000E+00
  0.00000000E+00  0.00000000E+00  0.00000000E+00  0.00000000E+00  0.00000000E+00
  0.00000000E+00  0.00000000E+00  0.00000000E+00  0.00000000E+00  0.00000000E+00
  0.00000000E+00  0.00000000E+00  0.00000000E+00  0.00000000E+00  0.00000000E+00
  0.00000000E+00  0.00000000E+00  0.00000000E+00  0.00000000E+00  6.89990666E-02
  3.16423961E-01  7.44308291E-01  1.00000000E+00  1.00000000E+00  0.00000000E+00
  0.00000000E+00  0.00000000E+00  0.00000000E+00  0.00000000E+00  0.00000000E+00
  0.00000000E+00  6.75797439E-02  3.23907296E-01  7.40895140E-01  1.00000000E+00
  1.00000000E+00  0.00000000E+00
Coordinates of each shell                  R   N=          99
 -7.08144630E-01 -2.64561657E-05  2.69474945E-03 -7.08144630E-01 -2.64561657E-05
  2.69474945E-03 -7.08144630E-01 -2.64561657E-05  2.69474945E-03 -7.08144630E-01
 -2.64561657E-05  2.69474945E-03 -7.08144630E-01 -2.64561657E-05  2.69474945E-03
 -4.16652296E+00 -7.55890450E-06 -1.51178090E-04 -4.16652296E+00 -7.55890450E-06
 -1.51178090E-04 -4.16652296E+00 -7.55890450E-06 -1.51178090E-04 -4.16652296E+00
 -7.55890450E-06 -1.51178090E-04 -4.16652296E+00 -7.55890450E-06 -1.51178090E-04
 -4.16652296E+00 -7.55890450E-06 -1.51178090E-04 -8.04683178E-02  4.46164338E-03
 -1.94812622E+00 -8.04683178E-02  4.46164338E-03 -1.94812622E+00 -8.04683178E-02
  4.46164338E-03 -1.94812622E+00 -8.04683178E-02  4.46164338E-03 -1.94812622E+00
 -8.34654235E-02  1.68796007E+00  9.82941044E-01 -8.34654235E-02  1.68796007E+00
  9.82941044E-01 -8.34654235E-02  1.68796007E+00  9.82941044E-01 -8.34654235E-02
  1.68796007E+00  9.82941044E-01 -8.35277844E-02 -1.69251053E+00  9.75164821E-01
 -8.35277844E-02 -1.69251053E+00  9.75164821E-01 -8.35277844E-02 -1.69251053E+00
  9.75164821E-01 -8.35277844E-02 -1.69251053E+00  9.75164821E-01  4.73843157E+00
  8.12582234E-05 -3.94763787E-03  4.73843157E+00  8.12582234E-05 -3.94763787E-03
  4.73843157E+00  8.12582234E-05 -3.94763787E-03  4.73843157E+00  8.12582234E-05
 -3.94763787E-03  4.73843157E+00  8.12582234E-05 -3.94763787E-03  6.96879027E+00
 -2.26767135E-05  7.35103462E-04  6.96879027E+00 -2.26767135E-05  7.35103462E-04
  6.96879027E+00 -2.26767135E-05  7.35103462E-04  6.96879027E+00 -2.26767135E-05
  7.35103462E-04  6.96879027E+00 -2.26767135E-05  7.35103462E-04
Num ILSW                                   I              100
ILSW                                       I   N=         100
           0           1           0           0           2           0
           0           0           0           0         402          -1
           5           0           0           0           2           0
           0           0           0           0           1           0
           1           1           0           0           0           0
           0           0      100000           0          -1           0
           0           0           0           0           0           0
           0           0           0           1           0           0
           0 -2000000000           1           0           0           0
           0           0           4          52           0           0
           0           0           5           0           0           0
           0           0           0           7           0           1
           0           0           0           0           0           0
           0           0           0           0           0           0
           0           0           0           0           0           0
           0           0           0           0           0           0
           0           0           0           0
Num RLSW                                   I               52
RLSW                                       R   N=          52
  8.00000000E-01  7.20000000E-01  1.00000000E+00  8.10000000E-01  2.00000000E-01
  0.00000000E+00  0.00000000E+00  1.00000000E+00  0.00000000E+00  0.00000000E+00
  0.00000000E+00  0.00000000E+00  1.00000000E+00  0.00000000E+00  0.00000000E+00
  0.00000000E+00  0.00000000E+00  1.00000000E+00  0.00000000E+00  0.00000000E+00
  0.00000000E+00  0.00000000E+00  1.00000000E+00  0.00000000E+00  0.00000000E+00
  0.00000000E+00  0.00000000E+00  1.00000000E+00  0.00000000E+00  0.00000000E+00
  0.00000000E+00  0.00000000E+00  1.00000000E+00  0.00000000E+00  0.00000000E+00
  0.00000000E+00  0.00000000E+00  0.00000000E+00  1.00000000E+00  1.00000000E+00
  0.00000000E+00  1.00000000E+00  0.00000000E+00  0.00000000E+00  0.00000000E+00
  0.00000000E+00  0.00000000E+00  0.00000000E+00  0.00000000E+00  0.00000000E+00
  0.00000000E+00  0.00000000E+00
MxBond                                     I                4
NBond                                      I   N=           7
           4           1           1           1           1           1
           1
IBond                                      I   N=          28
           2           3           4           5           1           0
           0           0           1           0           0           0
           1           0           0           0           1           0
           0           0           7           0           0           0
           6           0           0           0
RBond                                      R   N=          28
  1.00000000E+00  1.00000000E+00  1.00000000E+00  1.00000000E+00  1.00000000E+00
  0.00000000E+00  0.00000000E+00  0.00000000E+00  1.00000000E+00  0.00000000E+00
  0.00000000E+00  0.00000000E+00  1.00000000E+00  0.00000000E+00  0.00000000E+00
  0.00000000E+00  1.00000000E+00  0.00000000E+00  0.00000000E+00  0.00000000E+00
  2.00000000E+00  0.00000000E+00  0.00000000E+00  0.00000000E+00  2.00000000E+00
  0.00000000E+00  0.00000000E+00  0.00000000E+00
Virial Ratio                               R      2.004540987550347E+00
SCF Energy                                 R     -5.929945027339444E+02
Total Energy                               R     -5.929945027339444E+02
RMS Force                                  R      3.117723312629793E-03
RMS Density                                R      1.921630279639852E-09
NImag                                      I                2
Job Status                                 I                1
Nuclear derivative order                   I                2
External E-field                           R   N=          35
  0.00000000E+00  0.00000000E+00  0.00000000E+00  0.00000000E+00  0.00000000E+00
  0.00000000E+00  0.00000000E+00  0.00000000E+00  0.00000000E+00  0.00000000E+00
  0.00000000E+00  0.00000000E+00  0.00000000E+00  0.00000000E+00  0.00000000E+00
  0.00000000E+00  0.00000000E+00  0.00000000E+00  0.00000000E+00  0.00000000E+00
  0.00000000E+00  0.00000000E+00  0.00000000E+00  0.00000000E+00  0.00000000E+00
  0.00000000E+00  0.00000000E+00  0.00000000E+00  0.00000000E+00  0.00000000E+00
  0.00000000E+00  0.00000000E+00  0.00000000E+00  0.00000000E+00  0.00000000E+00
IOpCl                                      I                0
IROHF                                      I                0
Alpha Orbital Energies                     R   N=          98
 -1.01410944E+02 -1.40945331E+01 -1.01007512E+01 -9.95982072E+00 -9.32718913E+00
 -7.09019879E+00 -7.08183554E+00 -7.08183553E+00 -7.16706244E-01 -6.47626493E-01
 -5.39716798E-01 -3.07832476E-01 -3.07792620E-01 -2.77598883E-01 -1.82527358E-01
 -1.75802980E-01 -1.75797954E-01 -9.67351779E-02 -9.67346544E-02 -6.89100650E-02
  1.08798040E-01  1.27343845E-01  1.44701661E-01  1.44736880E-01  1.73192514E-01
  2.02862963E-01  2.02882081E-01  2.03051842E-01  2.20500128E-01  2.20656548E-01
  2.40853233E-01  2.49190740E-01  2.49279801E-01  2.70524276E-01  2.75951499E-01
  2.76052762E-01  3.13707390E-01  3.34105929E-01  3.34242042E-01  3.61195049E-01
  3.85816787E-01  3.85917439E-01  3.87655833E-01  4.64777195E-01  4.79978419E-01
  6.48073421E-01  7.29586890E-01  7.44072424E-01  7.44093636E-01  7.72972502E-01
  7.73072114E-01  8.77514817E-01  8.96846808E-01  8.96883995E-01  9.76266780E-01
  9.93413048E-01  9.93456728E-01  1.04413455E+00  1.04420815E+00  1.08293440E+00
  1.09475773E+00  1.09479245E+00  1.12448993E+00  1.19000294E+00  1.19006961E+00
  1.23104846E+00  1.26728407E+00  1.37076423E+00  1.46765947E+00  1.60179770E+00
  1.60184061E+00  1.74871338E+00  1.78216254E+00  1.78216599E+00  1.80440860E+00
  1.80443586E+00  2.15670282E+00  2.20195500E+00  2.20198301E+00  2.21724969E+00
  2.21736871E+00  2.29444317E+00  2.48931471E+00  2.48935334E+00  2.67553151E+00
  2.82424816E+00  2.83503508E+00  2.83506438E+00  2.95446111E+00  2.95460848E+00
  3.25844373E+00  3.38382051E+00  3.55622286E+00  3.55646541E+00  4.20997695E+00
  4.41275203E+00  4.45641232E+00  4.57124924E+00
Alpha MO coefficients                      R   N=        9604
 -6.43700341E-06  2.58114240E-05 -5.27575925E-05  2.45795752E-10 -5.70904462E-08
  1.14401008E-04 -3.41462418E-05  2.63653724E-10 -6.22500892E-08 -3.73171979E-05
 -8.58724133E-05 -1.02464762E-09  9.04247876E-08 -2.08381612E-05  1.22896184E-05
  1.22965667E-05  5.72683528E-10 -3.70513777E-08 -2.96498430E-10  9.95996895E-01
  1.51507143E-02  4.01120423E-05 -1.55446130E-10  3.70614677E-08 -2.10652313E-02
 -1.77004525E-05  3.06474975E-11 -8.94036997E-09  1.88565071E-03 -4.88914037E-05
  4.34917648E-10 -5.72946847E-08 -4.15036328E-04 -2.39772109E-05  5.18899055E-10
 -4.67921413E-08  7.50280514E-03  7.52471355E-03  7.52471480E-03  2.13560799E-10
 -2.33505047E-08  1.67984519E-12 -2.72858524E-05 -3.21773314E-05  4.33532966E-05
  2.35847139E-05  2.80187755E-08 -1.22286271E-05 -2.73241154E-05 -3.19859104E-05
  4.30590923E-05  2.35646778E-05  1.05759246E-05  6.16126110E-06 -2.73263123E-05
 -3.19827655E-05  4.30569351E-05  2.35633363E-05 -1.06042516E-05  6.11243959E-06
 -3.55886518E-07  1.74428370E-06  1.36468906E-07  5.20621300E-10 -2.55472929E-08
 -1.09335847E-04 -8.76856733E-05  2.33028538E-09 -9.99853116E-08 -1.21420061E-05
 -7.82694763E-05 -2.10403004E-09  1.37907011E-07 -1.02103718E-05  8.60568443E-07
  8.62341566E-07  6.03451050E-10 -2.72436493E-08  1.35663877E-11 -1.89465827E-06
 -7.48825693E-06 -9.28796417E-07  2.66464593E-11 -1.67891329E-09  1.11645640E-04
 -6.11832756E-05  3.03273459E-09 -1.34430393E-07  9.65394085E-05  9.78439879E-06
  3.37593380E-09 -1.78208742E-07  3.72006291E-06 -5.68674733E-06 -5.68713376E-06
 -6.97996664E-10  3.20811200E-08 -3.98218605E-12  3.81094857E-06  1.59550538E-05
  3.02015685E-06  5.38822996E-10 -2.53940869E-08 -3.59589304E-05 -3.62347767E-05
 -1.78492853E-09  6.74322565E-08  1.05485058E-03  9.85062842E-05  2.02586920E-08
 -1.07779679E-06  1.55910385E-06  9.62554020E-06  9.61575569E-06 -7.19033203E-11
  6.28840488E-09 -1.03497417E-10  1.36710911E-07  2.45513493E-06 -1.78200605E-07
  4.03779636E-11 -2.52714034E-09  6.11637348E-06  1.48976890E-06 -2.39292753E-10
  1.50300751E-08 -6.18785379E-05 -2.95798934E-05  1.18769861E-09 -8.11544285E-08
 -1.65559227E-04 -7.25526181E-05 -1.03916934E-08  4.73544550E-07  3.06683724E-06
  4.75285601E-06  4.75254929E-06 -6.89362457E-11  2.96354482E-10 -1.96881276E-11
  9.86662201E-06 -4.67642484E-05 -1.72124070E-04  1.11285910E-06  6.54787716E-09
 -2.80585458E-06  9.83341121E-06 -4.66143972E-05 -1.72709308E-04  1.18081750E-06
  2.40326011E-06  1.39340908E-06  9.83234349E-06 -4.66113180E-05 -1.72724474E-04
  1.18203397E-06 -2.40922044E-06  1.38219592E-06  8.35403239E-05  2.08907391E-04
 -2.81627685E-04  1.27575061E-08 -5.73170118E-07 -2.46736477E-04 -4.24307180E-04
  2.17843387E-08 -9.93111586E-07  1.45725818E-03  1.00964214E-03 -4.14930006E-08
  1.86471238E-06 -7.58621169E-04 -1.35405261E-05 -1.35415217E-05  4.01381435E-08
 -1.80831548E-06  9.53638887E-11  9.92698450E-01  3.44419649E-02 -1.39767749E-03
  6.50316962E-08 -2.93437955E-06  5.21265935E-03  1.08049791E-04 -5.00234605E-09
  2.31301828E-07 -3.00390217E-03  5.98382149E-05 -6.37207277E-09  2.86600656E-07
 -7.70734395E-03 -8.42208712E-03 -8.42208513E-03 -3.82735706E-08  1.72332817E-06
 -8.66720586E-11  9.92990682E-01  4.96372723E-02 -7.21316719E-04 -2.26759626E-08
  9.27781448E-07 -1.64815775E-02  8.89459220E-04  3.70138734E-08 -1.38457272E-07
  6.67915737E-03 -3.19847332E-03 -2.34450617E-09 -1.94325486E-06 -9.28051943E-03
 -8.86520411E-03 -8.86569123E-03  2.29059791E-09 -2.40739240E-07 -7.69753142E-09
 -9.27492973E-06 -4.98041357E-05 -2.37441800E-06  6.65044733E-10 -1.36043336E-08
 -1.80439161E-05  1.87057796E-04 -5.13271845E-09  2.28942275E-07  3.22859448E-03
  1.85899585E-03  1.38582621E-09  1.39399427E-06 -5.63564678E-03 -1.87278424E-03
  8.96741966E-09 -1.85632797E-06 -1.37523752E-04 -1.77218515E-04 -1.77176361E-04
  1.78395572E-09 -3.23466257E-09  1.31555490E-09 -1.55189234E-04  3.02699347E-03
 -9.31464841E-04  2.93515151E-05  2.15330033E-07 -9.53397464E-05 -1.55896258E-04
  3.02803604E-03 -9.32747391E-04  2.96656695E-05  8.29879527E-05  4.82398032E-05
 -1.55912355E-04  3.02811356E-03 -9.32844095E-04  2.96725102E-05 -8.32128742E-05
  4.78549334E-05 -1.96748560E-05 -5.28781307E-05  4.30368523E-05  8.41305832E-09
 -4.81292845E-07 -3.97470459E-04 -8.15641050E-04 -1.03976531E-08  9.64615638E-07
  1.78019330E-03  4.82497132E-04 -5.62422207E-08  3.08684180E-06 -4.66942880E-05
 -3.51431552E-05 -3.52565748E-05  5.85173258E-09 -2.99084023E-07 -6.56945994E-10
 -2.94955076E-05 -1.07993130E-04 -8.61500081E-06 -4.62687144E-09  2.47627334E-07
  1.15036130E-03 -3.40586177E-04  4.01236118E-08 -2.01942856E-06 -1.03005064E-03
 -1.36062867E-04  1.92853036E-09 -2.78491978E-07 -2.65579192E-05 -7.22103830E-05
 -7.21984174E-05 -4.31723688E-09  2.23028679E-07  2.91151632E-11 -1.75222689E-05
 -8.32062372E-05 -8.75599179E-05  7.87536995E-10 -5.62067808E-08  4.94884828E-04
  5.05160878E-04 -1.95422554E-08  1.33259736E-06 -1.48091703E-03  3.09106789E-03
  5.25301159E-09  7.53795573E-07 -3.07703414E-05 -3.01840304E-05 -3.03019711E-05
 -1.13698073E-10 -3.80787117E-09 -6.42782933E-10  1.27739978E-07  6.12491861E-06
  3.80855718E-06 -1.97342708E-10  1.38495987E-08  1.36556965E-05 -2.64942732E-05
  1.11493657E-09 -7.77287004E-08 -1.45066577E-04  2.74740275E-04 -2.40677860E-09
  2.35135610E-07  4.19975565E-03  1.00236537E-03 -1.04107654E-08  1.36317887E-06
  4.01135930E-05 -8.11577295E-07 -8.29246412E-07 -4.10672654E-10  4.23402232E-08
 -2.02883842E-10 -3.09160211E-05 -4.74814606E-04 -2.04426842E-04 -3.63796168E-05
  4.11003600E-08 -1.74025663E-05 -3.07129115E-05 -4.76893105E-04 -1.99923779E-04
 -3.68110039E-05  1.53558034E-05  8.82649465E-06 -3.07091876E-05 -4.76925542E-04
 -1.99841019E-04 -3.68187217E-05 -1.53995621E-05  8.75885661E-06  9.92843622E-01
  4.92934526E-02  1.88233042E-03 -9.42215247E-08  4.28654695E-06 -1.11427478E-02
 -9.70911277E-04  7.41519075E-08 -3.50728719E-06 -5.95394576E-03 -1.01709745E-03
  1.48436119E-07 -8.15955776E-06 -8.46081069E-03 -9.69859015E-03 -9.69855803E-03
 -6.68138705E-08  3.02459813E-06  4.72199409E-11 -4.93805170E-04  2.50586625E-05
  4.41051665E-04 -1.97305434E-08  9.02888309E-07 -8.20186016E-04  4.04717333E-04
 -2.62803668E-08  1.12830570E-06  8.89992352E-03 -3.14526463E-03  1.06009057E-07
 -3.96711830E-06 -2.75133963E-04  1.58782998E-04  1.58780776E-04  2.55244312E-08
 -1.16424621E-06  6.55246579E-11 -1.09391013E-04  1.28615987E-04  3.68286242E-04
  6.31586171E-10  1.37015466E-07  2.99476704E-03 -1.57766490E-03 -1.03535496E-08
  1.14609429E-06 -3.78228960E-02  3.45425116E-02  2.61605633E-08  9.21805426E-06
 -7.67082629E-04 -1.25948172E-04 -1.26165882E-04  3.17098939E-09 -5.65423344E-07
  2.51539182E-09 -2.84604660E-01  1.02274290E+00  4.90940234E-03 -2.33958797E-08
  4.86648337E-06  7.60322654E-02  6.09508664E-04 -1.26437345E-09  3.44916139E-07
 -2.65026480E-02 -1.73521004E-03  2.22297582E-09 -1.10833897E-06  6.23325115E-02
  1.73362241E-02 -1.67931264E-07  2.07334642E-05 -1.51895111E-02 -1.55798782E-02
 -1.55799202E-02 -4.33099817E-09  4.98489086E-07 -2.24835466E-10 -4.11585051E-05
 -7.27776982E-04  9.65839823E-04 -7.19218174E-05 -2.74996919E-08  1.27847215E-05
 -4.08410650E-05 -7.32275896E-04  9.73600266E-04 -7.23403300E-05 -1.06703003E-05
 -6.44547061E-06 -4.08304763E-05 -7.32314793E-04  9.73660412E-04 -7.23589611E-05
  1.06983195E-05 -6.39321986E-06  1.36366421E-05  6.15064350E-05  4.51012167E-05
 -2.19370198E-08  1.14638723E-06  3.34924281E-04  5.66848510E-04  5.06803637E-08
 -2.72149283E-06 -1.77804760E-02  9.71383756E-03  6.18092079E-07 -4.16944798E-05
  8.15087796E-05  5.08076325E-06  5.09709189E-06 -5.43273321E-09  3.23551182E-07
  1.95290325E-10  1.09042926E-05  5.82237447E-05 -1.77193575E-05 -1.07342282E-08
  6.89061250E-07 -7.69692367E-04  5.64663072E-04  1.98531399E-08 -1.91247662E-06
  6.61265897E-04 -2.67904034E-03 -3.49886770E-07  2.31302890E-05 -4.59063135E-05
  2.89588205E-05  2.89572292E-05  9.62126104E-09 -4.78553338E-07  6.32262867E-11
  7.03362626E-05  1.59607690E-03  3.90172070E-04 -9.69029065E-09  8.44612884E-07
 -7.27755360E-04  1.55447038E-03  8.77552601E-08 -3.40437385E-06  4.85516701E-02
 -5.28099816E-02 -1.23872879E-07 -9.49635565E-06 -1.96304548E-03  2.06702307E-04
  2.07383192E-04  1.14398411E-08 -2.14005885E-06  9.35199414E-09  1.44680396E-03
 -5.51435053E-03  9.90324589E-01 -3.22322512E-06  8.49507364E-04 -4.15800858E-04
  3.14985842E-02 -1.09895670E-07  2.71382596E-05  5.11700287E-03 -1.29370056E-02
  4.22627536E-08 -1.06742963E-05 -7.17417867E-02 -1.41044114E-02  2.31273336E-07
 -2.52517967E-05  7.55789190E-04 -4.64594286E-04 -4.64545152E-04 -8.71133548E-09
  1.14129500E-06  3.82782047E-10 -1.64227385E-04  1.37338720E-03 -5.46050471E-03
 -3.17366639E-04  6.78468318E-08 -3.12327415E-05 -1.63299053E-04  1.37749518E-03
 -5.45841066E-03 -3.17642388E-04  2.63511832E-05  1.53731410E-05 -1.63257742E-04
  1.37758065E-03 -5.45851557E-03 -3.17665441E-04 -2.64190894E-05  1.52455908E-05
 -2.31853891E-05 -1.57595084E-04 -9.51008197E-05  2.60495715E-08 -1.44286579E-06
  2.48581731E-03  1.49917819E-03 -1.61875839E-07  7.98575388E-06  3.85193365E-02
 -1.62112301E-02 -1.14023875E-06  7.44695936E-05  1.26847257E-04 -4.13326473E-05
 -4.13417266E-05 -8.61628127E-09  2.51600309E-07 -2.79738262E-10 -1.31538180E-05
 -3.09007111E-05  3.88079405E-05  1.73685804E-08 -1.12292235E-06 -7.11105867E-04
  7.55603895E-04 -1.15663982E-07  6.95088586E-06 -7.99783608E-03  5.75759958E-03
  5.20219156E-07 -3.60044575E-05 -1.30822201E-04 -5.33384852E-06 -5.32204778E-06
  3.91625234E-10  5.72920986E-08 -7.71412465E-11  9.74509014E-08  4.35369925E-07
  8.00607536E-07 -1.55107962E-05 -8.20339945E-05 -2.70676419E-06 -5.05049559E-06
  5.93227043E-05  3.14576530E-04  1.51114460E-05 -5.71130791E-05  8.22844257E-05
  4.40891428E-04  9.53363792E-08 -8.27194842E-05  8.29241803E-05  2.71962675E-05
  1.43742266E-04 -1.87402859E-05  1.71509338E-07 -7.26109811E-07 -8.34645409E-04
  1.83972375E-01  9.73614473E-01 -8.76728520E-08 -2.46877972E-05  5.49556631E-03
  2.90838357E-02  1.86468531E-06  6.86682332E-06 -2.16054236E-03 -1.14352932E-02
 -6.46089181E-05 -1.88929062E-05  9.62167235E-04  5.09491458E-03 -9.85673264E-07
  4.83389824E-06 -4.46252436E-06  6.03045413E-05  3.19151741E-04  1.16795233E-06
  5.87115174E-05 -5.55609394E-04  4.62457556E-03  2.62874522E-04 -4.67212775E-06
 -4.95224672E-05 -3.87158085E-05  3.76094310E-04 -3.07469449E-03 -1.74746170E-04
 -1.92694233E-05 -3.36032631E-05 -1.93466332E-05  1.90346546E-04 -1.54933059E-03
 -8.76677922E-05  2.66536418E-06 -2.93125871E-05 -4.12320133E-08 -7.74410549E-08
 -2.65999964E-07  7.94723252E-06  4.21874532E-05 -1.53281566E-05 -1.22089300E-05
 -3.06289068E-05 -1.63284266E-04  4.04661130E-05 -2.69005556E-05  1.85221183E-04
  9.91462325E-04 -8.97122752E-07  3.67971406E-06 -3.34109782E-06 -1.11370277E-06
 -6.01580369E-06  7.87539941E-07 -4.10392161E-07 -1.62079671E-06  1.10954263E-07
 -3.50763904E-06 -1.89185077E-05  1.90879093E-05 -9.45003426E-06  2.15145787E-05
  1.15828306E-04  1.28649792E-07  8.86707683E-06 -7.69264342E-05 -4.14548134E-04
  1.73732423E-07  5.66656592E-07 -2.73788253E-06 -2.19107688E-06 -1.16582822E-05
  3.74466055E-07 -2.25174724E-08 -1.05937993E-07 -1.63539955E-07 -8.20940936E-05
  1.55025225E-05  6.43421432E-07  1.02474375E-06  3.13830333E-04 -5.94198052E-05
 -3.17843342E-06  1.18850459E-05  4.35471958E-04 -8.33112185E-05 -2.14409155E-08
  1.62281183E-05 -1.62668838E-05  1.43930799E-04 -2.71618681E-05 -9.55848245E-05
 -3.47161292E-08  1.47948823E-07  1.60998757E-04  9.73614888E-01 -1.83972294E-01
  1.89856227E-08  4.75309664E-06  2.90835242E-02 -5.49562477E-03 -4.09604570E-07
 -1.29864669E-06 -1.14339568E-02  2.16078661E-03  1.34325065E-05  3.87472203E-06
  5.09192019E-03 -9.62716927E-04  1.92764997E-07 -9.49053685E-07  8.81259308E-07
  3.19147762E-04 -6.03072905E-05  5.97645129E-06 -1.12340462E-05  1.06243708E-04
 -8.84775052E-04 -5.03006965E-05 -2.50244976E-05  9.41381080E-06 -4.50359028E-05
  4.31190827E-04 -3.54318605E-03 -2.02456728E-04 -4.16710954E-05 -5.15591475E-06
  5.61224846E-05 -5.39779196E-04  4.42787531E-03  2.52678209E-04 -4.59365306E-05
  1.69947997E-05  8.60855458E-09  1.66972056E-08  5.50398598E-08  4.20566097E-05