 Entering Gaussian System, Link 0=g16
 Initial command:
 /usr/local/g16_AVX//g16/l1.exe "/scratch/alanqf/0138-54580.ixchel.mda.cinvestav.mx/Gau-50796.inp" -scrdir="/scratch/alanqf/0138-54580.ixchel.mda.cinvestav.mx/"
 Entering Link 1 = /usr/local/g16_AVX//g16/l1.exe PID=     50797.
  
 Copyright (c) 1988-2017, Gaussian, Inc.  All Rights Reserved.
  
 This is part of the Gaussian(R) 16 program.  It is based on
 the Gaussian(R) 09 system (copyright 2009, Gaussian, Inc.),
 the Gaussian(R) 03 system (copyright 2003, Gaussian, Inc.),
 the Gaussian(R) 98 system (copyright 1998, Gaussian, Inc.),
 the Gaussian(R) 94 system (copyright 1995, Gaussian, Inc.),
 the Gaussian 92(TM) system (copyright 1992, Gaussian, Inc.),
 the Gaussian 90(TM) system (copyright 1990, Gaussian, Inc.),
 the Gaussian 88(TM) system (copyright 1988, Gaussian, Inc.),
 the Gaussian 86(TM) system (copyright 1986, Carnegie Mellon
 University), and the Gaussian 82(TM) system (copyright 1983,
 Carnegie Mellon University). Gaussian is a federally registered
 trademark of Gaussian, Inc.
  
 This software contains proprietary and confidential information,
 including trade secrets, belonging to Gaussian, Inc.
  
 This software is provided under written license and may be
 used, copied, transmitted, or stored only in accord with that
 written license.
  
 The following legend is applicable only to US Government
 contracts under FAR:
  
                    RESTRICTED RIGHTS LEGEND
  
 Use, reproduction and disclosure by the US Government is
 subject to restrictions as set forth in subparagraphs (a)
 and (c) of the Commercial Computer Software - Restricted
 Rights clause in FAR 52.227-19.
  
 Gaussian, Inc.
 340 Quinnipiac St., Bldg. 40, Wallingford CT 06492
  
  
 ---------------------------------------------------------------
 Warning -- This program may not be used in any manner that
 competes with the business of Gaussian, Inc. or will provide
 assistance to any competitor of Gaussian, Inc.  The licensee
 of this program is prohibited from giving any competitor of
 Gaussian, Inc. access to this program.  By using this program,
 the user acknowledges that Gaussian, Inc. is engaged in the
 business of creating and licensing software in the field of
 computational chemistry and represents and warrants to the
 licensee that it is not a competitor of Gaussian, Inc. and that
 it will not use this program in any manner prohibited above.
 ---------------------------------------------------------------
  

 Cite this work as:
 Gaussian 16, Revision B.01,
 M. J. Frisch, G. W. Trucks, H. B. Schlegel, G. E. Scuseria, 
 M. A. Robb, J. R. Cheeseman, G. Scalmani, V. Barone, 
 G. A. Petersson, H. Nakatsuji, X. Li, M. Caricato, A. V. Marenich, 
 J. Bloino, B. G. Janesko, R. Gomperts, B. Mennucci, H. P. Hratchian, 
 J. V. Ortiz, A. F. Izmaylov, J. L. Sonnenberg, D. Williams-Young, 
 F. Ding, F. Lipparini, F. Egidi, J. Goings, B. Peng, A. Petrone, 
 T. Henderson, D. Ranasinghe, V. G. Zakrzewski, J. Gao, N. Rega, 
 G. Zheng, W. Liang, M. Hada, M. Ehara, K. Toyota, R. Fukuda, 
 J. Hasegawa, M. Ishida, T. Nakajima, Y. Honda, O. Kitao, H. Nakai, 
 T. Vreven, K. Throssell, J. A. Montgomery, Jr., J. E. Peralta, 
 F. Ogliaro, M. J. Bearpark, J. J. Heyd, E. N. Brothers, K. N. Kudin, 
 V. N. Staroverov, T. A. Keith, R. Kobayashi, J. Normand, 
 K. Raghavachari, A. P. Rendell, J. C. Burant, S. S. Iyengar, 
 J. Tomasi, M. Cossi, J. M. Millam, M. Klene, C. Adamo, R. Cammi, 
 J. W. Ochterski, R. L. Martin, K. Morokuma, O. Farkas, 
 J. B. Foresman, and D. J. Fox, Gaussian, Inc., Wallingford CT, 2016.
 
 ******************************************
 Gaussian 16:  ES64L-G16RevB.01 20-Dec-2017
                13-Oct-2024 
 ******************************************
 %NProcShared=26
 Will use up to   26 processors via shared memory.
 %MEM=20GB
 %chk=CHKfiles/0138.chk
 ---------------------------------------------------------------------
 #p b3lyp 6-31++g(d,p) scf=verytight NoSymm freq=noraman int=ultrafine
 ---------------------------------------------------------------------
 1/10=4,30=1,38=1/1,3;
 2/12=2,15=1,17=6,18=5,40=1/2;
 3/5=1,6=6,7=1111,11=2,25=1,30=1,71=2,74=-5,75=-5,140=1/1,2,3;
 4//1;
 5/5=2,17=3,38=5,98=1/2;
 8/6=4,10=90,11=11/1;
 11/6=1,8=1,9=11,15=111,16=1,31=1/1,2,10;
 10/6=1,31=1/2;
 6/7=2,8=2,9=2,10=2,28=1/1;
 7/8=1,10=1,25=1,30=1/1,2,3,16;
 1/10=4,30=1/3;
 99//99;
 Leave Link    1 at Sun Oct 13 09:52:01 2024, MaxMem=  2684354560 cpu:               2.2 elap:               0.1
 (Enter /usr/local/g16_AVX//g16/l101.exe)
 ------------------------
 RxCoord=3.69758 DE=45.85
 ------------------------
 Symbolic Z-matrix:
 Charge = -1 Multiplicity = 1
 C                    -0.37953  -0.00002   0.00156 
 Cl                   -2.20911  0.        -0.00008 
 H                    -0.04615   0.00235  -1.03076 
 H                    -0.04796   0.89325   0.52026 
 H                    -0.04794  -0.89566   0.51616 
 C                     2.51584   0.00004  -0.00227 
 N                     3.69616  -0.00001   0.0004 
 
 ITRead=  0  0  0  0  0  0  0
 MicOpt= -1 -1 -1 -1 -1 -1 -1
 NAtoms=      7 NQM=        7 NQMF=       0 NMMI=      0 NMMIF=      0
                NMic=       0 NMicF=      0.
                    Isotopes and Nuclear Properties:
 (Nuclear quadrupole moments (NQMom) in fm**2, nuclear magnetic moments (NMagM)
  in nuclear magnetons)

  Atom         1           2           3           4           5           6           7
 IAtWgt=          12          35           1           1           1          12          14
 AtmWgt=  12.0000000  34.9688527   1.0078250   1.0078250   1.0078250  12.0000000  14.0030740
 NucSpn=           0           3           1           1           1           0           2
 AtZEff=  -0.0000000  -0.0000000  -0.0000000  -0.0000000  -0.0000000  -0.0000000  -0.0000000
 NQMom=    0.0000000  -8.1650000   0.0000000   0.0000000   0.0000000   0.0000000   2.0440000
 NMagM=    0.0000000   0.8218740   2.7928460   2.7928460   2.7928460   0.0000000   0.4037610
 AtZNuc=   6.0000000  17.0000000   1.0000000   1.0000000   1.0000000   6.0000000   7.0000000
 Leave Link  101 at Sun Oct 13 09:52:01 2024, MaxMem=  2684354560 cpu:               3.4 elap:               0.2
 (Enter /usr/local/g16_AVX//g16/l103.exe)

 GradGradGradGradGradGradGradGradGradGradGradGradGradGradGradGradGradGrad
 Berny optimization.
 Initialization pass.
 Trust Radius=3.00D-01 FncErr=1.00D-07 GrdErr=1.00D-07 EigMax=2.50D+02 EigMin=1.00D-04
 Number of steps in this run=      2 maximum allowed number of steps=      2.
 GradGradGradGradGradGradGradGradGradGradGradGradGradGradGradGradGradGrad

 Leave Link  103 at Sun Oct 13 09:52:02 2024, MaxMem=  2684354560 cpu:               0.7 elap:               0.1
 (Enter /usr/local/g16_AVX//g16/l202.exe)
                          Input orientation:                          
 ---------------------------------------------------------------------
 Center     Atomic      Atomic             Coordinates (Angstroms)
 Number     Number       Type             X           Y           Z
 ---------------------------------------------------------------------
      1          6           0       -0.379532   -0.000015    0.001559
      2         17           0       -2.209114   -0.000003   -0.000081
      3          1           0       -0.046148    0.002349   -1.030763
      4          1           0       -0.047957    0.893248    0.520258
      5          1           0       -0.047936   -0.895659    0.516155
      6          6           0        2.515838    0.000044   -0.002266
      7          7           0        3.696163   -0.000013    0.000401
 ---------------------------------------------------------------------
                    Distance matrix (angstroms):
                    1          2          3          4          5
     1  C    0.000000
     2  Cl   1.829583   0.000000
     3  H    1.084822   2.395983   0.000000
     4  H    1.084855   2.395673   1.788678   0.000000
     5  H    1.084870   2.395702   1.788680   1.788912   0.000000
     6  C    2.895373   4.724953   2.760722   2.764758   2.764775
     7  N    4.075695   5.905277   3.881777   3.884147   3.884129
                    6          7
     6  C    0.000000
     7  N    1.180328   0.000000
 Symmetry turned off by external request.
 Stoichiometry    C2H3ClN(1-)
 Framework group  C1[X(C2H3ClN)]
 Deg. of freedom    15
 Full point group                 C1      NOp   1
 Rotational constants (GHZ):         156.7171575           1.1453091           1.1453079
 Leave Link  202 at Sun Oct 13 09:52:02 2024, MaxMem=  2684354560 cpu:               0.6 elap:               0.1
 (Enter /usr/local/g16_AVX//g16/l301.exe)
 Standard basis: 6-31++G(d,p) (6D, 7F)
 Ernie: Thresh=  0.10000D-02 Tol=  0.10000D-05 Strict=F.
    98 basis functions,   176 primitive gaussians,    98 cartesian basis functions
    20 alpha electrons       20 beta electrons
       nuclear repulsion energy       109.6928383383 Hartrees.
 IExCor=  402 DFT=T Ex+Corr=B3LYP ExCW=0 ScaHFX=  0.200000
 ScaDFX=  0.800000  0.720000  1.000000  0.810000 ScalE2=  1.000000  1.000000
 IRadAn=      5 IRanWt=     -1 IRanGd=            0 ICorTp=0 IEmpDi=  4
 NAtoms=    7 NActive=    7 NUniq=    7 SFac= 1.00D+00 NAtFMM=   60 NAOKFM=F Big=F
 Integral buffers will be    131072 words long.
 Raffenetti 2 integral format.
 Two-electron integral symmetry is turned off.
 Leave Link  301 at Sun Oct 13 09:52:02 2024, MaxMem=  2684354560 cpu:               2.0 elap:               0.1
 (Enter /usr/local/g16_AVX//g16/l302.exe)
 NPDir=0 NMtPBC=     1 NCelOv=     1 NCel=       1 NClECP=     1 NCelD=      1
         NCelK=      1 NCelE2=     1 NClLst=     1 CellRange=     0.0.
 One-electron integrals computed using PRISM.
 NBasis=    98 RedAO= T EigKep=  1.39D-04  NBF=    98
 NBsUse=    98 1.00D-06 EigRej= -1.00D+00 NBFU=    98
 Precomputing XC quadrature grid using
 IXCGrd= 4 IRadAn=           5 IRanWt=          -1 IRanGd=           0 AccXCQ= 0.00D+00.
 Generated NRdTot=       0 NPtTot=           0 NUsed=           0 NTot=          32
 NSgBfM=    98    98    98    98    98 MxSgAt=     7 MxSgA2=     7.
 Leave Link  302 at Sun Oct 13 09:52:02 2024, MaxMem=  2684354560 cpu:               4.6 elap:               0.2
 (Enter /usr/local/g16_AVX//g16/l303.exe)
 DipDrv:  MaxL=1.
 Leave Link  303 at Sun Oct 13 09:52:02 2024, MaxMem=  2684354560 cpu:               0.8 elap:               0.1
 (Enter /usr/local/g16_AVX//g16/l401.exe)
 ExpMin= 3.60D-02 ExpMax= 2.52D+04 ExpMxC= 3.78D+03 IAcc=3 IRadAn=         5 AccDes= 0.00D+00
 Harris functional with IExCor=  402 and IRadAn=       5 diagonalized for initial guess.
 HarFok:  IExCor=  402 AccDes= 0.00D+00 IRadAn=         5 IDoV= 1 UseB2=F ITyADJ=14
 ICtDFT=  3500011 ScaDFX=  1.000000  1.000000  1.000000  1.000000
 FoFCou: FMM=F IPFlag=           0 FMFlag=      100000 FMFlg1=           0
         NFxFlg=           0 DoJE=T BraDBF=F KetDBF=T FulRan=T
         wScrn=  0.000000 ICntrl=       500 IOpCl=  0 I1Cent=   200000004 NGrid=           0
         NMat0=    1 NMatS0=      1 NMatT0=    0 NMatD0=    1 NMtDS0=    0 NMtDT0=    0
 Symmetry not used in FoFCou.
 Harris En= -593.078487319730    
 JPrj=0 DoOrth=F DoCkMO=F.
 Leave Link  401 at Sun Oct 13 09:52:02 2024, MaxMem=  2684354560 cpu:               5.7 elap:               0.3
 (Enter /usr/local/g16_AVX//g16/l502.exe)
 Keep R1 ints in memory in canonical form, NReq=35752935.
 FoFCou: FMM=F IPFlag=           0 FMFlag=           0 FMFlg1=           0
         NFxFlg=           0 DoJE=F BraDBF=F KetDBF=F FulRan=T
         wScrn=  0.000000 ICntrl=       600 IOpCl=  0 I1Cent=           0 NGrid=           0
         NMat0=    1 NMatS0=   4851 NMatT0=    0 NMatD0=    1 NMtDS0=    0 NMtDT0=    0
 Symmetry not used in FoFCou.
 Two-electron integral symmetry not used.
 Closed shell SCF:
 Using DIIS extrapolation, IDIIS=  1040.
 NGot=  2684354560 LenX=  2672563405 LenY=  2672553360
 Requested convergence on RMS density matrix=1.00D-08 within 128 cycles.
 Requested convergence on MAX density matrix=1.00D-06.
 Requested convergence on             energy=1.00D-06.
 No special actions if energy rises.

 Cycle   1  Pass 1  IDiag  1:
 E= -592.841720866729    
 DIIS: error= 3.49D-02 at cycle   1 NSaved=   1.
 NSaved= 1 IEnMin= 1 EnMin= -592.841720866729     IErMin= 1 ErrMin= 3.49D-02
 ErrMax= 3.49D-02  0.00D+00 EMaxC= 1.00D-01 BMatC= 1.32D-01 BMatP= 1.32D-01
 IDIUse=3 WtCom= 6.51D-01 WtEn= 3.49D-01
 Coeff-Com:  0.100D+01
 Coeff-En:   0.100D+01
 Coeff:      0.100D+01
 Gap=     0.630 Goal=   None    Shift=    0.000
 GapD=    0.630 DampG=2.000 DampE=0.500 DampFc=1.0000 IDamp=-1.
 RMSDP=7.81D-02 MaxDP=2.60D+00              OVMax= 3.82D-01

 Cycle   2  Pass 1  IDiag  1:
 E= -592.637034985591     Delta-E=        0.204685881138 Rises=F Damp=F
 DIIS: error= 4.93D-02 at cycle   2 NSaved=   2.
 NSaved= 2 IEnMin= 1 EnMin= -592.841720866729     IErMin= 1 ErrMin= 3.49D-02
 ErrMax= 4.93D-02  0.00D+00 EMaxC= 1.00D-01 BMatC= 3.01D-01 BMatP= 1.32D-01
 IDIUse=2 WtCom= 0.00D+00 WtEn= 1.00D+00
 Coeff-En:   0.686D+00 0.314D+00
 Coeff:      0.686D+00 0.314D+00
 Gap=     0.153 Goal=   None    Shift=    0.000
 RMSDP=7.66D-02 MaxDP=2.62D+00 DE= 2.05D-01 OVMax= 2.44D-01

 Cycle   3  Pass 1  IDiag  1:
 E= -592.983122536625     Delta-E=       -0.346087551034 Rises=F Damp=F
 DIIS: error= 8.04D-03 at cycle   3 NSaved=   3.
 NSaved= 3 IEnMin= 3 EnMin= -592.983122536625     IErMin= 3 ErrMin= 8.04D-03
 ErrMax= 8.04D-03  0.00D+00 EMaxC= 1.00D-01 BMatC= 1.06D-02 BMatP= 1.32D-01
 IDIUse=3 WtCom= 9.20D-01 WtEn= 8.04D-02
 Coeff-Com:  0.272D+00 0.108D+00 0.620D+00
 Coeff-En:   0.000D+00 0.000D+00 0.100D+01
 Coeff:      0.250D+00 0.991D-01 0.651D+00
 Gap=     0.184 Goal=   None    Shift=    0.000
 RMSDP=2.60D-03 MaxDP=4.48D-02 DE=-3.46D-01 OVMax= 5.08D-02

 Cycle   4  Pass 1  IDiag  1:
 E= -592.987935027379     Delta-E=       -0.004812490754 Rises=F Damp=F
 DIIS: error= 1.21D-02 at cycle   4 NSaved=   4.
 NSaved= 4 IEnMin= 4 EnMin= -592.987935027379     IErMin= 3 ErrMin= 8.04D-03
 ErrMax= 1.21D-02  0.00D+00 EMaxC= 1.00D-01 BMatC= 7.08D-03 BMatP= 1.06D-02
 IDIUse=3 WtCom= 8.79D-01 WtEn= 1.21D-01
 Coeff-Com:  0.512D-01-0.236D-01 0.490D+00 0.483D+00
 Coeff-En:   0.000D+00 0.000D+00 0.380D+00 0.620D+00
 Coeff:      0.449D-01-0.208D-01 0.476D+00 0.499D+00
 Gap=     0.174 Goal=   None    Shift=    0.000
 DSYEVD-2 returned Info=        5048 IAlg= 4 N=    98 NDim=    98 NE2=    27270951 trying  DSYEV.
 RMSDP=9.43D-04 MaxDP=1.52D-02 DE=-4.81D-03 OVMax= 2.96D-02

 Cycle   5  Pass 1  IDiag  1:
 E= -592.994312590010     Delta-E=       -0.006377562631 Rises=F Damp=F
 DIIS: error= 2.54D-03 at cycle   5 NSaved=   5.
 NSaved= 5 IEnMin= 5 EnMin= -592.994312590010     IErMin= 5 ErrMin= 2.54D-03
 ErrMax= 2.54D-03  0.00D+00 EMaxC= 1.00D-01 BMatC= 2.83D-04 BMatP= 7.08D-03
 IDIUse=3 WtCom= 9.75D-01 WtEn= 2.54D-02
 Coeff-Com:  0.164D-01-0.116D-01 0.222D+00 0.275D+00 0.498D+00
 Coeff-En:   0.000D+00 0.000D+00 0.000D+00 0.000D+00 0.100D+01
 Coeff:      0.160D-01-0.113D-01 0.216D+00 0.268D+00 0.511D+00
 Gap=     0.177 Goal=   None    Shift=    0.000
 RMSDP=2.71D-04 MaxDP=4.31D-03 DE=-6.38D-03 OVMax= 6.64D-03

 Cycle   6  Pass 1  IDiag  1:
 E= -592.994565811436     Delta-E=       -0.000253221426 Rises=F Damp=F
 DIIS: error= 8.41D-04 at cycle   6 NSaved=   6.
 NSaved= 6 IEnMin= 6 EnMin= -592.994565811436     IErMin= 6 ErrMin= 8.41D-04
 ErrMax= 8.41D-04  0.00D+00 EMaxC= 1.00D-01 BMatC= 2.91D-05 BMatP= 2.83D-04
 IDIUse=3 WtCom= 9.92D-01 WtEn= 8.41D-03
 Coeff-Com:  0.299D-02-0.578D-02 0.597D-01 0.750D-01 0.266D+00 0.602D+00
 Coeff-En:   0.000D+00 0.000D+00 0.000D+00 0.000D+00 0.787D-01 0.921D+00
 Coeff:      0.297D-02-0.573D-02 0.592D-01 0.744D-01 0.265D+00 0.604D+00
 Gap=     0.177 Goal=   None    Shift=    0.000
 RMSDP=7.12D-05 MaxDP=1.30D-03 DE=-2.53D-04 OVMax= 1.64D-03

 Cycle   7  Pass 1  IDiag  1:
 E= -592.994593742204     Delta-E=       -0.000027930768 Rises=F Damp=F
 DIIS: error= 6.51D-05 at cycle   7 NSaved=   7.
 NSaved= 7 IEnMin= 7 EnMin= -592.994593742204     IErMin= 7 ErrMin= 6.51D-05
 ErrMax= 6.51D-05  0.00D+00 EMaxC= 1.00D-01 BMatC= 3.95D-07 BMatP= 2.91D-05
 IDIUse=1 WtCom= 1.00D+00 WtEn= 0.00D+00
 Coeff-Com:  0.338D-03-0.824D-03 0.275D-02 0.215D-02 0.429D-01 0.180D+00
 Coeff-Com:  0.772D+00
 Coeff:      0.338D-03-0.824D-03 0.275D-02 0.215D-02 0.429D-01 0.180D+00
 Coeff:      0.772D+00
 Gap=     0.177 Goal=   None    Shift=    0.000
 RMSDP=1.32D-05 MaxDP=2.28D-04 DE=-2.79D-05 OVMax= 2.61D-04

 Cycle   8  Pass 1  IDiag  1:
 E= -592.994594204440     Delta-E=       -0.000000462236 Rises=F Damp=F
 DIIS: error= 9.48D-06 at cycle   8 NSaved=   8.
 NSaved= 8 IEnMin= 8 EnMin= -592.994594204440     IErMin= 8 ErrMin= 9.48D-06
 ErrMax= 9.48D-06  0.00D+00 EMaxC= 1.00D-01 BMatC= 1.45D-08 BMatP= 3.95D-07
 IDIUse=1 WtCom= 1.00D+00 WtEn= 0.00D+00
 Coeff-Com:  0.894D-04-0.120D-03 0.568D-04 0.206D-03 0.943D-02 0.429D-01
 Coeff-Com:  0.234D+00 0.713D+00
 Coeff:      0.894D-04-0.120D-03 0.568D-04 0.206D-03 0.943D-02 0.429D-01
 Coeff:      0.234D+00 0.713D+00
 Gap=     0.177 Goal=   None    Shift=    0.000
 DSYEVD-2 returned Info=        5048 IAlg= 4 N=    98 NDim=    98 NE2=    27270951 trying  DSYEV.
 RMSDP=2.25D-06 MaxDP=6.18D-05 DE=-4.62D-07 OVMax= 4.60D-05

 Cycle   9  Pass 1  IDiag  1:
 E= -592.994594219648     Delta-E=       -0.000000015208 Rises=F Damp=F
 DIIS: error= 3.00D-06 at cycle   9 NSaved=   9.
 NSaved= 9 IEnMin= 9 EnMin= -592.994594219648     IErMin= 9 ErrMin= 3.00D-06
 ErrMax= 3.00D-06  0.00D+00 EMaxC= 1.00D-01 BMatC= 1.52D-09 BMatP= 1.45D-08
 IDIUse=1 WtCom= 1.00D+00 WtEn= 0.00D+00
 Coeff-Com: -0.858D-05 0.986D-05-0.145D-03 0.111D-03 0.133D-02 0.512D-02
 Coeff-Com:  0.391D-01 0.278D+00 0.677D+00
 Coeff:     -0.858D-05 0.986D-05-0.145D-03 0.111D-03 0.133D-02 0.512D-02
 Coeff:      0.391D-01 0.278D+00 0.677D+00
 Gap=     0.177 Goal=   None    Shift=    0.000
 RMSDP=6.98D-07 MaxDP=1.95D-05 DE=-1.52D-08 OVMax= 1.16D-05

 Cycle  10  Pass 1  IDiag  1:
 E= -592.994594221311     Delta-E=       -0.000000001663 Rises=F Damp=F
 DIIS: error= 4.32D-07 at cycle  10 NSaved=  10.
 NSaved=10 IEnMin=10 EnMin= -592.994594221311     IErMin=10 ErrMin= 4.32D-07
 ErrMax= 4.32D-07  0.00D+00 EMaxC= 1.00D-01 BMatC= 2.45D-11 BMatP= 1.52D-09
 IDIUse=1 WtCom= 1.00D+00 WtEn= 0.00D+00
 Coeff-Com: -0.770D-05 0.654D-05-0.146D-04 0.397D-04-0.257D-06-0.554D-03
 Coeff-Com: -0.153D-02 0.239D-01 0.146D+00 0.833D+00
 Coeff:     -0.770D-05 0.654D-05-0.146D-04 0.397D-04-0.257D-06-0.554D-03
 Coeff:     -0.153D-02 0.239D-01 0.146D+00 0.833D+00
 Gap=     0.177 Goal=   None    Shift=    0.000
 RMSDP=1.55D-07 MaxDP=3.44D-06 DE=-1.66D-09 OVMax= 1.96D-06

 Cycle  11  Pass 1  IDiag  1:
 E= -592.994594221339     Delta-E=       -0.000000000028 Rises=F Damp=F
 DIIS: error= 4.91D-08 at cycle  11 NSaved=  11.
 NSaved=11 IEnMin=11 EnMin= -592.994594221339     IErMin=11 ErrMin= 4.91D-08
 ErrMax= 4.91D-08  0.00D+00 EMaxC= 1.00D-01 BMatC= 2.64D-13 BMatP= 2.45D-11
 IDIUse=1 WtCom= 1.00D+00 WtEn= 0.00D+00
 Coeff-Com: -0.110D-05 0.620D-06-0.773D-05-0.103D-04-0.489D-04-0.146D-03
 Coeff-Com: -0.227D-03-0.220D-02 0.489D-02 0.751D-01 0.923D+00
 Coeff:     -0.110D-05 0.620D-06-0.773D-05-0.103D-04-0.489D-04-0.146D-03
 Coeff:     -0.227D-03-0.220D-02 0.489D-02 0.751D-01 0.923D+00
 Gap=     0.177 Goal=   None    Shift=    0.000
 RMSDP=3.26D-08 MaxDP=6.12D-07 DE=-2.82D-11 OVMax= 3.64D-07

 Cycle  12  Pass 1  IDiag  1:
 E= -592.994594221339     Delta-E=        0.000000000000 Rises=F Damp=F
 DIIS: error= 6.03D-09 at cycle  12 NSaved=  12.
 NSaved=12 IEnMin=11 EnMin= -592.994594221339     IErMin=12 ErrMin= 6.03D-09
 ErrMax= 6.03D-09  0.00D+00 EMaxC= 1.00D-01 BMatC= 3.75D-15 BMatP= 2.64D-13
 IDIUse=1 WtCom= 1.00D+00 WtEn= 0.00D+00
 Coeff-Com: -0.566D-07 0.139D-07-0.943D-06-0.219D-05-0.891D-05-0.195D-04
 Coeff-Com: -0.378D-04-0.828D-03-0.208D-02-0.663D-03 0.117D+00 0.886D+00
 Coeff:     -0.566D-07 0.139D-07-0.943D-06-0.219D-05-0.891D-05-0.195D-04
 Coeff:     -0.378D-04-0.828D-03-0.208D-02-0.663D-03 0.117D+00 0.886D+00
 Gap=     0.177 Goal=   None    Shift=    0.000
 RMSDP=1.91D-09 MaxDP=3.64D-08 DE= 4.55D-13 OVMax= 4.03D-08

 SCF Done:  E(RB3LYP) =  -592.994594221     A.U. after   12 cycles
            NFock= 12  Conv=0.19D-08     -V/T= 2.0045
 KE= 5.903101506664D+02 PE=-1.629003860399D+03 EE= 3.360062771734D+02
 Leave Link  502 at Sun Oct 13 09:52:04 2024, MaxMem=  2684354560 cpu:              33.1 elap:               1.5
 (Enter /usr/local/g16_AVX//g16/l801.exe)
 DoSCS=F DFT=T ScalE2(SS,OS)=  1.000000  1.000000
 Range of M.O.s used for correlation:     1    98
 NBasis=    98 NAE=    20 NBE=    20 NFC=     0 NFV=     0
 NROrb=     98 NOA=    20 NOB=    20 NVA=    78 NVB=    78

 **** Warning!!: The largest alpha MO coefficient is  0.32444062D+02

 Leave Link  801 at Sun Oct 13 09:52:04 2024, MaxMem=  2684354560 cpu:               1.5 elap:               0.1
 (Enter /usr/local/g16_AVX//g16/l1101.exe)
 Using compressed storage, NAtomX=     7.
 Will process      8 centers per pass.
 Leave Link 1101 at Sun Oct 13 09:52:04 2024, MaxMem=  2684354560 cpu:               3.1 elap:               0.2
 (Enter /usr/local/g16_AVX//g16/l1102.exe)
 Symmetrizing basis deriv contribution to polar:
 IMax=3 JMax=2 DiffMx= 0.00D+00
 Leave Link 1102 at Sun Oct 13 09:52:04 2024, MaxMem=  2684354560 cpu:               0.8 elap:               0.1
 (Enter /usr/local/g16_AVX//g16/l1110.exe)
 Forming Gx(P) for the SCF density, NAtomX=     7.
 Integral derivatives from FoFJK, PRISM(SPDF).
 Do as many integral derivatives as possible in FoFJK.
 G2DrvN: MDV=    2684353864.
 G2DrvN: will do     8 centers at a time, making    1 passes.
 Calling FoFCou, ICntrl=  3107 FMM=F I1Cent=   0 AccDes= 0.00D+00.
 FoFJK:  IHMeth= 1 ICntrl=    3107 DoSepK=F KAlg= 0 I1Cent=           0 FoldK=F
 IRaf=         0 NMat=       1 IRICut=       1 DoRegI=T DoRafI=F ISym2E= 0 IDoP0=0 IntGTp=1.
 FoFCou: FMM=F IPFlag=           0 FMFlag=      100000 FMFlg1=           0
         NFxFlg=           0 DoJE=F BraDBF=F KetDBF=F FulRan=T
         wScrn=  0.000000 ICntrl=      3107 IOpCl=  0 I1Cent=           0 NGrid=           0
         NMat0=    1 NMatS0=      1 NMatT0=    0 NMatD0=    1 NMtDS0=    0 NMtDT0=    0
 Symmetry not used in FoFCou.
 End of G2Drv F.D. properties file   721 does not exist.
 End of G2Drv F.D. properties file   722 does not exist.
 End of G2Drv F.D. properties file   788 does not exist.
 Leave Link 1110 at Sun Oct 13 09:52:06 2024, MaxMem=  2684354560 cpu:              37.0 elap:               1.5
 (Enter /usr/local/g16_AVX//g16/l1002.exe)
 Minotr:  Closed shell wavefunction.
          IDoAtm=1111111
          Direct CPHF calculation.
          Differentiating once with respect to electric field.
                with respect to dipole field.
          Differentiating once with respect to nuclear coordinates.
          Requested convergence is 1.0D-08 RMS, and 1.0D-07 maximum.
          Secondary convergence is 1.0D-12 RMS, and 1.0D-12 maximum.
          NewPWx=T KeepS1=F KeepF1=F KeepIn=T MapXYZ=F SortEE=F KeepMc=T.
         2136 words used for storage of precomputed grid.
 Keep R1 ints in memory in canonical form, NReq=35668397.
 FoFCou: FMM=F IPFlag=           0 FMFlag=           0 FMFlg1=           0
         NFxFlg=           0 DoJE=F BraDBF=F KetDBF=F FulRan=T
         wScrn=  0.000000 ICntrl=       600 IOpCl=  0 I1Cent=           0 NGrid=           0
         NMat0=    1 NMatS0=   4851 NMatT0=    0 NMatD0=    1 NMtDS0=    0 NMtDT0=    0
 Symmetry not used in FoFCou.
 Two-electron integral symmetry not used.
          MDV=    2684354560 using IRadAn=       1.
          Solving linear equations simultaneously, MaxMat=       0.
          There are    24 degrees of freedom in the 1st order CPHF.  IDoFFX=6 NUNeed=     3.
     21 vectors produced by pass  0 Test12= 6.50D-15 4.17D-09 XBig12= 8.06D+01 4.30D+00.
 AX will form    21 AO Fock derivatives at one time.
     21 vectors produced by pass  1 Test12= 6.50D-15 4.17D-09 XBig12= 4.63D+01 2.12D+00.
     21 vectors produced by pass  2 Test12= 6.50D-15 4.17D-09 XBig12= 1.46D+00 3.20D-01.
     21 vectors produced by pass  3 Test12= 6.50D-15 4.17D-09 XBig12= 3.31D-02 5.48D-02.
     21 vectors produced by pass  4 Test12= 6.50D-15 4.17D-09 XBig12= 8.80D-05 2.38D-03.
     16 vectors produced by pass  5 Test12= 6.50D-15 4.17D-09 XBig12= 1.87D-07 9.33D-05.
      6 vectors produced by pass  6 Test12= 6.50D-15 4.17D-09 XBig12= 2.15D-10 3.27D-06.
      1 vectors produced by pass  7 Test12= 6.50D-15 4.17D-09 XBig12= 2.68D-13 1.41D-07.
      1 vectors produced by pass  8 Test12= 6.50D-15 4.17D-09 XBig12= 4.26D-16 5.05D-09.
 InvSVY:  IOpt=1 It=  1 EMax= 3.70D-15
 Solved reduced A of dimension   129 with    24 vectors.
 FullF1:  Do perturbations      1 to       3.
 Isotropic polarizability for W=    0.000000       56.03 Bohr**3.
 End of Minotr F.D. properties file   721 does not exist.
 End of Minotr F.D. properties file   722 does not exist.
 End of Minotr F.D. properties file   788 does not exist.
 Leave Link 1002 at Sun Oct 13 09:52:08 2024, MaxMem=  2684354560 cpu:              51.4 elap:               2.1
 (Enter /usr/local/g16_AVX//g16/l601.exe)
 Copying SCF densities to generalized density rwf, IOpCl= 0 IROHF=0.

 **********************************************************************

            Population analysis using the SCF Density.

 **********************************************************************

 Alpha  occ. eigenvalues -- -101.41156 -14.09441 -10.10125  -9.95977  -9.32779
 Alpha  occ. eigenvalues --   -7.09081  -7.08243  -7.08243  -0.71728  -0.64746
 Alpha  occ. eigenvalues --   -0.54008  -0.30816  -0.30809  -0.27815  -0.18244
 Alpha  occ. eigenvalues --   -0.17626  -0.17625  -0.09658  -0.09658  -0.06881
 Alpha virt. eigenvalues --    0.10861   0.12699   0.14454   0.14458   0.17320
 Alpha virt. eigenvalues --    0.20262   0.20268   0.20274   0.22039   0.22056
 Alpha virt. eigenvalues --    0.24056   0.24902   0.24911   0.27034   0.27606
 Alpha virt. eigenvalues --    0.27617   0.31355   0.33361   0.33374   0.36094
 Alpha virt. eigenvalues --    0.38574   0.38585   0.38783   0.46453   0.47968
 Alpha virt. eigenvalues --    0.64669   0.72881   0.74369   0.74371   0.77259
 Alpha virt. eigenvalues --    0.77270   0.87670   0.89684   0.89688   0.97539
 Alpha virt. eigenvalues --    0.99292   0.99297   1.04368   1.04375   1.08238
 Alpha virt. eigenvalues --    1.09426   1.09427   1.12443   1.18989   1.18996
 Alpha virt. eigenvalues --    1.22763   1.26691   1.37113   1.46624   1.60116
 Alpha virt. eigenvalues --    1.60123   1.74534   1.78232   1.78232   1.80449
 Alpha virt. eigenvalues --    1.80452   2.15642   2.20205   2.20208   2.21672
 Alpha virt. eigenvalues --    2.21683   2.29425   2.48783   2.48786   2.67623
 Alpha virt. eigenvalues --    2.82237   2.83513   2.83516   2.95327   2.95345
 Alpha virt. eigenvalues --    3.25788   3.38212   3.55526   3.55548   4.20940
 Alpha virt. eigenvalues --    4.41186   4.45585   4.57080
          Condensed to atoms (all electrons):
               1          2          3          4          5          6
     1  C    5.373594  -0.035911   0.412735   0.412710   0.412711  -0.138219
     2  Cl  -0.035911  17.321663  -0.048081  -0.048751  -0.048755   0.054079
     3  H    0.412735  -0.048081   0.506522  -0.023088  -0.023091  -0.040183
     4  H    0.412710  -0.048751  -0.023088   0.506917  -0.023129  -0.039137
     5  H    0.412711  -0.048755  -0.023091  -0.023129   0.506919  -0.039127
     6  C   -0.138219   0.054079  -0.040183  -0.039137  -0.039127   6.058431
     7  N   -0.001592  -0.001876   0.000714   0.000652   0.000652   0.658375
               7
     1  C   -0.001592
     2  Cl  -0.001876
     3  H    0.000714
     4  H    0.000652
     5  H    0.000652
     6  C    0.658375
     7  N    6.842576
 Mulliken charges:
               1
     1  C   -0.436027
     2  Cl  -0.192369
     3  H    0.214472
     4  H    0.213825
     5  H    0.213820
     6  C   -0.514219
     7  N   -0.499501
 Sum of Mulliken charges =  -1.00000
 Mulliken charges with hydrogens summed into heavy atoms:
               1
     1  C    0.206090
     2  Cl  -0.192369
     6  C   -0.514219
     7  N   -0.499501
 APT charges:
               1
     1  C    0.588784
     2  Cl  -0.627981
     3  H    0.017183
     4  H    0.016675
     5  H    0.016673
     6  C   -0.393267
     7  N   -0.618068
 Sum of APT charges =  -1.00000
 APT charges with hydrogens summed into heavy atoms:
               1
     1  C    0.639315
     2  Cl  -0.627981
     6  C   -0.393267
     7  N   -0.618068
 Electronic spatial extent (au):  <R**2>=            908.7656
 Charge=             -1.0000 electrons
 Dipole moment (field-independent basis, Debye):
    X=            -10.3315    Y=             -0.0001    Z=              0.0059  Tot=             10.3315
 Quadrupole moment (field-independent basis, Debye-Ang):
   XX=            -91.6273   YY=            -35.4530   ZZ=            -35.4527
   XY=             -0.0001   XZ=              0.0043   YZ=              0.0000
 Traceless Quadrupole moment (field-independent basis, Debye-Ang):
   XX=            -37.4497   YY=             18.7247   ZZ=             18.7250
   XY=             -0.0001   XZ=              0.0043   YZ=              0.0000
 Octapole moment (field-independent basis, Debye-Ang**2):
  XXX=           -195.7158  YYY=             -0.0064  ZZZ=             -0.8616  XYY=            -12.3448
  XXY=              0.0004  XXZ=             -0.0102  XZZ=            -12.3418  YZZ=              0.0059
  YYZ=              0.8836  XYZ=             -0.0000
 Hexadecapole moment (field-independent basis, Debye-Ang**3):
 XXXX=          -1996.8464 YYYY=            -56.1686 ZZZZ=            -56.1697 XXXY=              0.0005
 XXXZ=              0.0384 YYYX=             -0.0022 YYYZ=             -0.0000 ZZZX=              0.0761
 ZZZY=              0.0001 XXYY=           -235.0436 XXZZ=           -235.0423 YYZZ=            -18.7193
 XXYZ=              0.0000 YYXZ=              0.0667 ZZXY=             -0.0004
 N-N= 1.096928383383D+02 E-N=-1.629003860243D+03  KE= 5.903101506664D+02
  Exact polarizability:  88.065  -0.001  40.014   0.025  -0.000  40.010
 Approx polarizability: 108.612  -0.001  49.809   0.060  -0.000  49.806
 No NMR shielding tensors so no spin-rotation constants.
 Leave Link  601 at Sun Oct 13 09:52:08 2024, MaxMem=  2684354560 cpu:               6.1 elap:               0.3
 (Enter /usr/local/g16_AVX//g16/l701.exe)
 ... and contract with generalized density number  0.
 Compute integral second derivatives.
 Leave Link  701 at Sun Oct 13 09:52:09 2024, MaxMem=  2684354560 cpu:               4.9 elap:               0.2
 (Enter /usr/local/g16_AVX//g16/l702.exe)
 L702 exits ... SP integral derivatives will be done elsewhere.
 Leave Link  702 at Sun Oct 13 09:52:09 2024, MaxMem=  2684354560 cpu:               1.0 elap:               0.1
 (Enter /usr/local/g16_AVX//g16/l703.exe)
 Integral derivatives from FoFJK, PRISM(SPDF).
 Compute integral second derivatives, UseDBF=F ICtDFT=           0.
 Calling FoFJK, ICntrl=    100127 FMM=F ISym2X=0 I1Cent= 0 IOpClX= 0 NMat=1 NMatS=1 NMatT=0.
 FoFJK:  IHMeth= 1 ICntrl=  100127 DoSepK=F KAlg= 0 I1Cent=           0 FoldK=F
 IRaf=         0 NMat=       1 IRICut=       1 DoRegI=T DoRafI=F ISym2E= 0 IDoP0=0 IntGTp=1.
 FoFCou: FMM=F IPFlag=           0 FMFlag=      100000 FMFlg1=         800
         NFxFlg=           0 DoJE=F BraDBF=F KetDBF=F FulRan=T
         wScrn=  0.000000 ICntrl=    100127 IOpCl=  0 I1Cent=           0 NGrid=           0
         NMat0=    1 NMatS0=      1 NMatT0=    0 NMatD0=    1 NMtDS0=    0 NMtDT0=    0
 Symmetry not used in FoFCou.
 Leave Link  703 at Sun Oct 13 09:52:11 2024, MaxMem=  2684354560 cpu:              69.2 elap:               2.8
 (Enter /usr/local/g16_AVX//g16/l716.exe)
 Dipole        =-4.06472169D+00-3.33258815D-05 2.32411525D-03
 Polarizability= 8.80650860D+01-6.21130665D-04 4.00138435D+01
                 2.50584962D-02-5.10671356D-05 4.00101760D+01
 Full mass-weighted force constant matrix:
 Low frequencies ---  -72.4110  -72.3622  -36.4565  -36.3957   -0.0026    0.0020
 Low frequencies ---    0.0027   93.4524   93.5848
 ******    2 imaginary frequencies (negative Signs) ****** 
 Diagonal vibrational polarizability:
       87.6054357      37.8877478      38.0134383
 Harmonic frequencies (cm**-1), IR intensities (KM/Mole), Raman scattering
 activities (A**4/AMU), depolarization ratios for plane and unpolarized
 incident light, reduced masses (AMU), force constants (mDyne/A),
 and normal coordinates:
                      1                      2                      3
                      A                      A                      A
 Frequencies --    -71.8901               -71.8471                92.1927
 Red. masses --      8.5554                 8.5540                 3.8094
 Frc consts  --      0.0261                 0.0260                 0.0191
 IR Inten    --      0.0830                 0.0829                11.8405
  Atom  AN      X      Y      Z        X      Y      Z        X      Y      Z
     1   6    -0.00   0.01   0.26     0.00   0.26  -0.01    -0.00   0.01   0.38
     2  17    -0.00  -0.00  -0.12     0.00  -0.12   0.00    -0.00  -0.00  -0.10
     3   1     0.20   0.01   0.33    -0.01   0.32  -0.01     0.27   0.01   0.48
     4   1    -0.11   0.01   0.33    -0.17   0.33  -0.02    -0.15   0.03   0.46
     5   1    -0.10   0.01   0.33     0.18   0.33  -0.01    -0.13   0.00   0.46
     6   6    -0.00   0.02   0.55     0.00   0.55  -0.02     0.00  -0.01  -0.28
     7   7     0.00  -0.02  -0.48    -0.00  -0.48   0.02     0.00   0.00   0.04
                      4                      5                      6
                      A                      A                      A
 Frequencies --     92.3481               141.2880               618.7208
 Red. masses --      3.8115                11.9056                 9.1604
 Frc consts  --      0.0192                 0.1400                 2.0661
 IR Inten    --     11.8369                52.5032               233.2907
  Atom  AN      X      Y      Z        X      Y      Z        X      Y      Z
     1   6     0.00   0.38  -0.01    -0.31   0.00  -0.00     0.70  -0.00   0.00
     2  17     0.00  -0.10   0.00    -0.28  -0.00   0.00    -0.28   0.00  -0.00
     3   1    -0.01   0.46  -0.02    -0.28   0.00   0.00     0.36   0.00  -0.10
     4   1    -0.23   0.47   0.00    -0.27  -0.00  -0.01     0.36   0.08   0.05
     5   1     0.24   0.47  -0.03    -0.27   0.00  -0.01     0.36  -0.08   0.05
     6   6    -0.00  -0.28   0.01     0.55   0.00   0.00     0.01   0.00  -0.00
     7   7    -0.00   0.04  -0.00     0.55  -0.00   0.00     0.01  -0.00   0.00
                      7                      8                      9
                      A                      A                      A
 Frequencies --   1010.7366              1011.2849              1318.3347
 Red. masses --      1.1501                 1.1499                 1.0962
 Frc consts  --      0.6923                 0.6929                 1.1225
 IR Inten    --      0.2523                 0.2517                18.0867
  Atom  AN      X      Y      Z        X      Y      Z        X      Y      Z
     1   6     0.00  -0.00  -0.11    -0.00  -0.11   0.00    -0.08  -0.00   0.00
     2  17    -0.00   0.00   0.02     0.00   0.02  -0.00    -0.02   0.00  -0.00
     3   1     0.77   0.00   0.13    -0.01   0.23  -0.00     0.55  -0.00   0.18
     4   1    -0.39  -0.04   0.20    -0.66   0.16  -0.05     0.55  -0.15  -0.09
     5   1    -0.37   0.04   0.21     0.67   0.16   0.04     0.55   0.15  -0.09
     6   6    -0.00   0.00   0.00     0.00   0.00  -0.00    -0.00  -0.00   0.00
     7   7    -0.00  -0.00  -0.00     0.00  -0.00   0.00    -0.00  -0.00  -0.00
                     10                     11                     12
                      A                      A                      A
 Frequencies --   1460.7987              1460.8954              2150.4442
 Red. masses --      1.0611                 1.0611                12.8329
 Frc consts  --      1.3341                 1.3343                34.9648
 IR Inten    --      7.6320                 7.6251                17.0852
  Atom  AN      X      Y      Z        X      Y      Z        X      Y      Z
     1   6    -0.00   0.01  -0.07    -0.00  -0.07  -0.01    -0.00  -0.00   0.00
     2  17    -0.00   0.00  -0.00    -0.00  -0.00  -0.00     0.00  -0.00   0.00
     3   1    -0.28  -0.06  -0.13    -0.02   0.75  -0.01    -0.01   0.00  -0.01
     4   1     0.12  -0.39   0.56     0.25   0.06  -0.34    -0.01   0.00   0.00
     5   1     0.16   0.37   0.50    -0.23   0.12   0.43    -0.01  -0.00   0.00
     6   6    -0.00   0.00  -0.00    -0.00  -0.00  -0.00     0.76  -0.00   0.00
     7   7    -0.00  -0.00   0.00     0.00   0.00   0.00    -0.65   0.00  -0.00
                     13                     14                     15
                      A                      A                      A
 Frequencies --   3128.9579              3253.9438              3254.3047
 Red. masses --      1.0249                 1.1115                 1.1115
 Frc consts  --      5.9120                 6.9341                 6.9356
 IR Inten    --     12.7317                 0.2808                 0.2639
  Atom  AN      X      Y      Z        X      Y      Z        X      Y      Z
     1   6     0.04  -0.00   0.00    -0.00  -0.10   0.01     0.00  -0.01  -0.10
     2  17    -0.00   0.00  -0.00     0.00   0.00  -0.00    -0.00   0.00   0.00
     3   1    -0.16  -0.00   0.55     0.03  -0.02  -0.10    -0.24  -0.00   0.77
     4   1    -0.16  -0.48  -0.28     0.19   0.53   0.32     0.14   0.41   0.22
     5   1    -0.16   0.48  -0.28    -0.22   0.62  -0.36     0.09  -0.27   0.13
     6   6     0.00   0.00  -0.00    -0.00   0.00  -0.00     0.00   0.00   0.00
     7   7     0.00  -0.00   0.00    -0.00  -0.00   0.00     0.00  -0.00  -0.00

 -------------------
 - Thermochemistry -
 -------------------
 Temperature   298.150 Kelvin.  Pressure   1.00000 Atm.
 Atom     1 has atomic number  6 and mass  12.00000
 Atom     2 has atomic number 17 and mass  34.96885
 Atom     3 has atomic number  1 and mass   1.00783
 Atom     4 has atomic number  1 and mass   1.00783
 Atom     5 has atomic number  1 and mass   1.00783
 Atom     6 has atomic number  6 and mass  12.00000
 Atom     7 has atomic number  7 and mass  14.00307
 Molecular mass:    75.99540 amu.
 Principal axes and moments of inertia in atomic units:
                           1         2         3
     Eigenvalues --    11.515911575.767781575.76943
           X            1.00000  -0.00000   0.00012
           Y            0.00000   0.99999   0.00465
           Z           -0.00012  -0.00465   0.99999
 This molecule is an asymmetric top.
 Rotational symmetry number  1.
 Rotational temperatures (Kelvin)      7.52124     0.05497     0.05497
 Rotational constants (GHZ):         156.71716     1.14531     1.14531
    2 imaginary frequencies ignored.
 Zero-point vibrational energy     113610.8 (Joules/Mol)
                                   27.15364 (Kcal/Mol)
 Warning -- explicit consideration of   4 degrees of freedom as
           vibrations may cause significant error
 Vibrational temperatures:    132.64   132.87   203.28   890.20  1454.22
          (Kelvin)           1455.01  1896.79  2101.76  2101.90  3094.01
                             4501.87  4681.70  4682.22
 
 Zero-point correction=                           0.043272 (Hartree/Particle)
 Thermal correction to Energy=                    0.048505
 Thermal correction to Enthalpy=                  0.049449
 Thermal correction to Gibbs Free Energy=         0.014089
 Sum of electronic and zero-point Energies=           -592.951322
 Sum of electronic and thermal Energies=              -592.946089
 Sum of electronic and thermal Enthalpies=            -592.945145
 Sum of electronic and thermal Free Energies=         -592.980505
 
                     E (Thermal)             CV                S
                      KCal/Mol        Cal/Mol-Kelvin    Cal/Mol-Kelvin
 Total                   30.437             13.824             74.422
 Electronic               0.000              0.000              0.000
 Translational            0.889              2.981             38.900
 Rotational               0.889              2.981             24.862
 Vibrational             28.660              7.862             10.660
 Vibration     1          0.602              1.955              3.613
 Vibration     2          0.602              1.955              3.610
 Vibration     3          0.615              1.912              2.786
 Vibration     4          0.979              0.992              0.419
                       Q            Log10(Q)             Ln(Q)
 Total Bot       0.330749D-06         -6.480501        -14.921906
 Total V=0       0.265008D+14         13.423259         30.908197
 Vib (Bot)       0.209834D-18        -18.678123        -43.007968
 Vib (Bot)    1  0.222930D+01          0.348169          0.801689
 Vib (Bot)    2  0.222549D+01          0.347426          0.799977
 Vib (Bot)    3  0.143865D+01          0.157956          0.363708
 Vib (Bot)    4  0.236678D+00         -0.625841         -1.441053
 Vib (V=0)       0.168127D+02          1.225637          2.822134
 Vib (V=0)    1  0.278469D+01          0.444776          1.024135
 Vib (V=0)    2  0.278097D+01          0.444196          1.022798
 Vib (V=0)    3  0.202306D+01          0.306010          0.704613
 Vib (V=0)    4  0.105319D+01          0.022506          0.051821
 Electronic      0.100000D+01          0.000000          0.000000
 Translational   0.260396D+08          7.415635         17.075130
 Rotational      0.605323D+05          4.781987         11.010933
 
                                                       RxCoord=3.69758 DE=45.85
                                                             IR Spectrum
 
      3   3                                      2                         1     1           1                                       
      2   1                                      1                         4     3           0              6                  1     
      5   2                                      5                         6     1           1              1                  4 9   
      4   9                                      0                         1     8           1              9                  1 2   
 
      X   X                                      X                         X     X           X              X                  X X   
                                                                                 X                          X                  X X   
                                                                                                            X                  X     
                                                                                                            X                  X     
                                                                                                            X                  X     
                                                                                                            X                        
                                                                                                            X                        
                                                                                                            X                        
                                                                                                            X                        
                                                                                                            X                        
                                                                                                            X                        
                                                                                                            X                        
                                                                                                            X                        
                                                                                                            X                        
                                                                                                            X                        
                                                                                                            X                        
                                                                                                            X                        
                                                                                                            X                        
                                                                                                            X                        
                                                                                                            X                        
 
 -------------------------------------------------------------------
 Center     Atomic                   Forces (Hartrees/Bohr)
 Number     Number              X              Y              Z
 -------------------------------------------------------------------
      1        6           0.005259333   -0.000007723   -0.000001506
      2       17          -0.012426198   -0.000001002   -0.000006852
      3        1           0.001136731   -0.000001400    0.000947753
      4        1           0.001171026   -0.000825962   -0.000474916
      5        1           0.001165934    0.000836196   -0.000474888
      6        6           0.000484040   -0.000000027    0.000007264
      7        7           0.003209134   -0.000000083    0.000003145
 -------------------------------------------------------------------
 Cartesian Forces:  Max     0.012426198 RMS     0.003081107
 Z-matrix is all fixed cartesians, so copy forces.
 Force constants in Cartesian coordinates: 
                1             2             3             4             5 
      1  0.256480D+00
      2  0.687429D-05  0.600097D+00
      3 -0.366420D-03  0.175446D-04  0.600135D+00
      4 -0.943171D-01  0.000000D+00 -0.687282D-04  0.180379D+00
      5  0.000000D+00 -0.334632D-01  0.000000D+00  0.000000D+00  0.181805D-01
      6 -0.640642D-04  0.000000D+00 -0.334779D-01  0.156577D-03  0.000000D+00
      7 -0.558385D-01 -0.194512D-03  0.848752D-01 -0.247771D-01 -0.452749D-04
      8 -0.191769D-03 -0.495874D-01  0.633651D-03  0.137798D-04  0.619876D-03
      9  0.836831D-01  0.633123D-03 -0.326057D+00 -0.602162D-02 -0.178710D-04
     10 -0.556095D-01 -0.729649D-01 -0.423753D-01 -0.247759D-01 -0.171514D-01
     11 -0.719493D-01 -0.256477D+00 -0.120130D+00  0.515502D-02  0.644933D-02
     12 -0.417722D-01 -0.120127D+00 -0.119333D+00  0.296696D-02  0.336176D-02
     13 -0.556136D-01  0.731524D-01 -0.420361D-01 -0.247738D-01  0.171966D-01
     14  0.721334D-01 -0.257553D+00  0.119479D+00 -0.516812D-02  0.648018D-02
     15 -0.414373D-01  0.119476D+00 -0.118227D+00  0.294299D-02 -0.334389D-02
     16 -0.914826D-03  0.000000D+00 -0.191549D-04 -0.556544D-02  0.000000D+00
     17  0.000000D+00 -0.387641D-02  0.000000D+00  0.000000D+00  0.207744D-02
     18 -0.702387D-04  0.000000D+00 -0.390871D-02  0.480430D-04  0.000000D+00
     19  0.581387D-02  0.000000D+00 -0.949351D-05 -0.616963D-02  0.000000D+00
     20  0.000000D+00  0.859367D-03  0.000000D+00  0.000000D+00 -0.344056D-03
     21  0.271652D-04  0.000000D+00  0.868556D-03 -0.242180D-04  0.000000D+00
                6             7             8             9            10 
      6  0.181754D-01
      7  0.197758D-01  0.742891D-01
      8 -0.178023D-04  0.200205D-03  0.460683D-01
      9  0.844051D-02 -0.874715D-01 -0.669688D-03  0.338138D+00
     10 -0.997885D-02  0.424589D-02  0.731729D-02  0.433787D-02  0.740321D-01
     11  0.338487D-02 -0.625634D-04  0.209460D-02  0.241395D-02  0.752251D-01
     12  0.257723D-02 -0.846832D-02 -0.250892D-01 -0.111367D-01  0.436943D-01
     13 -0.989969D-02  0.424588D-02 -0.733682D-02  0.430415D-02  0.423661D-02
     14 -0.336710D-02  0.101596D-03  0.198961D-02 -0.235305D-02  0.736153D-02
     15  0.254614D-02 -0.846809D-02  0.251495D-01 -0.110327D-01  0.419566D-02
     16  0.765231D-05 -0.237043D-02 -0.117014D-05  0.480746D-03 -0.232875D-02
     17  0.000000D+00  0.000000D+00 -0.149078D-02 -0.815936D-05  0.145687D-03
     18  0.208384D-02 -0.165004D-03 -0.820955D-05  0.210721D-02  0.871896D-04
     19  0.252588D-05  0.205086D-03 -0.151560D-05  0.687323D-03  0.199524D-03
     20  0.000000D+00  0.000000D+00  0.305725D-03  0.169154D-05  0.666834D-04
     21 -0.345233D-03 -0.781237D-04  0.172793D-05 -0.459785D-03  0.391717D-04
               11            12            13            14            15 
     11  0.264634D+00
     12  0.126923D+00  0.119733D+00
     13 -0.738031D-02  0.416173D-02  0.740338D-01
     14 -0.176366D-01  0.137015D-01 -0.754189D-01  0.265772D+00
     15 -0.138213D-01  0.861983D-02  0.433445D-01 -0.126237D+00  0.118566D+00
     16 -0.405772D-03 -0.238438D-03 -0.232837D-02  0.406721D-03 -0.236554D-03
     17  0.120405D-02  0.156322D-02 -0.146119D-03  0.121862D-02 -0.155505D-02
     18  0.156401D-02 -0.566590D-03  0.865328D-04 -0.155578D-02 -0.580813D-03
     19 -0.582249D-03 -0.344016D-03  0.199490D-03  0.583742D-03 -0.341223D-03
     20 -0.268394D-03 -0.333060D-03 -0.668730D-04 -0.271578D-03  0.331345D-03
     21 -0.334327D-03  0.106362D-03  0.388501D-04  0.332574D-03  0.109396D-03
               16            17            18            19            20 
     16  0.114049D+01
     17 -0.542469D-04  0.306672D-04
     18  0.255125D-02  0.000000D+00  0.317364D-04
     19 -0.112698D+01  0.542535D-04 -0.253778D-02  0.112673D+01
     20  0.543547D-04  0.836414D-03  0.000000D+00 -0.543437D-04 -0.111748D-02
     21 -0.254551D-02  0.000000D+00  0.833330D-03  0.254266D-02  0.000000D+00
               21 
     21 -0.111263D-02
 Leave Link  716 at Sun Oct 13 09:52:12 2024, MaxMem=  2684354560 cpu:               3.1 elap:               0.2
 (Enter /usr/local/g16_AVX//g16/l103.exe)

 GradGradGradGradGradGradGradGradGradGradGradGradGradGradGradGradGradGrad
 Berny optimization.
 Search for a local minimum.
 Step number   1 out of a maximum of    2
 All quantities printed in internal units (Hartrees-Bohrs-Radians)
 Second derivative matrix not updated -- analytic derivatives used.
 ITU=  0
     Eigenvalues ---   -0.00217  -0.00217   0.00160   0.00161   0.00869
     Eigenvalues ---    0.06225   0.06228   0.10939   0.10941   0.11526
     Eigenvalues ---    0.21657   0.49521   0.88749   0.88762   2.25961
 Eigenvalue     1 is  -2.17D-03 should be greater than     0.000000 Eigenvector:
                          Z6        Z7        Z2        Z5        Z4
   1                    0.64527  -0.61088  -0.20657   0.18929   0.18912
                          Z3        X3        Z1        X4        X5
   1                    0.18557   0.17069   0.13202  -0.08913  -0.08330
 Eigenvalue     2 is  -2.17D-03 should be greater than     0.000000 Eigenvector:
                          Y6        Y7        Y2        Y3        Y4
   1                    0.64499  -0.61082  -0.20668   0.19012   0.18732
                          Y5        X5        X4        Y1        Z6
   1                    0.18722   0.15019  -0.14681   0.13214  -0.01115
 Angle between quadratic step and forces=  68.43 degrees.
 Linear search not attempted -- first point.
 B after Tr=     0.006076   -0.000022    0.001270
         Rot=    1.000000    0.000000   -0.000055   -0.000001 Ang=  -0.01 deg.
 Variable       Old X    -DE/DX   Delta X   Delta X   Delta X     New X
                                 (Linear)    (Quad)   (Total)
    X1       -0.71721   0.00526   0.00000  -0.07070  -0.06462  -0.78184
    Y1       -0.00003  -0.00001   0.00000   0.00004   0.00002  -0.00001
    Z1        0.00295  -0.00000   0.00000  -0.00297  -0.00161   0.00134
    X2       -4.17462  -0.01243   0.00000  -0.12044  -0.11436  -4.28898
    Y2       -0.00001  -0.00000   0.00000  -0.00004  -0.00007  -0.00008
    Z2       -0.00015  -0.00001   0.00000   0.00208   0.00382   0.00367
    X3       -0.08721   0.00114   0.00000  -0.06595  -0.06009  -0.14730
    Y3        0.00444  -0.00000   0.00000   0.00006   0.00003   0.00447
    Z3       -1.94786   0.00095   0.00000  -0.00119   0.00009  -1.94777
    X4       -0.09063   0.00117   0.00000  -0.06101  -0.05483  -0.14546
    Y4        1.68799  -0.00083   0.00000  -0.00267  -0.00269   1.68531
    Z4        0.98315  -0.00047   0.00000  -0.00526  -0.00397   0.97918
    X5       -0.09059   0.00117   0.00000  -0.06100  -0.05481  -0.14540
    Y5       -1.69255   0.00084   0.00000   0.00281   0.00278  -1.68977
    Z5        0.97539  -0.00047   0.00000  -0.00525  -0.00396   0.97143
    X6        4.75424   0.00048   0.00000   0.16697   0.17304   4.92729
    Y6        0.00008  -0.00000   0.00000  -0.00010  -0.00011  -0.00002
    Z6       -0.00428   0.00001   0.00000   0.00658   0.00731   0.00303
    X7        6.98474   0.00321   0.00000   0.16961   0.17568   7.16042
    Y7       -0.00002  -0.00000   0.00000   0.00003   0.00003   0.00000
    Z7        0.00076   0.00000   0.00000  -0.00217  -0.00169  -0.00093
         Item               Value     Threshold  Converged?
 Maximum Force            0.012426     0.000450     NO 
 RMS     Force            0.003081     0.000300     NO 
 Maximum Displacement     0.175683     0.001800     NO 
 RMS     Displacement     0.064663     0.001200     NO 
 Predicted change in Energy=-7.703993D-04
 GradGradGradGradGradGradGradGradGradGradGradGradGradGradGradGradGradGrad

 Leave Link  103 at Sun Oct 13 09:52:12 2024, MaxMem=  2684354560 cpu:               5.0 elap:               0.3
 (Enter /usr/local/g16_AVX//g16/l9999.exe)

 ----------------------------------------------------------------------

 Electric dipole moment (input orientation):
 (Debye = 10**-18 statcoulomb cm , SI units = C m)
                  (au)            (Debye)         (10**-30 SI)
   Tot        0.406472D+01      0.103315D+02      0.344622D+02
   x         -0.406472D+01     -0.103315D+02     -0.344621D+02
   y         -0.333259D-04     -0.847059D-04     -0.282549D-03
   z          0.232412D-02      0.590731D-02      0.197047D-01

 Dipole polarizability, Alpha (input orientation).
 (esu units = cm**3 , SI units = C**2 m**2 J**-1)
 Alpha(0;0):
               (au)            (10**-24 esu)      (10**-40 SI)
   iso        0.560297D+02      0.830275D+01      0.923805D+01
   aniso      0.480531D+02      0.712073D+01      0.792289D+01
   xx         0.880651D+02      0.130499D+02      0.145200D+02
   yx        -0.621131D-03     -0.920421D-04     -0.102411D-03
   yy         0.400138D+02      0.592944D+01      0.659739D+01
   zx         0.250585D-01      0.371329D-02      0.413159D-02
   zy        -0.510671D-04     -0.756737D-05     -0.841983D-05
   zz         0.400102D+02      0.592890D+01      0.659679D+01

 ----------------------------------------------------------------------

 Dipole orientation:
     6          0.00253600         -0.00002244          0.71721310
    17         -0.00254002          0.00002854          4.17461967
     1         -1.94790935          0.00442371          0.08609329
     1          0.98307932          1.68800288          0.09117388
     1          0.97535350         -1.69254147          0.09115748
     6         -0.00156375          0.00004416         -4.75424647
     7          0.00475149         -0.00008179         -6.98473421

 Electric dipole moment (dipole orientation):
 (Debye = 10**-18 statcoulomb cm , SI units = C m)
                  (au)            (Debye)         (10**-30 SI)
   Tot        0.406472D+01      0.103315D+02      0.344622D+02
   x          0.000000D+00      0.000000D+00      0.000000D+00
   y          0.000000D+00      0.000000D+00      0.000000D+00
   z          0.406472D+01      0.103315D+02      0.344622D+02

 Dipole polarizability, Alpha (dipole orientation).
 (esu units = cm**3 , SI units = C**2 m**2 J**-1)
 Alpha(0;0):
               (au)            (10**-24 esu)      (10**-40 SI)
   iso        0.560297D+02      0.830275D+01      0.923805D+01
   aniso      0.480531D+02      0.712073D+01      0.792289D+01
   xx         0.400102D+02      0.592890D+01      0.659679D+01
   yx        -0.518827D-04     -0.768822D-05     -0.855430D-05
   yy         0.400138D+02      0.592944D+01      0.659739D+01
   zx        -0.525352D-01     -0.778491D-02     -0.866188D-02
   zy         0.101463D-02      0.150353D-03      0.167290D-03
   zz         0.880650D+02      0.130499D+02      0.145200D+02

 ----------------------------------------------------------------------
 1\1\GINC-NODO8\Freq\RB3LYP\6-31++G(d,p)\C2H3Cl1N1(1-)\ALANQF\13-Oct-20
 24\0\\#p b3lyp 6-31++g(d,p) scf=verytight NoSymm freq=noraman int=ultr
 afine\\RxCoord=3.69758 DE=45.85\\-1,1\C,-0.379532,-0.000015,0.001559\C
 l,-2.209114,-0.000003,-0.000081\H,-0.046148,0.002349,-1.030763\H,-0.04
 7957,0.893248,0.520258\H,-0.047936,-0.895659,0.516155\C,2.515838,0.000
 044,-0.002266\N,3.696163,-0.000013,0.000401\\Version=ES64L-G16RevB.01\
 HF=-592.9945942\RMSD=1.905e-09\RMSF=3.081e-03\ZeroPoint=0.0432721\Ther
 mal=0.0485051\Dipole=-4.016558,-0.0000348,0.0024616\DipoleDeriv=1.6414
 803,-0.000004,0.0003827,-0.0000051,0.0627705,-0.000006,0.0011215,-0.00
 00061,0.0621004,-1.3198979,-0.0000018,-0.000097,0.0000061,-0.2820243,-
 0.0000004,-0.0005566,-0.0000003,-0.28202,-0.0249753,-0.0000037,0.00211
 16,-0.0000511,0.082868,0.0002062,0.0229844,0.0002057,-0.0063438,-0.025
 9173,-0.0020314,-0.0013613,-0.020294,0.0156876,-0.0389998,-0.0121278,-
 0.0389796,0.0602536,-0.0259115,0.0020464,-0.0013559,0.0203566,0.015323
 5,0.0388002,-0.0120368,0.0387806,0.0606083,-0.2340809,-0.0000192,0.000
 85,-0.000048,-0.4728929,-0.0000003,0.0022822,-0.0000003,-0.4728258,-1.
 0106974,0.0000138,-0.0005299,0.0000355,-0.4217325,0.,-0.0016669,0.,-0.
 4217727\Polar=88.065086,-0.0006211,40.0138435,0.0250585,-0.0000511,40.
 010176\Quadrupole=-27.8429072,13.9213403,13.9215669,-0.0000724,0.00319
 79,0.0000117\PG=C01 [X(C2H3Cl1N1)]\NImag=2\\0.25647967,0.00000687,0.60
 009695,-0.00036642,0.00001754,0.60013534,-0.09431708,-0.00000023,-0.00
 006873,0.18037885,0.00000032,-0.03346323,-0.00000012,-0.00000008,0.018
 18045,-0.00006406,-0.00000009,-0.03347792,0.00015658,0.00000012,0.0181
 7544,-0.05583852,-0.00019451,0.08487522,-0.02477705,-0.00004527,0.0197
 7585,0.07428914,-0.00019177,-0.04958736,0.00063365,0.00001378,0.000619
 88,-0.00001780,0.00020020,0.04606834,0.08368306,0.00063312,-0.32605683
 ,-0.00602162,-0.00001787,0.00844051,-0.08747153,-0.00066969,0.33813831
 ,-0.05560948,-0.07296489,-0.04237532,-0.02477587,-0.01715143,-0.009978
 85,0.00424589,0.00731729,0.00433787,0.07403208,-0.07194927,-0.25647671
 ,-0.12012987,0.00515502,0.00644933,0.00338487,-0.00006256,0.00209460,0
 .00241395,0.07522514,0.26463376,-0.04177220,-0.12012694,-0.11933307,0.
 00296696,0.00336176,0.00257723,-0.00846832,-0.02508918,-0.01113667,0.0
 4369428,0.12692271,0.11973291,-0.05561364,0.07315243,-0.04203610,-0.02
 477377,0.01719658,-0.00989969,0.00424588,-0.00733682,0.00430415,0.0042
 3661,-0.00738031,0.00416173,0.07403380,0.07213343,-0.25755262,0.119478
 83,-0.00516812,0.00648018,-0.00336710,0.00010160,0.00198961,-0.0023530
 5,0.00736153,-0.01763664,0.01370149,-0.07541889,0.26577243,-0.04143731
 ,0.11947639,-0.11822737,0.00294299,-0.00334389,0.00254614,-0.00846809,
 0.02514950,-0.01103274,0.00419566,-0.01382135,0.00861983,0.04334452,-0
 .12623696,0.11856556,-0.00091483,0.00000018,-0.00001915,-0.00556544,-0
 .00000007,0.00000765,-0.00237043,-0.00000117,0.00048075,-0.00232875,-0
 .00040577,-0.00023844,-0.00232837,0.00040672,-0.00023655,1.14048738,0.
 00000089,-0.00387641,-0.00000005,-0.00000086,0.00207744,0.,0.00000039,
 -0.00149078,-0.00000816,0.00014569,0.00120405,0.00156322,-0.00014612,0
 .00121862,-0.00155505,-0.00005425,0.00003067,-0.00007024,-0.00000005,-
 0.00390871,0.00004804,0.,0.00208384,-0.00016500,-0.00000821,0.00210721
 ,0.00008719,0.00156401,-0.00056659,0.00008653,-0.00155578,-0.00058081,
 0.00255125,-0.00000010,0.00003174,0.00581387,0.00000016,-0.00000949,-0
 .00616963,-0.00000004,0.00000253,0.00020509,-0.00000152,0.00068732,0.0
 0019952,-0.00058225,-0.00034402,0.00019949,0.00058374,-0.00034122,-1.1
 2697956,0.00005425,-0.00253778,1.12673122,-0.00000047,0.00085937,0.000
 00002,0.00000049,-0.00034406,0.,0.00000016,0.00030573,0.00000169,0.000
 06668,-0.00026839,-0.00033306,-0.00006687,-0.00027158,0.00033135,0.000
 05435,0.00083641,0.00000013,-0.00005434,-0.00111748,0.00002717,0.00000
 002,0.00086856,-0.00002422,0.,-0.00034523,-0.00007812,0.00000173,-0.00
 045979,0.00003917,-0.00033433,0.00010636,0.00003885,0.00033257,0.00010
 940,-0.00254551,0.00000013,0.00083333,0.00254266,-0.00000013,-0.001112
 63\\-0.00525933,0.00000772,0.00000151,0.01242620,0.00000100,0.00000685
 ,-0.00113673,0.00000140,-0.00094775,-0.00117103,0.00082596,0.00047492,
 -0.00116593,-0.00083620,0.00047489,-0.00048404,0.00000003,-0.00000726,
 -0.00320913,0.00000008,-0.00000314\\\@


 BE NOT THE FIRST BY WHOM THE NEW ARE TRIED,
 NOR YET THE THE LAST TO LAY THE OLD ASIDE.

                          -- ALEXANDER POPE
 Job cpu time:       0 days  0 hours  3 minutes 58.2 seconds.
 Elapsed time:       0 days  0 hours  0 minutes 10.5 seconds.
 File lengths (MBytes):  RWF=     88 Int=      0 D2E=      0 Chk=      2 Scr=      2
 Normal termination of Gaussian 16 at Sun Oct 13 09:52:12 2024.
