RxCoord=3.69758 DE=45.85                                                
Freq      RB3LYP                                                      6-31++G(d,p)        
Number of atoms                            I                7
Info1-9                                    I   N=           9
          16          16           0           0           0         100
           6          18        -502
Full Title                                 C   N=           2
RxCoord=3.69758 DE=45.85
Route                                      C   N=           6
#p b3lyp 6-31++g(d,p) scf=verytight NoSymm freq=noraman int=
ultrafine   
Charge                                     I               -1
Multiplicity                               I                1
Number of electrons                        I               40
Number of alpha electrons                  I               20
Number of beta electrons                   I               20
Number of basis functions                  I               98
Number of independent functions            I               98
Number of point charges in /Mol/           I                0
Number of translation vectors              I                0
Atomic numbers                             I   N=           7
           6          17           1           1           1           6
           7
Nuclear charges                            R   N=           7
  6.00000000E+00  1.70000000E+01  1.00000000E+00  1.00000000E+00  1.00000000E+00
  6.00000000E+00  7.00000000E+00
Current cartesian coordinates              R   N=          21
 -7.17211536E-01 -2.83458919E-05  2.94608303E-03 -4.17462044E+00 -5.66917837E-06
 -1.53067816E-04 -8.72070812E-02  4.43896667E-03 -1.94785977E+00 -9.06255958E-02
  1.68799408E+00  9.83145134E-01 -9.05859115E-02 -1.69255021E+00  9.75391588E-01
  4.75424479E+00  8.31479495E-05 -4.28211940E-03  6.98473578E+00 -2.45664396E-05
  7.57780176E-04
Number of symbols in /Mol/                 I                0
Force Field                                I                0
Atom Types                                 C   N=           7
                                                            
                        
Int Atom Types                             I   N=           7
           0           0           0           0           0           0
           0
MM charges                                 R   N=           7
  0.00000000E+00  0.00000000E+00  0.00000000E+00  0.00000000E+00  0.00000000E+00
  0.00000000E+00  0.00000000E+00
Integer atomic weights                     I   N=           7
          12          35           1           1           1          12
          14
Real atomic weights                        R   N=           7
  1.20000000E+01  3.49688527E+01  1.00782504E+00  1.00782504E+00  1.00782504E+00
  1.20000000E+01  1.40030740E+01
Atom fragment info                         I   N=           7
           0           0           0           0           0           0
           0
Atom residue num                           I   N=           7
           0           0           0           0           0           0
           0
Nuclear spins                              I   N=           7
           0           3           1           1           1           0
           2
Nuclear ZEff                               R   N=           7
 -3.60000000E+00 -1.42400000E+01 -1.00000000E+00 -1.00000000E+00 -1.00000000E+00
 -3.60000000E+00 -4.55000000E+00
Nuclear ZNuc                               R   N=           7
  6.00000000E+00  1.70000000E+01  1.00000000E+00  1.00000000E+00  1.00000000E+00
  6.00000000E+00  7.00000000E+00
Nuclear QMom                               R   N=           7
  0.00000000E+00 -8.16500000E+00  0.00000000E+00  0.00000000E+00  0.00000000E+00
  0.00000000E+00  2.04400000E+00
Nuclear GFac                               R   N=           7
  0.00000000E+00  8.21874000E-01  2.79284600E+00  2.79284600E+00  2.79284600E+00
  0.00000000E+00  4.03761000E-01
MicOpt                                     I   N=           7
          -1          -1          -1          -1          -1          -1
          -1
Number of residues                         I                0
Number of secondary structures             I                0
Number of contracted shells                I               33
Number of primitive shells                 I               72
Pure/Cartesian d shells                    I                1
Pure/Cartesian f shells                    I                0
Highest angular momentum                   I                2
Largest degree of contraction              I                6
Shell types                                I   N=          33
           0          -1          -1          -1           2           0
          -1          -1          -1          -1           2           0
           0           0           1           0           0           0
           1           0           0           0           1           0
          -1          -1          -1           2           0          -1
          -1          -1           2
Number of primitives per shell             I   N=          33
           6           3           1           1           1           6
           6           3           1           1           1           3
           1           1           1           3           1           1
           1           3           1           1           1           6
           3           1           1           1           6           3
           1           1           1
Shell to atom map                          I   N=          33
           1           1           1           1           1           2
           2           2           2           2           2           3
           3           3           3           4           4           4
           4           5           5           5           5           6
           6           6           6           6           7           7
           7           7           7
Primitive exponents                        R   N=          72
  3.04752488E+03  4.57369518E+02  1.03948685E+02  2.92101553E+01  9.28666296E+00
  3.16392696E+00  7.86827235E+00  1.88128854E+00  5.44249258E-01  1.68714478E-01
  4.38000000E-02  8.00000000E-01  2.51801000E+04  3.78035000E+03  8.60474000E+02
  2.42145000E+02  7.73349000E+01  2.62470000E+01  4.91765000E+02  1.16984000E+02
  3.74153000E+01  1.37834000E+01  5.45215000E+00  2.22588000E+00  3.18649000E+00
  1.14427000E+00  4.20377000E-01  1.42657000E-01  4.83000000E-02  7.50000000E-01
  1.87311370E+01  2.82539436E+00  6.40121692E-01  1.61277759E-01  3.60000000E-02
  1.10000000E+00  1.87311370E+01  2.82539436E+00  6.40121692E-01  1.61277759E-01
  3.60000000E-02  1.10000000E+00  1.87311370E+01  2.82539436E+00  6.40121692E-01
  1.61277759E-01  3.60000000E-02  1.10000000E+00  3.04752488E+03  4.57369518E+02
  1.03948685E+02  2.92101553E+01  9.28666296E+00  3.16392696E+00  7.86827235E+00
  1.88128854E+00  5.44249258E-01  1.68714478E-01  4.38000000E-02  8.00000000E-01
  4.17351146E+03  6.27457911E+02  1.42902093E+02  4.02343293E+01  1.28202129E+01
  4.39043701E+00  1.16263619E+01  2.71627981E+00  7.72218397E-01  2.12031498E-01
  6.39000000E-02  8.00000000E-01
Contraction coefficients                   R   N=          72
  1.83473713E-03  1.40373228E-02  6.88426223E-02  2.32184443E-01  4.67941348E-01
  3.62311985E-01 -1.19332420E-01 -1.60854152E-01  1.14345644E+00  1.00000000E+00
  1.00000000E+00  1.00000000E+00  1.83295985E-03  1.40341988E-02  6.90973943E-02
  2.37451980E-01  4.83033960E-01  3.39855972E-01 -2.29739142E-03 -3.07137189E-02
 -1.12528069E-01  4.50163278E-02  5.89353363E-01  4.65206287E-01 -2.51828028E-01
  6.15892514E-02  1.06018433E+00  1.00000000E+00  1.00000000E+00  1.00000000E+00
  3.34946043E-02  2.34726953E-01  8.13757326E-01  1.00000000E+00  1.00000000E+00
  1.00000000E+00  3.34946043E-02  2.34726953E-01  8.13757326E-01  1.00000000E+00
  1.00000000E+00  1.00000000E+00  3.34946043E-02  2.34726953E-01  8.13757326E-01
  1.00000000E+00  1.00000000E+00  1.00000000E+00  1.83473713E-03  1.40373228E-02
  6.88426223E-02  2.32184443E-01  4.67941348E-01  3.62311985E-01 -1.19332420E-01
 -1.60854152E-01  1.14345644E+00  1.00000000E+00  1.00000000E+00  1.00000000E+00
  1.83477216E-03  1.39946270E-02  6.85865518E-02  2.32240873E-01  4.69069948E-01
  3.60455199E-01 -1.14961182E-01 -1.69117479E-01  1.14585195E+00  1.00000000E+00
  1.00000000E+00  1.00000000E+00
P(S=P) Contraction coefficients            R   N=          72
  0.00000000E+00  0.00000000E+00  0.00000000E+00  0.00000000E+00  0.00000000E+00
  0.00000000E+00  6.89990666E-02  3.16423961E-01  7.44308291E-01  1.00000000E+00
  1.00000000E+00  0.00000000E+00  0.00000000E+00  0.00000000E+00  0.00000000E+00
  0.00000000E+00  0.00000000E+00  0.00000000E+00  3.98940088E-03  3.03177067E-02
  1.29880029E-01  3.27951072E-01  4.53527100E-01  2.52154056E-01 -1.42993147E-02
  3.23572333E-01  7.43507765E-01  1.00000000E+00  1.00000000E+00  0.00000000E+00
  0.00000000E+00  0.00000000E+00  0.00000000E+00  0.00000000E+00  0.00000000E+00
  0.00000000E+00  0.00000000E+00  0.00000000E+00  0.00000000E+00  0.00000000E+00
  0.00000000E+00  0.00000000E+00  0.00000000E+00  0.00000000E+00  0.00000000E+00
  0.00000000E+00  0.00000000E+00  0.00000000E+00  0.00000000E+00  0.00000000E+00
  0.00000000E+00  0.00000000E+00  0.00000000E+00  0.00000000E+00  6.89990666E-02
  3.16423961E-01  7.44308291E-01  1.00000000E+00  1.00000000E+00  0.00000000E+00
  0.00000000E+00  0.00000000E+00  0.00000000E+00  0.00000000E+00  0.00000000E+00
  0.00000000E+00  6.75797439E-02  3.23907296E-01  7.40895140E-01  1.00000000E+00
  1.00000000E+00  0.00000000E+00
Coordinates of each shell                  R   N=          99
 -7.17211536E-01 -2.83458919E-05  2.94608303E-03 -7.17211536E-01 -2.83458919E-05
  2.94608303E-03 -7.17211536E-01 -2.83458919E-05  2.94608303E-03 -7.17211536E-01
 -2.83458919E-05  2.94608303E-03 -7.17211536E-01 -2.83458919E-05  2.94608303E-03
 -4.17462044E+00 -5.66917837E-06 -1.53067816E-04 -4.17462044E+00 -5.66917837E-06
 -1.53067816E-04 -4.17462044E+00 -5.66917837E-06 -1.53067816E-04 -4.17462044E+00
 -5.66917837E-06 -1.53067816E-04 -4.17462044E+00 -5.66917837E-06 -1.53067816E-04
 -4.17462044E+00 -5.66917837E-06 -1.53067816E-04 -8.72070812E-02  4.43896667E-03
 -1.94785977E+00 -8.72070812E-02  4.43896667E-03 -1.94785977E+00 -8.72070812E-02
  4.43896667E-03 -1.94785977E+00 -8.72070812E-02  4.43896667E-03 -1.94785977E+00
 -9.06255958E-02  1.68799408E+00  9.83145134E-01 -9.06255958E-02  1.68799408E+00
  9.83145134E-01 -9.06255958E-02  1.68799408E+00  9.83145134E-01 -9.06255958E-02
  1.68799408E+00  9.83145134E-01 -9.05859115E-02 -1.69255021E+00  9.75391588E-01
 -9.05859115E-02 -1.69255021E+00  9.75391588E-01 -9.05859115E-02 -1.69255021E+00
  9.75391588E-01 -9.05859115E-02 -1.69255021E+00  9.75391588E-01  4.75424479E+00
  8.31479495E-05 -4.28211940E-03  4.75424479E+00  8.31479495E-05 -4.28211940E-03
  4.75424479E+00  8.31479495E-05 -4.28211940E-03  4.75424479E+00  8.31479495E-05
 -4.28211940E-03  4.75424479E+00  8.31479495E-05 -4.28211940E-03  6.98473578E+00
 -2.45664396E-05  7.57780176E-04  6.98473578E+00 -2.45664396E-05  7.57780176E-04
  6.98473578E+00 -2.45664396E-05  7.57780176E-04  6.98473578E+00 -2.45664396E-05
  7.57780176E-04  6.98473578E+00 -2.45664396E-05  7.57780176E-04
Num ILSW                                   I              100
ILSW                                       I   N=         100
           0           1           0           0           2           0
           0           0           0           0         402          -1
           5           0           0           0           2           0
           0           0           0           0           1           0
           1           1           0           0           0           0
           0           0      100000           0          -1           0
           0           0           0           0           0           0
           0           0           0           1           0           0
           0 -2000000000           1           0           0           0
           0           0           4          52           0           0
           0           0           5           0           0           0
           0           0           0           7           0           1
           0           0           0           0           0           0
           0           0           0           0           0           0
           0           0           0           0           0           0
           0           0           0           0           0           0
           0           0           0           0
Num RLSW                                   I               52
RLSW                                       R   N=          52
  8.00000000E-01  7.20000000E-01  1.00000000E+00  8.10000000E-01  2.00000000E-01
  0.00000000E+00  0.00000000E+00  1.00000000E+00  0.00000000E+00  0.00000000E+00
  0.00000000E+00  0.00000000E+00  1.00000000E+00  0.00000000E+00  0.00000000E+00
  0.00000000E+00  0.00000000E+00  1.00000000E+00  0.00000000E+00  0.00000000E+00
  0.00000000E+00  0.00000000E+00  1.00000000E+00  0.00000000E+00  0.00000000E+00
  0.00000000E+00  0.00000000E+00  1.00000000E+00  0.00000000E+00  0.00000000E+00
  0.00000000E+00  0.00000000E+00  1.00000000E+00  0.00000000E+00  0.00000000E+00
  0.00000000E+00  0.00000000E+00  0.00000000E+00  1.00000000E+00  1.00000000E+00
  0.00000000E+00  1.00000000E+00  0.00000000E+00  0.00000000E+00  0.00000000E+00
  0.00000000E+00  0.00000000E+00  0.00000000E+00  0.00000000E+00  0.00000000E+00
  0.00000000E+00  0.00000000E+00
MxBond                                     I                4
NBond                                      I   N=           7
           4           1           1           1           1           1
           1
IBond                                      I   N=          28
           2           3           4           5           1           0
           0           0           1           0           0           0
           1           0           0           0           1           0
           0           0           7           0           0           0
           6           0           0           0
RBond                                      R   N=          28
  1.00000000E+00  1.00000000E+00  1.00000000E+00  1.00000000E+00  1.00000000E+00
  0.00000000E+00  0.00000000E+00  0.00000000E+00  1.00000000E+00  0.00000000E+00
  0.00000000E+00  0.00000000E+00  1.00000000E+00  0.00000000E+00  0.00000000E+00
  0.00000000E+00  1.00000000E+00  0.00000000E+00  0.00000000E+00  0.00000000E+00
  2.00000000E+00  0.00000000E+00  0.00000000E+00  0.00000000E+00  2.00000000E+00
  0.00000000E+00  0.00000000E+00  0.00000000E+00
Virial Ratio                               R      2.004547513797501E+00
SCF Energy                                 R     -5.929945942213390E+02
Total Energy                               R     -5.929945942213390E+02
RMS Force                                  R      3.081106722453666E-03
RMS Density                                R      1.905243696396830E-09
NImag                                      I                2
Job Status                                 I                1
Nuclear derivative order                   I                2
External E-field                           R   N=          35
  0.00000000E+00  0.00000000E+00  0.00000000E+00  0.00000000E+00  0.00000000E+00
  0.00000000E+00  0.00000000E+00  0.00000000E+00  0.00000000E+00  0.00000000E+00
  0.00000000E+00  0.00000000E+00  0.00000000E+00  0.00000000E+00  0.00000000E+00
  0.00000000E+00  0.00000000E+00  0.00000000E+00  0.00000000E+00  0.00000000E+00
  0.00000000E+00  0.00000000E+00  0.00000000E+00  0.00000000E+00  0.00000000E+00
  0.00000000E+00  0.00000000E+00  0.00000000E+00  0.00000000E+00  0.00000000E+00
  0.00000000E+00  0.00000000E+00  0.00000000E+00  0.00000000E+00  0.00000000E+00
IOpCl                                      I                0
IROHF                                      I                0
Alpha Orbital Energies                     R   N=          98
 -1.01411556E+02 -1.40944069E+01 -1.01012504E+01 -9.95977281E+00 -9.32779006E+00
 -7.09081402E+00 -7.08243024E+00 -7.08243022E+00 -7.17281860E-01 -6.47460456E-01
 -5.40081714E-01 -3.08155554E-01 -3.08090924E-01 -2.78145559E-01 -1.82444300E-01
 -1.76259502E-01 -1.76250648E-01 -9.65774661E-02 -9.65769593E-02 -6.88141328E-02
  1.08608609E-01  1.26988827E-01  1.44544163E-01  1.44584035E-01  1.73203981E-01
  2.02624308E-01  2.02676827E-01  2.02737853E-01  2.20393252E-01  2.20556629E-01
  2.40560469E-01  2.49016252E-01  2.49112203E-01  2.70342356E-01  2.76059101E-01
  2.76168297E-01  3.13547199E-01  3.33612906E-01  3.33741156E-01  3.60944702E-01
  3.85738542E-01  3.85847771E-01  3.87833300E-01  4.64531112E-01  4.79679583E-01
  6.46686753E-01  7.28811349E-01  7.43686006E-01  7.43707641E-01  7.72594085E-01
  7.72696170E-01  8.76700851E-01  8.96841548E-01  8.96875986E-01  9.75391197E-01
  9.92924550E-01  9.92968756E-01  1.04367522E+00  1.04374947E+00  1.08237602E+00
  1.09425664E+00  1.09426621E+00  1.12442931E+00  1.18988586E+00  1.18995781E+00
  1.22762767E+00  1.26690502E+00  1.37113488E+00  1.46623614E+00  1.60116220E+00
  1.60122874E+00  1.74534062E+00  1.78232044E+00  1.78232384E+00  1.80449406E+00
  1.80452238E+00  2.15641917E+00  2.20205328E+00  2.20208326E+00  2.21671584E+00
  2.21683051E+00  2.29425376E+00  2.48783190E+00  2.48786135E+00  2.67623117E+00
  2.82236851E+00  2.83513002E+00  2.83516010E+00  2.95326729E+00  2.95344687E+00
  3.25787826E+00  3.38212433E+00  3.55525677E+00  3.55548276E+00  4.20940371E+00
  4.41186189E+00  4.45585406E+00  4.57079600E+00
Alpha MO coefficients                      R   N=        9604
 -6.46092566E-06  2.59595973E-05 -5.29302126E-05  9.41319889E-10 -5.96913496E-08
  1.14958962E-04 -3.27720562E-05  1.40512638E-09 -6.94120451E-08 -3.74401871E-05
 -8.17274563E-05 -3.08170901E-09  9.34378427E-08 -2.12084094E-05  1.22169810E-05
  1.22163146E-05 -8.25639424E-11 -4.18269802E-08  6.83162900E-10  9.95996898E-01
  1.51506861E-02  4.02248439E-05 -4.86483751E-10  4.01208787E-08 -2.10653061E-02
 -1.76907492E-05  1.56540654E-11 -1.00814050E-08  1.88616822E-03 -4.83076856E-05
  6.31014792E-10 -6.00666780E-08 -4.11005209E-04 -2.32327667E-05  6.88039234E-10
 -4.86360444E-08  7.50293127E-03  7.52467578E-03  7.52467710E-03  1.43981156E-10
 -2.49327333E-08  1.30817416E-11 -2.73438808E-05 -3.25129819E-05  4.34781690E-05
  2.36074397E-05  2.79577434E-08 -1.22452149E-05 -2.73928079E-05 -3.23061268E-05
  4.31744734E-05  2.35812876E-05  1.05918006E-05  6.17282188E-06 -2.73908430E-05
 -3.23040147E-05  4.31671167E-05  2.35828479E-05 -1.06197605E-05  6.12386028E-06
 -3.14809213E-07  1.79241274E-06  6.89933858E-08  5.64801557E-10 -2.66307982E-08
 -1.07767524E-04 -8.55399887E-05  2.21733938E-09 -1.07133987E-07 -1.57696243E-05
 -7.59190858E-05 -2.12422019E-09  1.41105771E-07 -9.97350817E-06  9.36121788E-07
  9.38014764E-07  6.47496986E-10 -2.87138681E-08 -3.11928891E-12 -1.84718385E-06
 -7.30221537E-06 -8.89310621E-07  1.00186446E-11 -1.92607022E-09  1.09039813E-04
 -6.00591151E-05  3.13798406E-09 -1.40877070E-07  9.62073624E-05  9.18792206E-06
  3.53183346E-09 -1.87255057E-07  3.68650096E-06 -5.56312652E-06 -5.56352642E-06
 -7.18286408E-10  3.37494403E-08 -3.57290238E-12  3.85018588E-06  1.57554100E-05
  3.49026610E-06  5.27505699E-10 -2.76888037E-08 -3.64564275E-05 -3.72751954E-05
 -2.73659797E-10  7.20408541E-08  1.04252107E-03  1.00790325E-04  1.77202389E-08
 -1.16870262E-06  2.08231717E-06  9.69002839E-06  9.67904789E-06 -1.51226792E-10
  6.58942798E-09  9.28298911E-11  1.39057520E-07  2.48164372E-06 -1.65956251E-07
  6.88568448E-11 -2.67678806E-09  6.25515558E-06  1.44984089E-06 -3.99088092E-10
  1.59689569E-08 -6.26269025E-05 -3.00170156E-05  1.63787434E-09 -8.73293722E-08
 -1.60239581E-04 -7.09162015E-05 -1.00275959E-08  5.13345849E-07  2.96288460E-06
  4.81896438E-06  4.81853680E-06 -4.43448116E-11  2.15559600E-10  2.02871399E-11
  1.00002136E-05 -4.60414008E-05 -1.70649210E-04  1.28258691E-06  6.24362536E-09
 -2.71500765E-06  9.96049633E-06 -4.58782248E-05 -1.71258291E-04  1.35499470E-06
  2.32385959E-06  1.34661235E-06  9.95953328E-06 -4.58726987E-05 -1.71284684E-04
  1.35548471E-06 -2.32928700E-06  1.33553694E-06  8.35067396E-05  2.09070444E-04
 -2.81343201E-04  1.32284110E-08 -6.16388418E-07 -2.45796905E-04 -4.23769591E-04
  2.25834684E-08 -1.06625873E-06  1.45771455E-03  1.00712415E-03 -4.58617675E-08
  1.99139559E-06 -7.58390882E-04 -1.35904172E-05 -1.35918141E-05  4.16214850E-08
 -1.94514453E-06  8.28832403E-11  9.92698580E-01  3.44415490E-02 -1.39727904E-03
  6.73763797E-08 -3.15713556E-06  5.21097719E-03  1.08386654E-04 -5.41504244E-09
  2.48641955E-07 -3.00177239E-03  6.02097762E-05 -5.06296997E-09  3.14877270E-07
 -7.70736134E-03 -8.42175929E-03 -8.42175685E-03 -3.96354889E-08  1.85386002E-06
 -1.02656416E-10  9.92990582E-01  4.96326676E-02 -7.24388307E-04 -8.22693831E-09
  9.80332502E-07 -1.64716384E-02  8.99722842E-04 -3.23178631E-08 -7.75458104E-08
  6.72975057E-03 -3.25268315E-03  2.94413869E-08 -1.88576526E-06 -9.27918137E-03
 -8.86581005E-03 -8.86643559E-03 -1.14295295E-09 -2.57790394E-07  8.77127498E-09
 -9.30603519E-06 -5.00268750E-05 -2.30203915E-06 -5.40138183E-10 -1.62437461E-08
 -1.80774277E-05  1.86993689E-04  2.26464292E-09  2.59323066E-07  3.23961355E-03
  1.86241283E-03 -2.55277684E-08  1.46428157E-06 -5.70850973E-03 -1.89101512E-03
  2.37428024E-08 -2.07562610E-06 -1.38731120E-04 -1.77945709E-04 -1.77891244E-04
 -2.25309812E-09 -1.65871727E-08 -1.64746944E-09 -1.55601298E-04  3.02322369E-03
 -9.38463938E-04  2.89118723E-05  2.23308974E-07 -9.53575911E-05 -1.56434398E-04
  3.02455083E-03 -9.40526427E-04  2.92623878E-05  8.29952739E-05  4.82555473E-05
 -1.56432575E-04  3.02447497E-03 -9.40425690E-04  2.92640779E-05 -8.32293421E-05
  4.78872386E-05 -1.97601030E-05 -5.07591996E-05  4.27599859E-05  4.68161494E-09
 -5.26151202E-07 -3.89438838E-04 -8.00239536E-04  3.30337053E-09  1.06001861E-06
  1.82760151E-03  4.48158211E-04 -1.32938244E-08  3.53401276E-06 -4.91552007E-05
 -3.46852410E-05 -3.48056171E-05  4.77417907E-09 -3.14982558E-07 -1.58116884E-11
 -2.91036930E-05 -1.06075443E-04 -9.36032559E-06 -4.12562101E-09  2.57621807E-07
  1.13388376E-03 -3.34335106E-04  3.86747165E-08 -2.13074262E-06 -1.03856128E-03
 -1.22911781E-04 -2.92358331E-08 -4.38420772E-07 -2.57471874E-05 -7.14788890E-05
 -7.14664473E-05 -3.25022462E-09  2.44451551E-07  2.75873803E-11 -1.70862222E-05
 -8.10417158E-05 -8.61120294E-05  5.48452105E-10 -5.31622539E-08  4.96504121E-04
  4.91539431E-04 -8.77836001E-09  1.38610716E-06 -1.38803099E-03  2.93019087E-03
 -1.02409713E-08  8.11094681E-07 -3.25767476E-05 -2.97945213E-05 -2.99238522E-05
  9.00941579E-11 -6.08683002E-09  4.45749031E-11  1.26045507E-07  6.09450433E-06
  3.72487624E-06  3.37097321E-11  1.48520403E-08  1.35645602E-05 -2.59925304E-05
 -2.92637063E-10 -8.37787946E-08 -1.45371643E-04  2.64797867E-04  1.89464242E-09
  2.57029295E-07  4.01224686E-03  9.59297391E-04 -1.19074334E-08  1.38404242E-06
  3.91900732E-05 -6.27624635E-07 -6.47465268E-07  1.54668855E-10  4.64591743E-08
  2.32631798E-10 -2.99983174E-05 -4.73596810E-04 -2.18547657E-04 -3.64257930E-05
  4.11092153E-08 -1.77751525E-05 -2.97544324E-05 -4.75814080E-04 -2.13615685E-04
 -3.68842143E-05  1.56967684E-05  9.02276081E-06 -2.97570860E-05 -4.75819253E-04
 -2.13592492E-04 -3.68850953E-05 -1.57400450E-05  8.95218893E-06  9.92843962E-01
  4.92888021E-02  1.88177775E-03 -9.71567957E-08  4.59995306E-06 -1.11624995E-02
 -9.91875419E-04  7.54177138E-08 -3.77200819E-06 -5.82418483E-03 -1.08534360E-03
  1.36809618E-07 -8.57139779E-06 -8.46171958E-03 -9.69738609E-03 -9.69735144E-03
 -6.86835153E-08  3.24685565E-06 -1.25866498E-10 -4.94085091E-04  2.26917066E-05
  4.41053415E-04 -2.04363601E-08  9.70435951E-07 -7.90294032E-04  3.90315503E-04
 -2.69043753E-08  1.18384651E-06  8.89494379E-03 -3.12595081E-03  1.19745567E-07
 -4.37861565E-06 -2.74854248E-04  1.57320513E-04  1.57317993E-04  2.61591313E-08
 -1.24538360E-06  6.32241407E-11 -1.09794516E-04  1.27809599E-04  3.69408908E-04
 -1.01417943E-09  1.53294797E-07  3.00269361E-03 -1.58251567E-03 -4.22645485E-08
  1.14364816E-06 -3.78291708E-02  3.41966014E-02  3.95994399E-08  1.01572917E-05
 -7.68427225E-04 -1.26358860E-04 -1.26576098E-04  4.30978806E-09 -6.20642497E-07
 -5.72215395E-09 -2.84604745E-01  1.02274278E+00  4.92484636E-03 -6.43363675E-08
  5.25977293E-06  7.60290742E-02  6.11677587E-04 -2.28636119E-09  3.80753764E-07
 -2.64926829E-02 -1.74391812E-03  1.24484265E-08 -1.21347746E-06  6.20211721E-02
  1.72655664E-02 -1.94034921E-07  2.24352440E-05 -1.51889877E-02 -1.55802231E-02
 -1.55802711E-02 -3.87007077E-09  5.45077102E-07  4.52957988E-11 -4.14491193E-05
 -7.24735997E-04  9.40523131E-04 -7.15360337E-05 -2.68909748E-08  1.29486134E-05
 -4.10657284E-05 -7.29515112E-04  9.48655492E-04 -7.20370936E-05 -1.07919187E-05
 -6.53306202E-06 -4.10711252E-05 -7.29598927E-04  9.48856922E-04 -7.20225874E-05
  1.08164019E-05 -6.47713483E-06  1.33267073E-05  6.02402947E-05  4.50049350E-05
 -2.02500305E-08  1.22857401E-06  3.50013248E-04  5.71822353E-04  4.22873907E-08
 -2.89459667E-06 -1.73819169E-02  9.56874084E-03  6.49652173E-07 -4.45701390E-05
  8.07206145E-05  4.51693090E-06  4.53424445E-06 -5.73907537E-09  3.51621469E-07
  4.96264443E-11  1.09541808E-05  5.84428339E-05 -1.76839613E-05 -1.18493694E-08
  7.37203673E-07 -7.74218505E-04  5.66419089E-04  2.50876257E-08 -2.04096529E-06
  6.21807156E-04 -2.64827601E-03 -3.65993751E-07  2.48443519E-05 -4.57151566E-05
  2.90604426E-05  2.90583748E-05  9.18854256E-09 -5.15239024E-07  1.38261963E-10
  7.07416932E-05  1.59908816E-03  3.96223332E-04 -8.36255480E-09  9.12086752E-07
 -7.35523967E-04  1.53309595E-03 -7.33142298E-09 -3.74931456E-06  4.85792431E-02
 -5.22875841E-02 -3.95270138E-08 -1.04966677E-05 -1.96489970E-03  2.07649398E-04
  2.08427987E-04  2.27477513E-08 -2.31471193E-06 -8.57358333E-09  1.45133640E-03
 -5.52999938E-03  9.90324565E-01 -1.09549722E-05  9.16343226E-04 -4.14184822E-04
  3.14971380E-02 -3.40991895E-07  2.92847325E-05  5.08799036E-03 -1.29373146E-02
  1.30800955E-07 -1.15110366E-05 -7.12888593E-02 -1.39992199E-02  2.42995406E-07
 -2.73228497E-05  7.58356283E-04 -4.63431830E-04 -4.63375376E-04 -8.44295789E-09
  1.24149428E-06 -4.01829832E-10 -1.62373878E-04  1.36892100E-03 -5.41381816E-03
 -3.15822158E-04  7.20426273E-08 -3.10787495E-05 -1.61309345E-04  1.37366150E-03
 -5.41179585E-03 -3.16163679E-04  2.61559259E-05  1.52661075E-05 -1.61337716E-04
  1.37364376E-03 -5.41170221E-03 -3.16140438E-04 -2.62201671E-05  1.51436480E-05
 -2.30502985E-05 -1.56604948E-04 -9.43992333E-05  2.51039599E-08 -1.55581979E-06
  2.40437991E-03  1.43733238E-03 -1.56792964E-07  8.47798282E-06  3.78452910E-02
 -1.60259684E-02 -1.20352120E-06  7.97097061E-05  1.24753453E-04 -4.07354915E-05
 -4.07440585E-05 -8.77007133E-09  2.49224990E-07 -1.28855068E-10 -1.43930083E-05
 -3.63563612E-05  3.87324211E-05  1.88068278E-08 -1.19948323E-06 -6.36908420E-04
  7.18837979E-04 -1.22905011E-07  7.36668561E-06 -7.87914460E-03  5.72003411E-03
  5.51040117E-07 -3.87718601E-05 -1.30124478E-04 -8.33149759E-06 -8.31874399E-06
  6.75488378E-10  7.60064258E-08 -1.19012518E-10  1.06628377E-07  4.87597968E-07
  8.29492050E-07  2.57925179E-05 -7.92353771E-05 -3.11470402E-06 -5.21086704E-06
 -9.96090475E-05  3.07101711E-04  1.50477925E-05 -5.89175775E-05 -1.37556571E-04
  4.28297573E-04  9.88079387E-08 -7.98657806E-05  8.00668388E-05 -4.55460494E-05
  1.39825589E-04  2.93148261E-05  1.80007079E-07 -7.65047251E-07 -8.75334596E-04
 -3.06475877E-01  9.42254930E-01 -9.91957511E-08 -2.58793107E-05 -9.15447370E-03
  2.81456039E-02  2.05030972E-06  7.29884996E-06  3.59894934E-03 -1.10662965E-02
 -6.66171703E-05 -1.95597833E-05 -1.60206869E-03  4.92865237E-03 -1.02076523E-06
  4.69591592E-06 -4.31695419E-06 -1.00669569E-04  3.09507013E-04 -1.86130995E-06
  5.76391456E-05 -5.35341375E-04  4.47611120E-03  2.54323405E-04  8.01403967E-06
 -4.72387125E-05 -1.24603532E-05  1.22484546E-04 -9.92937634E-04 -5.58759863E-05
  3.36176570E-06 -2.71666692E-05 -4.44842088E-05  4.24748414E-04 -3.48186557E-03
 -1.97992376E-04  2.38870357E-05 -3.38058456E-05 -4.16925423E-08 -7.37905915E-08
 -2.75694597E-07 -1.30019469E-05  4.01079067E-05 -1.59254851E-05 -1.26561991E-05
  5.00573876E-05 -1.55147951E-04  4.10680968E-05 -2.77000173E-05 -3.07734077E-04
  9.58064566E-04 -9.35325800E-07  3.59827053E-06 -3.24236296E-06  1.90241222E-06
 -5.97931502E-06 -1.24138656E-06 -4.23638030E-07 -1.67360838E-06  1.14524675E-07
  5.78450851E-06 -1.81656986E-05  1.97502013E-05 -9.80678448E-06 -3.55076409E-05
  1.11277763E-04  3.57789290E-07  9.13679054E-06  1.28656633E-04 -4.03510244E-04
  1.86580583E-07  4.57571655E-07 -2.70217183E-06  3.57293932E-06 -1.10511350E-05
 -5.80202497E-07  3.72035066E-08  1.78125078E-07  2.59500502E-07 -7.93045473E-05
 -2.57738285E-05 -1.11800131E-06 -1.61774011E-06  3.06162073E-04  9.98597676E-05
  4.83374891E-06 -1.88420947E-05  4.23077468E-04  1.39360015E-04  3.00234956E-08
 -2.53786830E-05  2.54392070E-05  1.40033080E-04  4.54801376E-05 -9.23061913E-05
  5.61958881E-08 -2.40782977E-07 -2.73186968E-04  9.42255392E-01  3.06475736E-01
 -3.41141793E-08 -8.06611561E-06  2.81452985E-02  9.15457936E-03  7.00852213E-07
  2.28990457E-06 -1.10649354E-02 -3.59940560E-03 -2.12797821E-05 -6.23484193E-06
  4.92560029E-03  1.60310328E-03 -3.14412430E-07  1.48250439E-06 -1.37042653E-06
  3.09512289E-04  1.00671277E-04  5.84091506E-06  1.85949708E-05 -1.72743258E-04
  1.44474999E-03  8.20740161E-05 -2.44650988E-05 -1.53068606E-05 -5.87649577E-05
  5.56683428E-04 -4.57889059E-03 -2.61178380E-04 -4.52766259E-05 -2.03141026E-05
  4.04071717E-05 -3.79992316E-04  3.13453937E-03  1.79224946E-04 -3.86988010E-05
  4.16104520E-07 -1.40412179E-08 -2.70766299E-08 -8.47552910E-08  3.99768822E-05