 Entering Gaussian System, Link 0=g16
 Initial command:
 /usr/local/g16_AVX//g16/l1.exe "/scratch/alanqf/0139-54581.ixchel.mda.cinvestav.mx/Gau-22129.inp" -scrdir="/scratch/alanqf/0139-54581.ixchel.mda.cinvestav.mx/"
 Entering Link 1 = /usr/local/g16_AVX//g16/l1.exe PID=     22130.
  
 Copyright (c) 1988-2017, Gaussian, Inc.  All Rights Reserved.
  
 This is part of the Gaussian(R) 16 program.  It is based on
 the Gaussian(R) 09 system (copyright 2009, Gaussian, Inc.),
 the Gaussian(R) 03 system (copyright 2003, Gaussian, Inc.),
 the Gaussian(R) 98 system (copyright 1998, Gaussian, Inc.),
 the Gaussian(R) 94 system (copyright 1995, Gaussian, Inc.),
 the Gaussian 92(TM) system (copyright 1992, Gaussian, Inc.),
 the Gaussian 90(TM) system (copyright 1990, Gaussian, Inc.),
 the Gaussian 88(TM) system (copyright 1988, Gaussian, Inc.),
 the Gaussian 86(TM) system (copyright 1986, Carnegie Mellon
 University), and the Gaussian 82(TM) system (copyright 1983,
 Carnegie Mellon University). Gaussian is a federally registered
 trademark of Gaussian, Inc.
  
 This software contains proprietary and confidential information,
 including trade secrets, belonging to Gaussian, Inc.
  
 This software is provided under written license and may be
 used, copied, transmitted, or stored only in accord with that
 written license.
  
 The following legend is applicable only to US Government
 contracts under FAR:
  
                    RESTRICTED RIGHTS LEGEND
  
 Use, reproduction and disclosure by the US Government is
 subject to restrictions as set forth in subparagraphs (a)
 and (c) of the Commercial Computer Software - Restricted
 Rights clause in FAR 52.227-19.
  
 Gaussian, Inc.
 340 Quinnipiac St., Bldg. 40, Wallingford CT 06492
  
  
 ---------------------------------------------------------------
 Warning -- This program may not be used in any manner that
 competes with the business of Gaussian, Inc. or will provide
 assistance to any competitor of Gaussian, Inc.  The licensee
 of this program is prohibited from giving any competitor of
 Gaussian, Inc. access to this program.  By using this program,
 the user acknowledges that Gaussian, Inc. is engaged in the
 business of creating and licensing software in the field of
 computational chemistry and represents and warrants to the
 licensee that it is not a competitor of Gaussian, Inc. and that
 it will not use this program in any manner prohibited above.
 ---------------------------------------------------------------
  

 Cite this work as:
 Gaussian 16, Revision B.01,
 M. J. Frisch, G. W. Trucks, H. B. Schlegel, G. E. Scuseria, 
 M. A. Robb, J. R. Cheeseman, G. Scalmani, V. Barone, 
 G. A. Petersson, H. Nakatsuji, X. Li, M. Caricato, A. V. Marenich, 
 J. Bloino, B. G. Janesko, R. Gomperts, B. Mennucci, H. P. Hratchian, 
 J. V. Ortiz, A. F. Izmaylov, J. L. Sonnenberg, D. Williams-Young, 
 F. Ding, F. Lipparini, F. Egidi, J. Goings, B. Peng, A. Petrone, 
 T. Henderson, D. Ranasinghe, V. G. Zakrzewski, J. Gao, N. Rega, 
 G. Zheng, W. Liang, M. Hada, M. Ehara, K. Toyota, R. Fukuda, 
 J. Hasegawa, M. Ishida, T. Nakajima, Y. Honda, O. Kitao, H. Nakai, 
 T. Vreven, K. Throssell, J. A. Montgomery, Jr., J. E. Peralta, 
 F. Ogliaro, M. J. Bearpark, J. J. Heyd, E. N. Brothers, K. N. Kudin, 
 V. N. Staroverov, T. A. Keith, R. Kobayashi, J. Normand, 
 K. Raghavachari, A. P. Rendell, J. C. Burant, S. S. Iyengar, 
 J. Tomasi, M. Cossi, J. M. Millam, M. Klene, C. Adamo, R. Cammi, 
 J. W. Ochterski, R. L. Martin, K. Morokuma, O. Farkas, 
 J. B. Foresman, and D. J. Fox, Gaussian, Inc., Wallingford CT, 2016.
 
 ******************************************
 Gaussian 16:  ES64L-G16RevB.01 20-Dec-2017
                13-Oct-2024 
 ******************************************
 %NProcShared=26
 Will use up to   26 processors via shared memory.
 %MEM=20GB
 %chk=CHKfiles/0139.chk
 ---------------------------------------------------------------------
 #p b3lyp 6-31++g(d,p) scf=verytight NoSymm freq=noraman int=ultrafine
 ---------------------------------------------------------------------
 1/10=4,30=1,38=1/1,3;
 2/12=2,15=1,17=6,18=5,40=1/2;
 3/5=1,6=6,7=1111,11=2,25=1,30=1,71=2,74=-5,75=-5,140=1/1,2,3;
 4//1;
 5/5=2,17=3,38=5,98=1/2;
 8/6=4,10=90,11=11/1;
 11/6=1,8=1,9=11,15=111,16=1,31=1/1,2,10;
 10/6=1,31=1/2;
 6/7=2,8=2,9=2,10=2,28=1/1;
 7/8=1,10=1,25=1,30=1/1,2,3,16;
 1/10=4,30=1/3;
 99//99;
 Leave Link    1 at Sun Oct 13 09:52:04 2024, MaxMem=  2684354560 cpu:               1.2 elap:               0.1
 (Enter /usr/local/g16_AVX//g16/l101.exe)
 ------------------------
 RxCoord=3.79756 DE=45.74
 ------------------------
 Symbolic Z-matrix:
 Charge = -1 Multiplicity = 1
 C                    -0.38391  -0.00001   0.00167 
 Cl                   -2.2135   0.        -0.00008 
 H                    -0.05045   0.00235  -1.03057 
 H                    -0.05215   0.89324   0.52033 
 H                    -0.05222  -0.89562   0.51624 
 C                     2.52421   0.00004  -0.00242 
 N                     3.70461  -0.00001   0.00042 
 
 ITRead=  0  0  0  0  0  0  0
 MicOpt= -1 -1 -1 -1 -1 -1 -1
 NAtoms=      7 NQM=        7 NQMF=       0 NMMI=      0 NMMIF=      0
                NMic=       0 NMicF=      0.
                    Isotopes and Nuclear Properties:
 (Nuclear quadrupole moments (NQMom) in fm**2, nuclear magnetic moments (NMagM)
  in nuclear magnetons)

  Atom         1           2           3           4           5           6           7
 IAtWgt=          12          35           1           1           1          12          14
 AtmWgt=  12.0000000  34.9688527   1.0078250   1.0078250   1.0078250  12.0000000  14.0030740
 NucSpn=           0           3           1           1           1           0           2
 AtZEff=  -0.0000000  -0.0000000  -0.0000000  -0.0000000  -0.0000000  -0.0000000  -0.0000000
 NQMom=    0.0000000  -8.1650000   0.0000000   0.0000000   0.0000000   0.0000000   2.0440000
 NMagM=    0.0000000   0.8218740   2.7928460   2.7928460   2.7928460   0.0000000   0.4037610
 AtZNuc=   6.0000000  17.0000000   1.0000000   1.0000000   1.0000000   6.0000000   7.0000000
 Leave Link  101 at Sun Oct 13 09:52:04 2024, MaxMem=  2684354560 cpu:               2.8 elap:               0.2
 (Enter /usr/local/g16_AVX//g16/l103.exe)

 GradGradGradGradGradGradGradGradGradGradGradGradGradGradGradGradGradGrad
 Berny optimization.
 Initialization pass.
 Trust Radius=3.00D-01 FncErr=1.00D-07 GrdErr=1.00D-07 EigMax=2.50D+02 EigMin=1.00D-04
 Number of steps in this run=      2 maximum allowed number of steps=      2.
 GradGradGradGradGradGradGradGradGradGradGradGradGradGradGradGradGradGrad

 Leave Link  103 at Sun Oct 13 09:52:04 2024, MaxMem=  2684354560 cpu:               0.7 elap:               0.1
 (Enter /usr/local/g16_AVX//g16/l202.exe)
                          Input orientation:                          
 ---------------------------------------------------------------------
 Center     Atomic      Atomic             Coordinates (Angstroms)
 Number     Number       Type             X           Y           Z
 ---------------------------------------------------------------------
      1          6           0       -0.383909   -0.000012    0.001668
      2         17           0       -2.213500   -0.000004   -0.000083
      3          1           0       -0.050454    0.002351   -1.030574
      4          1           0       -0.052145    0.893238    0.520334
      5          1           0       -0.052219   -0.895622    0.516244
      6          6           0        2.524214    0.000041   -0.002416
      7          7           0        3.704611   -0.000012    0.000417
 ---------------------------------------------------------------------
                    Distance matrix (angstroms):
                    1          2          3          4          5
     1  C    0.000000
     2  Cl   1.829592   0.000000
     3  H    1.084768   2.395973   0.000000
     4  H    1.084886   2.395865   1.788574   0.000000
     5  H    1.084861   2.395801   1.788576   1.788865   0.000000
     6  C    2.908126   4.737715   2.772369   2.776454   2.776550
     7  N    4.088520   5.918111   3.894029   3.896335   3.896404
                    6          7
     6  C    0.000000
     7  N    1.180400   0.000000
 Symmetry turned off by external request.
 Stoichiometry    C2H3ClN(1-)
 Framework group  C1[X(C2H3ClN)]
 Deg. of freedom    15
 Full point group                 C1      NOp   1
 Rotational constants (GHZ):         156.7314119           1.1398803           1.1398788
 Leave Link  202 at Sun Oct 13 09:52:04 2024, MaxMem=  2684354560 cpu:               0.2 elap:               0.0
 (Enter /usr/local/g16_AVX//g16/l301.exe)
 Standard basis: 6-31++G(d,p) (6D, 7F)
 Ernie: Thresh=  0.10000D-02 Tol=  0.10000D-05 Strict=F.
    98 basis functions,   176 primitive gaussians,    98 cartesian basis functions
    20 alpha electrons       20 beta electrons
       nuclear repulsion energy       109.5678390382 Hartrees.
 IExCor=  402 DFT=T Ex+Corr=B3LYP ExCW=0 ScaHFX=  0.200000
 ScaDFX=  0.800000  0.720000  1.000000  0.810000 ScalE2=  1.000000  1.000000
 IRadAn=      5 IRanWt=     -1 IRanGd=            0 ICorTp=0 IEmpDi=  4
 NAtoms=    7 NActive=    7 NUniq=    7 SFac= 1.00D+00 NAtFMM=   60 NAOKFM=F Big=F
 Integral buffers will be    131072 words long.
 Raffenetti 2 integral format.
 Two-electron integral symmetry is turned off.
 Leave Link  301 at Sun Oct 13 09:52:05 2024, MaxMem=  2684354560 cpu:               1.4 elap:               0.1
 (Enter /usr/local/g16_AVX//g16/l302.exe)
 NPDir=0 NMtPBC=     1 NCelOv=     1 NCel=       1 NClECP=     1 NCelD=      1
         NCelK=      1 NCelE2=     1 NClLst=     1 CellRange=     0.0.
 One-electron integrals computed using PRISM.
 NBasis=    98 RedAO= T EigKep=  1.41D-04  NBF=    98
 NBsUse=    98 1.00D-06 EigRej= -1.00D+00 NBFU=    98
 Precomputing XC quadrature grid using
 IXCGrd= 4 IRadAn=           5 IRanWt=          -1 IRanGd=           0 AccXCQ= 0.00D+00.
 Generated NRdTot=       0 NPtTot=           0 NUsed=           0 NTot=          32
 NSgBfM=    98    98    98    98    98 MxSgAt=     7 MxSgA2=     7.
 Leave Link  302 at Sun Oct 13 09:52:05 2024, MaxMem=  2684354560 cpu:               4.0 elap:               0.2
 (Enter /usr/local/g16_AVX//g16/l303.exe)
 DipDrv:  MaxL=1.
 Leave Link  303 at Sun Oct 13 09:52:05 2024, MaxMem=  2684354560 cpu:               0.8 elap:               0.1
 (Enter /usr/local/g16_AVX//g16/l401.exe)
 ExpMin= 3.60D-02 ExpMax= 2.52D+04 ExpMxC= 3.78D+03 IAcc=3 IRadAn=         5 AccDes= 0.00D+00
 Harris functional with IExCor=  402 and IRadAn=       5 diagonalized for initial guess.
 HarFok:  IExCor=  402 AccDes= 0.00D+00 IRadAn=         5 IDoV= 1 UseB2=F ITyADJ=14
 ICtDFT=  3500011 ScaDFX=  1.000000  1.000000  1.000000  1.000000
 FoFCou: FMM=F IPFlag=           0 FMFlag=      100000 FMFlg1=           0
         NFxFlg=           0 DoJE=T BraDBF=F KetDBF=T FulRan=T
         wScrn=  0.000000 ICntrl=       500 IOpCl=  0 I1Cent=   200000004 NGrid=           0
         NMat0=    1 NMatS0=      1 NMatT0=    0 NMatD0=    1 NMtDS0=    0 NMtDT0=    0
 Symmetry not used in FoFCou.
 Harris En= -593.078637781678    
 JPrj=0 DoOrth=F DoCkMO=F.
 Leave Link  401 at Sun Oct 13 09:52:05 2024, MaxMem=  2684354560 cpu:               5.7 elap:               0.3
 (Enter /usr/local/g16_AVX//g16/l502.exe)
 Keep R1 ints in memory in canonical form, NReq=35752935.
 FoFCou: FMM=F IPFlag=           0 FMFlag=           0 FMFlg1=           0
         NFxFlg=           0 DoJE=F BraDBF=F KetDBF=F FulRan=T
         wScrn=  0.000000 ICntrl=       600 IOpCl=  0 I1Cent=           0 NGrid=           0
         NMat0=    1 NMatS0=   4851 NMatT0=    0 NMatD0=    1 NMtDS0=    0 NMtDT0=    0
 Symmetry not used in FoFCou.
 Two-electron integral symmetry not used.
 Closed shell SCF:
 Using DIIS extrapolation, IDIIS=  1040.
 NGot=  2684354560 LenX=  2672563405 LenY=  2672553360
 Requested convergence on RMS density matrix=1.00D-08 within 128 cycles.
 Requested convergence on MAX density matrix=1.00D-06.
 Requested convergence on             energy=1.00D-06.
 No special actions if energy rises.

 Cycle   1  Pass 1  IDiag  1:
 E= -592.841884755289    
 DIIS: error= 3.49D-02 at cycle   1 NSaved=   1.
 NSaved= 1 IEnMin= 1 EnMin= -592.841884755289     IErMin= 1 ErrMin= 3.49D-02
 ErrMax= 3.49D-02  0.00D+00 EMaxC= 1.00D-01 BMatC= 1.32D-01 BMatP= 1.32D-01
 IDIUse=3 WtCom= 6.51D-01 WtEn= 3.49D-01
 Coeff-Com:  0.100D+01
 Coeff-En:   0.100D+01
 Coeff:      0.100D+01
 Gap=     0.631 Goal=   None    Shift=    0.000
 GapD=    0.631 DampG=2.000 DampE=0.500 DampFc=1.0000 IDamp=-1.
 RMSDP=7.67D-02 MaxDP=2.57D+00              OVMax= 3.82D-01

 Cycle   2  Pass 1  IDiag  1:
 E= -592.637263305035     Delta-E=        0.204621450255 Rises=F Damp=F
 DIIS: error= 4.95D-02 at cycle   2 NSaved=   2.
 NSaved= 2 IEnMin= 1 EnMin= -592.841884755289     IErMin= 1 ErrMin= 3.49D-02
 ErrMax= 4.95D-02  0.00D+00 EMaxC= 1.00D-01 BMatC= 3.01D-01 BMatP= 1.32D-01
 IDIUse=2 WtCom= 0.00D+00 WtEn= 1.00D+00
 Coeff-En:   0.686D+00 0.314D+00
 Coeff:      0.686D+00 0.314D+00
 Gap=     0.153 Goal=   None    Shift=    0.000
 RMSDP=7.53D-02 MaxDP=2.56D+00 DE= 2.05D-01 OVMax= 2.44D-01

 Cycle   3  Pass 1  IDiag  1:
 E= -592.983188965539     Delta-E=       -0.345925660504 Rises=F Damp=F
 DIIS: error= 8.04D-03 at cycle   3 NSaved=   3.
 NSaved= 3 IEnMin= 3 EnMin= -592.983188965539     IErMin= 3 ErrMin= 8.04D-03
 ErrMax= 8.04D-03  0.00D+00 EMaxC= 1.00D-01 BMatC= 1.06D-02 BMatP= 1.32D-01
 IDIUse=3 WtCom= 9.20D-01 WtEn= 8.04D-02
 Coeff-Com:  0.272D+00 0.108D+00 0.619D+00
 Coeff-En:   0.000D+00 0.000D+00 0.100D+01
 Coeff:      0.251D+00 0.995D-01 0.650D+00
 Gap=     0.184 Goal=   None    Shift=    0.000
 RMSDP=2.57D-03 MaxDP=4.43D-02 DE=-3.46D-01 OVMax= 5.08D-02

 Cycle   4  Pass 1  IDiag  1:
 E= -592.988025814955     Delta-E=       -0.004836849417 Rises=F Damp=F
 DIIS: error= 1.21D-02 at cycle   4 NSaved=   4.
 NSaved= 4 IEnMin= 4 EnMin= -592.988025814955     IErMin= 3 ErrMin= 8.04D-03
 ErrMax= 1.21D-02  0.00D+00 EMaxC= 1.00D-01 BMatC= 7.08D-03 BMatP= 1.06D-02
 IDIUse=3 WtCom= 8.79D-01 WtEn= 1.21D-01
 Coeff-Com:  0.511D-01-0.235D-01 0.489D+00 0.483D+00
 Coeff-En:   0.000D+00 0.000D+00 0.380D+00 0.620D+00
 Coeff:      0.449D-01-0.207D-01 0.476D+00 0.500D+00
 Gap=     0.174 Goal=   None    Shift=    0.000
 RMSDP=9.37D-04 MaxDP=1.52D-02 DE=-4.84D-03 OVMax= 2.96D-02

 Cycle   5  Pass 1  IDiag  1:
 E= -592.994402195732     Delta-E=       -0.006376380777 Rises=F Damp=F
 DIIS: error= 2.53D-03 at cycle   5 NSaved=   5.
 NSaved= 5 IEnMin= 5 EnMin= -592.994402195732     IErMin= 5 ErrMin= 2.53D-03
 ErrMax= 2.53D-03  0.00D+00 EMaxC= 1.00D-01 BMatC= 2.80D-04 BMatP= 7.08D-03
 IDIUse=3 WtCom= 9.75D-01 WtEn= 2.53D-02
 Coeff-Com:  0.164D-01-0.115D-01 0.221D+00 0.275D+00 0.499D+00
 Coeff-En:   0.000D+00 0.000D+00 0.000D+00 0.000D+00 0.100D+01
 Coeff:      0.160D-01-0.112D-01 0.215D+00 0.268D+00 0.512D+00
 Gap=     0.177 Goal=   None    Shift=    0.000
 RMSDP=2.68D-04 MaxDP=4.25D-03 DE=-6.38D-03 OVMax= 6.61D-03

 Cycle   6  Pass 1  IDiag  1:
 E= -592.994652823219     Delta-E=       -0.000250627486 Rises=F Damp=F
 DIIS: error= 8.40D-04 at cycle   6 NSaved=   6.
 NSaved= 6 IEnMin= 6 EnMin= -592.994652823219     IErMin= 6 ErrMin= 8.40D-04
 ErrMax= 8.40D-04  0.00D+00 EMaxC= 1.00D-01 BMatC= 2.90D-05 BMatP= 2.80D-04
 IDIUse=3 WtCom= 9.92D-01 WtEn= 8.40D-03
 Coeff-Com:  0.298D-02-0.576D-02 0.596D-01 0.751D-01 0.267D+00 0.601D+00
 Coeff-En:   0.000D+00 0.000D+00 0.000D+00 0.000D+00 0.794D-01 0.921D+00
 Coeff:      0.296D-02-0.571D-02 0.591D-01 0.745D-01 0.265D+00 0.604D+00
 Gap=     0.177 Goal=   None    Shift=    0.000
 RMSDP=7.07D-05 MaxDP=1.28D-03 DE=-2.51D-04 OVMax= 1.63D-03

 Cycle   7  Pass 1  IDiag  1:
 E= -592.994680638583     Delta-E=       -0.000027815365 Rises=F Damp=F
 DIIS: error= 6.48D-05 at cycle   7 NSaved=   7.
 NSaved= 7 IEnMin= 7 EnMin= -592.994680638583     IErMin= 7 ErrMin= 6.48D-05
 ErrMax= 6.48D-05  0.00D+00 EMaxC= 1.00D-01 BMatC= 3.94D-07 BMatP= 2.90D-05
 IDIUse=1 WtCom= 1.00D+00 WtEn= 0.00D+00
 Coeff-Com:  0.337D-03-0.824D-03 0.276D-02 0.216D-02 0.428D-01 0.180D+00
 Coeff-Com:  0.773D+00
 Coeff:      0.337D-03-0.824D-03 0.276D-02 0.216D-02 0.428D-01 0.180D+00
 Coeff:      0.773D+00
 Gap=     0.177 Goal=   None    Shift=    0.000
 RMSDP=1.32D-05 MaxDP=2.27D-04 DE=-2.78D-05 OVMax= 2.60D-04

 Cycle   8  Pass 1  IDiag  1:
 E= -592.994681099608     Delta-E=       -0.000000461025 Rises=F Damp=F
 DIIS: error= 9.38D-06 at cycle   8 NSaved=   8.
 NSaved= 8 IEnMin= 8 EnMin= -592.994681099608     IErMin= 8 ErrMin= 9.38D-06
 ErrMax= 9.38D-06  0.00D+00 EMaxC= 1.00D-01 BMatC= 1.43D-08 BMatP= 3.94D-07
 IDIUse=1 WtCom= 1.00D+00 WtEn= 0.00D+00
 Coeff-Com:  0.891D-04-0.119D-03 0.536D-04 0.201D-03 0.935D-02 0.426D-01
 Coeff-Com:  0.233D+00 0.714D+00
 Coeff:      0.891D-04-0.119D-03 0.536D-04 0.201D-03 0.935D-02 0.426D-01
 Coeff:      0.233D+00 0.714D+00
 Gap=     0.177 Goal=   None    Shift=    0.000
 RMSDP=2.24D-06 MaxDP=6.11D-05 DE=-4.61D-07 OVMax= 4.60D-05

 Cycle   9  Pass 1  IDiag  1:
 E= -592.994681114665     Delta-E=       -0.000000015057 Rises=F Damp=F
 DIIS: error= 2.98D-06 at cycle   9 NSaved=   9.
 NSaved= 9 IEnMin= 9 EnMin= -592.994681114665     IErMin= 9 ErrMin= 2.98D-06
 ErrMax= 2.98D-06  0.00D+00 EMaxC= 1.00D-01 BMatC= 1.50D-09 BMatP= 1.43D-08
 IDIUse=1 WtCom= 1.00D+00 WtEn= 0.00D+00
 Coeff-Com: -0.831D-05 0.943D-05-0.145D-03 0.108D-03 0.133D-02 0.515D-02
 Coeff-Com:  0.394D-01 0.279D+00 0.676D+00
 Coeff:     -0.831D-05 0.943D-05-0.145D-03 0.108D-03 0.133D-02 0.515D-02
 Coeff:      0.394D-01 0.279D+00 0.676D+00
 Gap=     0.177 Goal=   None    Shift=    0.000
 RMSDP=6.91D-07 MaxDP=1.94D-05 DE=-1.51D-08 OVMax= 1.15D-05

 Cycle  10  Pass 1  IDiag  1:
 E= -592.994681116301     Delta-E=       -0.000000001635 Rises=F Damp=F
 DIIS: error= 4.35D-07 at cycle  10 NSaved=  10.
 NSaved=10 IEnMin=10 EnMin= -592.994681116301     IErMin=10 ErrMin= 4.35D-07
 ErrMax= 4.35D-07  0.00D+00 EMaxC= 1.00D-01 BMatC= 2.46D-11 BMatP= 1.50D-09
 IDIUse=1 WtCom= 1.00D+00 WtEn= 0.00D+00
 Coeff-Com: -0.763D-05 0.651D-05-0.143D-04 0.403D-04 0.282D-05-0.547D-03
 Coeff-Com: -0.150D-02 0.241D-01 0.146D+00 0.831D+00
 Coeff:     -0.763D-05 0.651D-05-0.143D-04 0.403D-04 0.282D-05-0.547D-03
 Coeff:     -0.150D-02 0.241D-01 0.146D+00 0.831D+00
 Gap=     0.177 Goal=   None    Shift=    0.000
 RMSDP=1.54D-07 MaxDP=3.42D-06 DE=-1.64D-09 OVMax= 1.95D-06

 Cycle  11  Pass 1  IDiag  1:
 E= -592.994681116333     Delta-E=       -0.000000000033 Rises=F Damp=F
 DIIS: error= 4.86D-08 at cycle  11 NSaved=  11.
 NSaved=11 IEnMin=11 EnMin= -592.994681116333     IErMin=11 ErrMin= 4.86D-08
 ErrMax= 4.86D-08  0.00D+00 EMaxC= 1.00D-01 BMatC= 2.59D-13 BMatP= 2.46D-11
 IDIUse=1 WtCom= 1.00D+00 WtEn= 0.00D+00
 Coeff-Com: -0.109D-05 0.617D-06-0.767D-05-0.102D-04-0.486D-04-0.145D-03
 Coeff-Com: -0.229D-03-0.220D-02 0.487D-02 0.741D-01 0.924D+00
 Coeff:     -0.109D-05 0.617D-06-0.767D-05-0.102D-04-0.486D-04-0.145D-03
 Coeff:     -0.229D-03-0.220D-02 0.487D-02 0.741D-01 0.924D+00
 Gap=     0.177 Goal=   None    Shift=    0.000
 RMSDP=3.21D-08 MaxDP=6.00D-07 DE=-3.25D-11 OVMax= 3.60D-07

 Cycle  12  Pass 1  IDiag  1:
 E= -592.994681116335     Delta-E=       -0.000000000002 Rises=F Damp=F
 DIIS: error= 6.04D-09 at cycle  12 NSaved=  12.
 NSaved=12 IEnMin=12 EnMin= -592.994681116335     IErMin=12 ErrMin= 6.04D-09
 ErrMax= 6.04D-09  0.00D+00 EMaxC= 1.00D-01 BMatC= 3.69D-15 BMatP= 2.59D-13
 IDIUse=1 WtCom= 1.00D+00 WtEn= 0.00D+00
 Coeff-Com: -0.566D-07 0.141D-07-0.939D-06-0.217D-05-0.886D-05-0.194D-04
 Coeff-Com: -0.379D-04-0.827D-03-0.208D-02-0.763D-03 0.117D+00 0.887D+00
 Coeff:     -0.566D-07 0.141D-07-0.939D-06-0.217D-05-0.886D-05-0.194D-04
 Coeff:     -0.379D-04-0.827D-03-0.208D-02-0.763D-03 0.117D+00 0.887D+00
 Gap=     0.177 Goal=   None    Shift=    0.000
 RMSDP=1.89D-09 MaxDP=3.57D-08 DE=-2.05D-12 OVMax= 4.00D-08

 SCF Done:  E(RB3LYP) =  -592.994681116     A.U. after   12 cycles
            NFock= 12  Conv=0.19D-08     -V/T= 2.0046
 KE= 5.903075500745D+02 PE=-1.628740815914D+03 EE= 3.358707456846D+02
 Leave Link  502 at Sun Oct 13 09:52:07 2024, MaxMem=  2684354560 cpu:              33.7 elap:               1.6
 (Enter /usr/local/g16_AVX//g16/l801.exe)
 DoSCS=F DFT=T ScalE2(SS,OS)=  1.000000  1.000000
 Range of M.O.s used for correlation:     1    98
 NBasis=    98 NAE=    20 NBE=    20 NFC=     0 NFV=     0
 NROrb=     98 NOA=    20 NOB=    20 NVA=    78 NVB=    78

 **** Warning!!: The largest alpha MO coefficient is  0.32110374D+02

 Leave Link  801 at Sun Oct 13 09:52:07 2024, MaxMem=  2684354560 cpu:               0.7 elap:               0.1
 (Enter /usr/local/g16_AVX//g16/l1101.exe)
 Using compressed storage, NAtomX=     7.
 Will process      8 centers per pass.
 Leave Link 1101 at Sun Oct 13 09:52:07 2024, MaxMem=  2684354560 cpu:               3.4 elap:               0.2
 (Enter /usr/local/g16_AVX//g16/l1102.exe)
 Symmetrizing basis deriv contribution to polar:
 IMax=3 JMax=2 DiffMx= 0.00D+00
 Leave Link 1102 at Sun Oct 13 09:52:07 2024, MaxMem=  2684354560 cpu:               0.8 elap:               0.1
 (Enter /usr/local/g16_AVX//g16/l1110.exe)
 Forming Gx(P) for the SCF density, NAtomX=     7.
 Integral derivatives from FoFJK, PRISM(SPDF).
 Do as many integral derivatives as possible in FoFJK.
 G2DrvN: MDV=    2684353864.
 G2DrvN: will do     8 centers at a time, making    1 passes.
 Calling FoFCou, ICntrl=  3107 FMM=F I1Cent=   0 AccDes= 0.00D+00.
 FoFJK:  IHMeth= 1 ICntrl=    3107 DoSepK=F KAlg= 0 I1Cent=           0 FoldK=F
 IRaf=         0 NMat=       1 IRICut=       1 DoRegI=T DoRafI=F ISym2E= 0 IDoP0=0 IntGTp=1.
 FoFCou: FMM=F IPFlag=           0 FMFlag=      100000 FMFlg1=           0
         NFxFlg=           0 DoJE=F BraDBF=F KetDBF=F FulRan=T
         wScrn=  0.000000 ICntrl=      3107 IOpCl=  0 I1Cent=           0 NGrid=           0
         NMat0=    1 NMatS0=      1 NMatT0=    0 NMatD0=    1 NMtDS0=    0 NMtDT0=    0
 Symmetry not used in FoFCou.
 End of G2Drv F.D. properties file   721 does not exist.
 End of G2Drv F.D. properties file   722 does not exist.
 End of G2Drv F.D. properties file   788 does not exist.
 Leave Link 1110 at Sun Oct 13 09:52:09 2024, MaxMem=  2684354560 cpu:              37.4 elap:               1.5
 (Enter /usr/local/g16_AVX//g16/l1002.exe)
 Minotr:  Closed shell wavefunction.
          IDoAtm=1111111
          Direct CPHF calculation.
          Differentiating once with respect to electric field.
                with respect to dipole field.
          Differentiating once with respect to nuclear coordinates.
          Requested convergence is 1.0D-08 RMS, and 1.0D-07 maximum.
          Secondary convergence is 1.0D-12 RMS, and 1.0D-12 maximum.
          NewPWx=T KeepS1=F KeepF1=F KeepIn=T MapXYZ=F SortEE=F KeepMc=T.
         2136 words used for storage of precomputed grid.
 Keep R1 ints in memory in canonical form, NReq=35668397.
 FoFCou: FMM=F IPFlag=           0 FMFlag=           0 FMFlg1=           0
         NFxFlg=           0 DoJE=F BraDBF=F KetDBF=F FulRan=T
         wScrn=  0.000000 ICntrl=       600 IOpCl=  0 I1Cent=           0 NGrid=           0
         NMat0=    1 NMatS0=   4851 NMatT0=    0 NMatD0=    1 NMtDS0=    0 NMtDT0=    0
 Symmetry not used in FoFCou.
 Two-electron integral symmetry not used.
          MDV=    2684354560 using IRadAn=       1.
          Solving linear equations simultaneously, MaxMat=       0.
          There are    24 degrees of freedom in the 1st order CPHF.  IDoFFX=6 NUNeed=     3.
     21 vectors produced by pass  0 Test12= 6.50D-15 4.17D-09 XBig12= 8.04D+01 4.30D+00.
 AX will form    21 AO Fock derivatives at one time.
     21 vectors produced by pass  1 Test12= 6.50D-15 4.17D-09 XBig12= 4.64D+01 2.13D+00.
     21 vectors produced by pass  2 Test12= 6.50D-15 4.17D-09 XBig12= 1.47D+00 3.22D-01.
     21 vectors produced by pass  3 Test12= 6.50D-15 4.17D-09 XBig12= 3.35D-02 5.55D-02.
     21 vectors produced by pass  4 Test12= 6.50D-15 4.17D-09 XBig12= 8.81D-05 2.39D-03.
     16 vectors produced by pass  5 Test12= 6.50D-15 4.17D-09 XBig12= 1.85D-07 9.32D-05.
      6 vectors produced by pass  6 Test12= 6.50D-15 4.17D-09 XBig12= 2.11D-10 3.28D-06.
      1 vectors produced by pass  7 Test12= 6.50D-15 4.17D-09 XBig12= 2.65D-13 1.41D-07.
      1 vectors produced by pass  8 Test12= 6.50D-15 4.17D-09 XBig12= 4.21D-16 5.06D-09.
 InvSVY:  IOpt=1 It=  1 EMax= 6.22D-15
 Solved reduced A of dimension   129 with    24 vectors.
 FullF1:  Do perturbations      1 to       3.
 Isotropic polarizability for W=    0.000000       56.00 Bohr**3.
 End of Minotr F.D. properties file   721 does not exist.
 End of Minotr F.D. properties file   722 does not exist.
 End of Minotr F.D. properties file   788 does not exist.
 Leave Link 1002 at Sun Oct 13 09:52:11 2024, MaxMem=  2684354560 cpu:              50.3 elap:               2.0
 (Enter /usr/local/g16_AVX//g16/l601.exe)
 Copying SCF densities to generalized density rwf, IOpCl= 0 IROHF=0.

 **********************************************************************

            Population analysis using the SCF Density.

 **********************************************************************

 Alpha  occ. eigenvalues -- -101.41208 -14.09431 -10.10173  -9.95975  -9.32830
 Alpha  occ. eigenvalues --   -7.09134  -7.08294  -7.08294  -0.71775  -0.64732
 Alpha  occ. eigenvalues --   -0.54054  -0.30860  -0.30854  -0.27854  -0.18238
 Alpha  occ. eigenvalues --   -0.17670  -0.17669  -0.09644  -0.09644  -0.06874
 Alpha virt. eigenvalues --    0.10842   0.12663   0.14439   0.14443   0.17319
 Alpha virt. eigenvalues --    0.20226   0.20248   0.20249   0.22027   0.22044
 Alpha virt. eigenvalues --    0.24026   0.24884   0.24894   0.27016   0.27617
 Alpha virt. eigenvalues --    0.27628   0.31338   0.33319   0.33333   0.36072
 Alpha virt. eigenvalues --    0.38565   0.38577   0.38801   0.46428   0.47935
 Alpha virt. eigenvalues --    0.64545   0.72812   0.74334   0.74336   0.77216
 Alpha virt. eigenvalues --    0.77228   0.87583   0.89684   0.89687   0.97452
 Alpha virt. eigenvalues --    0.99251   0.99255   1.04328   1.04336   1.08180
 Alpha virt. eigenvalues --    1.09376   1.09377   1.12417   1.18975   1.18982
 Alpha virt. eigenvalues --    1.22425   1.26670   1.37148   1.46493   1.60052
 Alpha virt. eigenvalues --    1.60060   1.74196   1.78245   1.78246   1.80455
 Alpha virt. eigenvalues --    1.80458   2.15599   2.20213   2.20216   2.21608
 Alpha virt. eigenvalues --    2.21627   2.29397   2.48727   2.48729   2.67685
 Alpha virt. eigenvalues --    2.82011   2.83520   2.83523   2.95271   2.95294
 Alpha virt. eigenvalues --    3.25734   3.38155   3.55475   3.55507   4.20879
 Alpha virt. eigenvalues --    4.41113   4.45531   4.57033
          Condensed to atoms (all electrons):
               1          2          3          4          5          6
     1  C    5.365408  -0.030209   0.412073   0.412068   0.412064  -0.133151
     2  Cl  -0.030209  17.317106  -0.047851  -0.048547  -0.048556   0.052414
     3  H    0.412073  -0.047851   0.506347  -0.023037  -0.023034  -0.039856
     4  H    0.412068  -0.048547  -0.023037   0.506746  -0.023079  -0.038777
     5  H    0.412064  -0.048556  -0.023034  -0.023079   0.506755  -0.038762
     6  C   -0.133151   0.052414  -0.039856  -0.038777  -0.038762   6.054841
     7  N   -0.001625  -0.001800   0.000752   0.000687   0.000687   0.658000
               7
     1  C   -0.001625
     2  Cl  -0.001800
     3  H    0.000752
     4  H    0.000687
     5  H    0.000687
     6  C    0.658000
     7  N    6.841877
 Mulliken charges:
               1
     1  C   -0.436628
     2  Cl  -0.192557
     3  H    0.214607
     4  H    0.213939
     5  H    0.213925
     6  C   -0.514709
     7  N   -0.498577
 Sum of Mulliken charges =  -1.00000
 Mulliken charges with hydrogens summed into heavy atoms:
               1
     1  C    0.205843
     2  Cl  -0.192557
     6  C   -0.514709
     7  N   -0.498577
 APT charges:
               1
     1  C    0.584317
     2  Cl  -0.624394
     3  H    0.017334
     4  H    0.016841
     5  H    0.016826
     6  C   -0.393312
     7  N   -0.617611
 Sum of APT charges =  -1.00000
 APT charges with hydrogens summed into heavy atoms:
               1
     1  C    0.635317
     2  Cl  -0.624394
     6  C   -0.393312
     7  N   -0.617611
 Electronic spatial extent (au):  <R**2>=            912.6696
 Charge=             -1.0000 electrons
 Dipole moment (field-independent basis, Debye):
    X=            -10.3869    Y=             -0.0001    Z=              0.0063  Tot=             10.3869
 Quadrupole moment (field-independent basis, Debye-Ang):
   XX=            -91.8705   YY=            -35.4551   ZZ=            -35.4548
   XY=              0.0000   XZ=              0.0050   YZ=             -0.0000
 Traceless Quadrupole moment (field-independent basis, Debye-Ang):
   XX=            -37.6103   YY=             18.8050   ZZ=             18.8053
   XY=              0.0000   XZ=              0.0050   YZ=             -0.0000
 Octapole moment (field-independent basis, Debye-Ang**2):
  XXX=           -197.0867  YYY=             -0.0064  ZZZ=             -0.8608  XYY=            -12.4039
  XXY=              0.0002  XXZ=             -0.0107  XZZ=            -12.4009  YZZ=              0.0059
  YYZ=              0.8842  XYZ=              0.0000
 Hexadecapole moment (field-independent basis, Debye-Ang**3):
 XXXX=          -2009.0626 YYYY=            -56.1791 ZZZZ=            -56.1798 XXXY=              0.0005
 XXXZ=              0.0449 YYYX=             -0.0022 YYYZ=             -0.0001 ZZZX=              0.0892
 ZZZY=             -0.0000 XXYY=           -236.1014 XXZZ=           -236.1001 YYZZ=            -18.7225
 XXYZ=              0.0000 YYXZ=              0.0653 ZZXY=             -0.0005
 N-N= 1.095678390382D+02 E-N=-1.628740815757D+03  KE= 5.903075500745D+02
  Exact polarizability:  87.923  -0.000  40.045   0.027   0.000  40.041
 Approx polarizability: 108.437  -0.001  49.824   0.066   0.000  49.819
 No NMR shielding tensors so no spin-rotation constants.
 Leave Link  601 at Sun Oct 13 09:52:11 2024, MaxMem=  2684354560 cpu:               2.6 elap:               0.1
 (Enter /usr/local/g16_AVX//g16/l701.exe)
 ... and contract with generalized density number  0.
 Compute integral second derivatives.
 Leave Link  701 at Sun Oct 13 09:52:11 2024, MaxMem=  2684354560 cpu:               4.6 elap:               0.2
 (Enter /usr/local/g16_AVX//g16/l702.exe)
 L702 exits ... SP integral derivatives will be done elsewhere.
 Leave Link  702 at Sun Oct 13 09:52:11 2024, MaxMem=  2684354560 cpu:               0.6 elap:               0.1
 (Enter /usr/local/g16_AVX//g16/l703.exe)
 Integral derivatives from FoFJK, PRISM(SPDF).
 Compute integral second derivatives, UseDBF=F ICtDFT=           0.
 Calling FoFJK, ICntrl=    100127 FMM=F ISym2X=0 I1Cent= 0 IOpClX= 0 NMat=1 NMatS=1 NMatT=0.
 FoFJK:  IHMeth= 1 ICntrl=  100127 DoSepK=F KAlg= 0 I1Cent=           0 FoldK=F
 IRaf=         0 NMat=       1 IRICut=       1 DoRegI=T DoRafI=F ISym2E= 0 IDoP0=0 IntGTp=1.
 FoFCou: FMM=F IPFlag=           0 FMFlag=      100000 FMFlg1=         800
         NFxFlg=           0 DoJE=F BraDBF=F KetDBF=F FulRan=T
         wScrn=  0.000000 ICntrl=    100127 IOpCl=  0 I1Cent=           0 NGrid=           0
         NMat0=    1 NMatS0=      1 NMatT0=    0 NMatD0=    1 NMtDS0=    0 NMtDT0=    0
 Symmetry not used in FoFCou.
 Leave Link  703 at Sun Oct 13 09:52:14 2024, MaxMem=  2684354560 cpu:              65.4 elap:               2.6
 (Enter /usr/local/g16_AVX//g16/l716.exe)
 Dipole        =-4.08653045D+00-2.89763695D-05 2.48695895D-03
 Polarizability= 8.79229428D+01-1.63379835D-04 4.00451586D+01
                 2.74399155D-02 3.01817874D-05 4.00408161D+01
 Full mass-weighted force constant matrix:
 Low frequencies ---  -70.3795  -70.3082  -35.7991  -35.7150   -0.0064   -0.0037
 Low frequencies ---   -0.0029   91.6080   91.7868
 ******    2 imaginary frequencies (negative Signs) ****** 
 Diagonal vibrational polarizability:
       89.4278142      39.6598601      39.8408210
 Harmonic frequencies (cm**-1), IR intensities (KM/Mole), Raman scattering
 activities (A**4/AMU), depolarization ratios for plane and unpolarized
 incident light, reduced masses (AMU), force constants (mDyne/A),
 and normal coordinates:
                      1                      2                      3
                      A                      A                      A
 Frequencies --    -69.7913               -69.7305                90.2579
 Red. masses --      8.4323                 8.4351                 3.8271
 Frc consts  --      0.0242                 0.0242                 0.0184
 IR Inten    --      0.0990                 0.0982                11.8675
  Atom  AN      X      Y      Z        X      Y      Z        X      Y      Z
     1   6    -0.00  -0.01   0.26    -0.00   0.26   0.01    -0.00  -0.02   0.38
     2  17    -0.00   0.00  -0.12    -0.00  -0.12  -0.00    -0.00   0.00  -0.10
     3   1     0.21  -0.01   0.33     0.01   0.33   0.01     0.27  -0.02   0.48
     4   1    -0.10  -0.01   0.33    -0.18   0.33   0.01    -0.13  -0.01   0.46
     5   1    -0.11  -0.01   0.33     0.18   0.33   0.02    -0.15  -0.03   0.46
     6   6    -0.00  -0.02   0.55    -0.00   0.55   0.02     0.00   0.01  -0.28
     7   7     0.00   0.02  -0.47     0.00  -0.47  -0.02     0.00  -0.00   0.05
                      4                      5                      6
                      A                      A                      A
 Frequencies --     90.4653               138.4894               619.6270
 Red. masses --      3.8285                11.8853                 9.1240
 Frc consts  --      0.0185                 0.1343                 2.0639
 IR Inten    --     11.8639                51.9767               229.3142
  Atom  AN      X      Y      Z        X      Y      Z        X      Y      Z
     1   6    -0.00   0.38   0.02    -0.31   0.00  -0.00     0.70   0.00   0.00
     2  17    -0.00  -0.10  -0.00    -0.28  -0.00   0.00    -0.28  -0.00  -0.00
     3   1     0.01   0.46   0.02    -0.28   0.00  -0.00     0.36   0.00  -0.10
     4   1    -0.24   0.47   0.04    -0.27  -0.00  -0.01     0.37   0.08   0.05
     5   1     0.23   0.47   0.00    -0.27   0.00  -0.01     0.36  -0.08   0.05
     6   6     0.00  -0.28  -0.01     0.55  -0.00   0.00     0.01   0.00  -0.00
     7   7     0.00   0.05   0.00     0.55  -0.00   0.00     0.01  -0.00   0.00
                      7                      8                      9
                      A                      A                      A
 Frequencies --   1009.8783              1010.4572              1319.2345
 Red. masses --      1.1509                 1.1506                 1.0968
 Frc consts  --      0.6915                 0.6922                 1.1247
 IR Inten    --      0.2568                 0.2564                17.8367
  Atom  AN      X      Y      Z        X      Y      Z        X      Y      Z
     1   6     0.00   0.00  -0.11    -0.00   0.11   0.00    -0.08   0.00   0.00
     2  17    -0.00  -0.00   0.02     0.00  -0.02  -0.00    -0.02  -0.00  -0.00
     3   1     0.77  -0.00   0.13    -0.00  -0.23  -0.00     0.55  -0.00   0.18
     4   1    -0.38  -0.04   0.20     0.67  -0.16   0.04     0.55  -0.15  -0.09
     5   1    -0.39   0.04   0.20    -0.66  -0.16  -0.04     0.55   0.15  -0.09
     6   6    -0.00  -0.00   0.00    -0.00  -0.00  -0.00    -0.00   0.00   0.00
     7   7    -0.00   0.00  -0.00    -0.00   0.00   0.00    -0.00   0.00  -0.00
                     10                     11                     12
                      A                      A                      A
 Frequencies --   1461.0553              1461.1012              2149.7921
 Red. masses --      1.0611                 1.0611                12.8337
 Frc consts  --      1.3345                 1.3346                34.9458
 IR Inten    --      7.6599                 7.6512                17.1797
  Atom  AN      X      Y      Z        X      Y      Z        X      Y      Z
     1   6    -0.00  -0.02  -0.06     0.00  -0.06   0.02    -0.00  -0.00   0.00
     2  17    -0.00  -0.00  -0.00     0.00  -0.00   0.00     0.00  -0.00   0.00
     3   1    -0.26   0.27  -0.12     0.10   0.70   0.05    -0.01   0.00  -0.01
     4   1     0.22  -0.33   0.36     0.18   0.22  -0.55    -0.01   0.00   0.00
     5   1     0.04   0.39   0.63    -0.28  -0.05   0.17    -0.01  -0.00   0.00
     6   6    -0.00  -0.00  -0.00     0.00  -0.00   0.00     0.76  -0.00   0.00
     7   7    -0.00   0.00   0.00     0.00   0.00  -0.00    -0.65   0.00  -0.00
                     13                     14                     15
                      A                      A                      A
 Frequencies --   3129.1466              3253.7546              3254.5354
 Red. masses --      1.0249                 1.1115                 1.1115
 Frc consts  --      5.9128                 6.9331                 6.9364
 IR Inten    --     12.7388                 0.2880                 0.2691
  Atom  AN      X      Y      Z        X      Y      Z        X      Y      Z
     1   6     0.04   0.00   0.00     0.00  -0.10  -0.01     0.00   0.01  -0.10
     2  17    -0.00  -0.00  -0.00    -0.00   0.00   0.00    -0.00  -0.00   0.00
     3   1    -0.16  -0.00   0.55    -0.02  -0.02   0.07    -0.24   0.00   0.78
     4   1    -0.16  -0.48  -0.28     0.21   0.60   0.36     0.10   0.29   0.15
     5   1    -0.16   0.48  -0.28    -0.19   0.55  -0.33     0.14  -0.39   0.21
     6   6     0.00  -0.00  -0.00     0.00   0.00   0.00     0.00  -0.00   0.00
     7   7     0.00   0.00   0.00     0.00  -0.00  -0.00     0.00   0.00  -0.00

 -------------------
 - Thermochemistry -
 -------------------
 Temperature   298.150 Kelvin.  Pressure   1.00000 Atm.
 Atom     1 has atomic number  6 and mass  12.00000
 Atom     2 has atomic number 17 and mass  34.96885
 Atom     3 has atomic number  1 and mass   1.00783
 Atom     4 has atomic number  1 and mass   1.00783
 Atom     5 has atomic number  1 and mass   1.00783
 Atom     6 has atomic number  6 and mass  12.00000
 Atom     7 has atomic number  7 and mass  14.00307
 Molecular mass:    75.99540 amu.
 Principal axes and moments of inertia in atomic units:
                           1         2         3
     Eigenvalues --    11.514871583.272581583.27467
           X            1.00000  -0.00000   0.00012
           Y            0.00000   1.00000   0.00276
           Z           -0.00012  -0.00276   1.00000
 This molecule is an asymmetric top.
 Rotational symmetry number  1.
 Rotational temperatures (Kelvin)      7.52192     0.05471     0.05471
 Rotational constants (GHZ):         156.73141     1.13988     1.13988
    2 imaginary frequencies ignored.
 Zero-point vibrational energy     113572.2 (Joules/Mol)
                                   27.14442 (Kcal/Mol)
 Warning -- explicit consideration of   4 degrees of freedom as
           vibrations may cause significant error
 Vibrational temperatures:    129.86   130.16   199.26   891.51  1452.99
          (Kelvin)           1453.82  1898.08  2102.13  2102.20  3093.07
                             4502.14  4681.43  4682.55
 
 Zero-point correction=                           0.043257 (Hartree/Particle)
 Thermal correction to Energy=                    0.048503
 Thermal correction to Enthalpy=                  0.049447
 Thermal correction to Gibbs Free Energy=         0.014025
 Sum of electronic and zero-point Energies=           -592.951424
 Sum of electronic and thermal Energies=              -592.946179
 Sum of electronic and thermal Enthalpies=            -592.945234
 Sum of electronic and thermal Free Energies=         -592.980656
 
                     E (Thermal)             CV                S
                      KCal/Mol        Cal/Mol-Kelvin    Cal/Mol-Kelvin
 Total                   30.436             13.829             74.550
 Electronic               0.000              0.000              0.000
 Translational            0.889              2.981             38.900
 Rotational               0.889              2.981             24.871
 Vibrational             28.658              7.867             10.779
 Vibration     1          0.602              1.956              3.654
 Vibration     2          0.602              1.956              3.650
 Vibration     3          0.614              1.915              2.825
 Vibration     4          0.980              0.990              0.417
                       Q            Log10(Q)             Ln(Q)
 Total Bot       0.353804D-06         -6.451237        -14.854523
 Total V=0       0.279099D+14         13.445759         30.960003
 Vib (Bot)       0.223407D-18        -18.650903        -42.945292
 Vib (Bot)    1  0.227787D+01          0.357528          0.823240
 Vib (Bot)    2  0.227256D+01          0.356516          0.820908
 Vib (Bot)    3  0.146883D+01          0.166973          0.384469
 Vib (Bot)    4  0.236107D+00         -0.626892         -1.443472
 Vib (V=0)       0.176235D+02          1.246093          2.869234
 Vib (V=0)    1  0.283210D+01          0.452108          1.041018
 Vib (V=0)    2  0.282692D+01          0.451313          1.039187
 Vib (V=0)    3  0.205160D+01          0.312093          0.718622
 Vib (V=0)    4  0.105294D+01          0.022405          0.051589
 Electronic      0.100000D+01          0.000000          0.000000
 Translational   0.260396D+08          7.415635         17.075130
 Rotational      0.608178D+05          4.784031         11.015639
 
                                                       RxCoord=3.79756 DE=45.74
                                                             IR Spectrum
 
      3   3                                      2                         1     1           1                                       
      2   1                                      1                         4     3           0              6                  1     
      5   2                                      5                         6     1           1              2                  3 9   
      4   9                                      0                         1     9           0              0                  8 0   
 
      X   X                                      X                         X     X           X              X                  X X   
                                                                                 X                          X                  X X   
                                                                                                            X                  X     
                                                                                                            X                  X     
                                                                                                            X                  X     
                                                                                                            X                        
                                                                                                            X                        
                                                                                                            X                        
                                                                                                            X                        
                                                                                                            X                        
                                                                                                            X                        
                                                                                                            X                        
                                                                                                            X                        
                                                                                                            X                        
                                                                                                            X                        
                                                                                                            X                        
                                                                                                            X                        
                                                                                                            X                        
                                                                                                            X                        
                                                                                                            X                        
 
 -------------------------------------------------------------------
 Center     Atomic                   Forces (Hartrees/Bohr)
 Number     Number              X              Y              Z
 -------------------------------------------------------------------
      1        6           0.005153414    0.000012146    0.000028396
      2       17          -0.012124339    0.000002072   -0.000000373
      3        1           0.001191428   -0.000003197    0.000879530
      4        1           0.001194305   -0.000811424   -0.000464016
      5        1           0.001204282    0.000800531   -0.000454213
      6        6           0.000320135   -0.000000044    0.000007649
      7        7           0.003060776   -0.000000084    0.000003027
 -------------------------------------------------------------------
 Cartesian Forces:  Max     0.012124339 RMS     0.003006499
 Z-matrix is all fixed cartesians, so copy forces.
 Force constants in Cartesian coordinates: 
                1             2             3             4             5 
      1  0.257459D+00
      2 -0.291123D-05  0.599938D+00
      3 -0.402214D-03 -0.292475D-04  0.600117D+00
      4 -0.947000D-01  0.190927D-05 -0.682829D-04  0.180471D+00
      5  0.000000D+00 -0.334686D-01  0.000000D+00 -0.303092D-05  0.182477D-01
      6 -0.670479D-04  0.000000D+00 -0.334830D-01  0.159330D-03  0.000000D+00
      7 -0.560168D-01 -0.193699D-03  0.848923D-01 -0.247743D-01 -0.452603D-04
      8 -0.191333D-03 -0.495936D-01  0.633113D-03  0.141234D-04  0.618446D-03
      9  0.837233D-01  0.633868D-03 -0.326109D+00 -0.600041D-02 -0.178197D-04
     10 -0.558050D-01 -0.729470D-01 -0.423635D-01 -0.247584D-01 -0.171783D-01
     11 -0.719475D-01 -0.256394D+00 -0.120061D+00  0.513420D-02  0.643906D-02
     12 -0.417697D-01 -0.120056D+00 -0.119317D+00  0.295410D-02  0.335703D-02
     13 -0.557941D-01  0.731411D-01 -0.420293D-01 -0.247626D-01  0.172261D-01
     14  0.721400D-01 -0.257529D+00  0.119458D+00 -0.514683D-02  0.646909D-02
     15 -0.414411D-01  0.119451D+00 -0.118232D+00  0.293058D-02 -0.333887D-02
     16 -0.848570D-03  0.000000D+00 -0.192859D-04 -0.540265D-02  0.000000D+00
     17  0.140270D-05 -0.378906D-02  0.000000D+00  0.000000D+00  0.202901D-02
     18 -0.713306D-04  0.000000D+00 -0.382166D-02  0.499502D-04  0.000000D+00
     19  0.570577D-02  0.000000D+00 -0.964737D-05 -0.607322D-02  0.000000D+00
     20  0.000000D+00  0.835535D-03  0.000000D+00  0.000000D+00 -0.334692D-03
     21  0.280074D-04  0.000000D+00  0.844879D-03 -0.252696D-04  0.000000D+00
                6             7             8             9            10 
      6  0.182439D-01
      7  0.198116D-01  0.742839D-01
      8 -0.182555D-04  0.200487D-03  0.460536D-01
      9  0.842756D-02 -0.875244D-01 -0.668748D-03  0.338233D+00
     10 -0.999563D-02  0.428578D-02  0.734505D-02  0.433413D-02  0.740272D-01
     11  0.338086D-02 -0.464975D-04  0.209806D-02  0.240959D-02  0.752382D-01
     12  0.257115D-02 -0.849282D-02 -0.250969D-01 -0.111356D-01  0.437019D-01
     13 -0.991821D-02  0.428554D-02 -0.736587D-02  0.430043D-02  0.427614D-02
     14 -0.336230D-02  0.846087D-04  0.199520D-02 -0.235056D-02  0.737186D-02
     15  0.254090D-02 -0.849209D-02  0.251571D-01 -0.110309D-01  0.422121D-02
     16  0.757412D-05 -0.227783D-02 -0.102213D-05  0.485204D-03 -0.223413D-02
     17  0.000000D+00  0.000000D+00 -0.147186D-02 -0.798203D-05  0.984131D-04
     18  0.203538D-02 -0.110595D-03 -0.796751D-05  0.206372D-02  0.596831D-04
     19  0.238401D-05  0.213819D-03 -0.144223D-05  0.681753D-03  0.208377D-03
     20  0.000000D+00  0.000000D+00  0.300151D-03  0.165349D-05  0.717719D-04
     21 -0.335876D-03 -0.839374D-04  0.167393D-05 -0.448908D-03  0.422129D-04
               11            12            13            14            15 
     11  0.264580D+00
     12  0.126884D+00  0.119712D+00
     13 -0.739237D-02  0.418799D-02  0.740202D-01
     14 -0.176381D-01  0.137017D-01 -0.754383D-01  0.265777D+00
     15 -0.138227D-01  0.862742D-02  0.433580D-01 -0.126243D+00  0.118563D+00
     16 -0.408906D-03 -0.240271D-03 -0.223329D-02  0.410026D-03 -0.238301D-03
     17  0.117662D-02  0.153616D-02 -0.988146D-04  0.119095D-02 -0.152804D-02
     18  0.153706D-02 -0.562909D-03  0.591842D-04 -0.152895D-02 -0.576796D-03
     19 -0.577130D-03 -0.341238D-03  0.208179D-03  0.578568D-03 -0.338391D-03
     20 -0.261826D-03 -0.325998D-03 -0.719386D-04 -0.264924D-03  0.324293D-03
     21 -0.327365D-03  0.104697D-03  0.418750D-04  0.325639D-03  0.107648D-03
               16            17            18            19            20 
     16  0.113944D+01
     17 -0.508422D-04  0.940016D-04
     18  0.270713D-02  0.000000D+00  0.956946D-04
     19 -0.112645D+01  0.505023D-04 -0.269402D-02  0.112619D+01
     20  0.506043D-04  0.770344D-03  0.000000D+00 -0.505566D-04 -0.104459D-02
     21 -0.270205D-02  0.000000D+00  0.766580D-03  0.269916D-02  0.000000D+00
               21 
     21 -0.103902D-02
 Leave Link  716 at Sun Oct 13 09:52:14 2024, MaxMem=  2684354560 cpu:               0.9 elap:               0.1
 (Enter /usr/local/g16_AVX//g16/l103.exe)

 GradGradGradGradGradGradGradGradGradGradGradGradGradGradGradGradGradGrad
 Berny optimization.
 Search for a local minimum.
 Step number   1 out of a maximum of    2
 All quantities printed in internal units (Hartrees-Bohrs-Radians)
 Second derivative matrix not updated -- analytic derivatives used.
 ITU=  0
     Eigenvalues ---   -0.00203  -0.00202   0.00154   0.00155   0.00834
     Eigenvalues ---    0.06227   0.06230   0.10941   0.10942   0.11542
     Eigenvalues ---    0.21705   0.49581   0.88728   0.88763   2.25828
 Eigenvalue     1 is  -2.03D-03 should be greater than     0.000000 Eigenvector:
                          Z6        Z7        Z2        Z4        Z5
   1                    0.63873  -0.60953  -0.20936   0.19412   0.19407
                          Z3        X3        Z1        X5        X4
   1                    0.19078   0.17482   0.13567  -0.09080  -0.08592
 Eigenvalue     2 is  -2.02D-03 should be greater than     0.000000 Eigenvector:
                          Y6        Y7        Y2        Y3        Y5
   1                    0.63855  -0.60949  -0.20942   0.19482   0.19232
                          Y4        X4        X5        Y1        Z6
   1                    0.19227  -0.15344   0.15066   0.13574   0.01167
 Angle between quadratic step and forces=  68.78 degrees.
 Linear search not attempted -- first point.
 B after Tr=     0.005322   -0.000004    0.001396
         Rot=    1.000000   -0.000000   -0.000063    0.000000 Ang=  -0.01 deg.
 Variable       Old X    -DE/DX   Delta X   Delta X   Delta X     New X
                                 (Linear)    (Quad)   (Total)
    X1       -0.72548   0.00515   0.00000  -0.06607  -0.06075  -0.78623
    Y1       -0.00002   0.00001   0.00000   0.00002   0.00002  -0.00000
    Z1        0.00315   0.00003   0.00000  -0.00327  -0.00177   0.00138
    X2       -4.18291  -0.01212   0.00000  -0.11538  -0.11006  -4.29297
    Y2       -0.00001   0.00000   0.00000  -0.00000  -0.00000  -0.00001
    Z2       -0.00016  -0.00000   0.00000   0.00229   0.00422   0.00407
    X3       -0.09534   0.00119   0.00000  -0.06155  -0.05647  -0.15182
    Y3        0.00444  -0.00000   0.00000   0.00001   0.00001   0.00445
    Z3       -1.94750   0.00088   0.00000  -0.00171  -0.00030  -1.94780
    X4       -0.09854   0.00119   0.00000  -0.05652  -0.05107  -0.14961
    Y4        1.68798  -0.00081   0.00000  -0.00268  -0.00268   1.68529
    Z4        0.98329  -0.00046   0.00000  -0.00556  -0.00415   0.97914
    X5       -0.09868   0.00120   0.00000  -0.05638  -0.05093  -0.14961
    Y5       -1.69248   0.00080   0.00000   0.00272   0.00272  -1.68976
    Z5        0.97556  -0.00045   0.00000  -0.00555  -0.00414   0.97142
    X6        4.77007   0.00032   0.00000   0.15806   0.16338   4.93346
    Y6        0.00008  -0.00000   0.00000  -0.00008  -0.00009  -0.00001
    Z6       -0.00457   0.00001   0.00000   0.00733   0.00811   0.00354
    X7        7.00070   0.00306   0.00000   0.16058   0.16590   7.16660
    Y7       -0.00002  -0.00000   0.00000   0.00004   0.00003   0.00000
    Z7        0.00079   0.00000   0.00000  -0.00248  -0.00198  -0.00119
         Item               Value     Threshold  Converged?
 Maximum Force            0.012124     0.000450     NO 
 RMS     Force            0.003006     0.000300     NO 
 Maximum Displacement     0.165902     0.001800     NO 
 RMS     Displacement     0.061161     0.001200     NO 
 Predicted change in Energy=-6.998788D-04
 GradGradGradGradGradGradGradGradGradGradGradGradGradGradGradGradGradGrad

 Leave Link  103 at Sun Oct 13 09:52:14 2024, MaxMem=  2684354560 cpu:               0.6 elap:               0.1
 (Enter /usr/local/g16_AVX//g16/l9999.exe)

 ----------------------------------------------------------------------

 Electric dipole moment (input orientation):
 (Debye = 10**-18 statcoulomb cm , SI units = C m)
                  (au)            (Debye)         (10**-30 SI)
   Tot        0.408653D+01      0.103869D+02      0.346471D+02
   x         -0.408653D+01     -0.103869D+02     -0.346470D+02
   y         -0.289764D-04     -0.736506D-04     -0.245672D-03
   z          0.248696D-02      0.632122D-02      0.210853D-01

 Dipole polarizability, Alpha (input orientation).
 (esu units = cm**3 , SI units = C**2 m**2 J**-1)
 Alpha(0;0):
               (au)            (10**-24 esu)      (10**-40 SI)
   iso        0.560030D+02      0.829878D+01      0.923364D+01
   aniso      0.478800D+02      0.709508D+01      0.789434D+01
   xx         0.879229D+02      0.130288D+02      0.144965D+02
   yx        -0.163380D-03     -0.242104D-04     -0.269377D-04
   yy         0.400452D+02      0.593408D+01      0.660255D+01
   zx         0.274399D-01      0.406618D-02      0.452423D-02
   zy         0.301818D-04      0.447248D-05      0.497630D-05
   zz         0.400408D+02      0.593344D+01      0.660184D+01

 ----------------------------------------------------------------------

 Dipole orientation:
     6          0.00271055         -0.00001751          0.72548465
    17         -0.00270246          0.00002208          4.18290791
     1         -1.94756031          0.00442961          0.09415899
     1          0.98321664          1.68798285          0.09912619
     1          0.97551153         -1.69247267          0.09928529
     6         -0.00166263          0.00004364         -4.77007504
     7          0.00504846         -0.00007228         -7.00069841

 Electric dipole moment (dipole orientation):
 (Debye = 10**-18 statcoulomb cm , SI units = C m)
                  (au)            (Debye)         (10**-30 SI)
   Tot        0.408653D+01      0.103869D+02      0.346471D+02
   x          0.000000D+00      0.000000D+00      0.000000D+00
   y          0.000000D+00      0.000000D+00      0.000000D+00
   z          0.408653D+01      0.103869D+02      0.346471D+02

 Dipole polarizability, Alpha (dipole orientation).
 (esu units = cm**3 , SI units = C**2 m**2 J**-1)
 Alpha(0;0):
               (au)            (10**-24 esu)      (10**-40 SI)
   iso        0.560030D+02      0.829878D+01      0.923364D+01
   aniso      0.478800D+02      0.709508D+01      0.789434D+01
   xx         0.400409D+02      0.593344D+01      0.660185D+01
   yx         0.296508D-04      0.439379D-05      0.488875D-05
   yy         0.400452D+02      0.593408D+01      0.660255D+01
   zx        -0.565797D-01     -0.838425D-02     -0.932874D-02
   zy         0.502484D-03      0.744604D-04      0.828484D-04
   zz         0.879229D+02      0.130288D+02      0.144965D+02

 ----------------------------------------------------------------------
 1\1\GINC-NODO10\Freq\RB3LYP\6-31++G(d,p)\C2H3Cl1N1(1-)\ALANQF\13-Oct-2
 024\0\\#p b3lyp 6-31++g(d,p) scf=verytight NoSymm freq=noraman int=ult
 rafine\\RxCoord=3.79756 DE=45.74\\-1,1\C,-0.383909,-0.000012,0.001668\
 Cl,-2.2135,-0.000004,-0.000083\H,-0.050454,0.002351,-1.030574\H,-0.052
 145,0.893238,0.520334\H,-0.052219,-0.895622,0.516244\C,2.524214,0.0000
 41,-0.002416\N,3.704611,-0.000012,0.000417\\Version=ES64L-G16RevB.01\H
 F=-592.9946811\RMSD=1.887e-09\RMSF=3.006e-03\ZeroPoint=0.0432574\Therm
 al=0.0485025\Dipole=-4.0385707,-0.0000295,0.0026335\DipoleDeriv=1.6274
 807,0.0000129,0.0004463,-0.0000088,0.0631061,0.0000052,0.0011758,0.000
 0051,0.0623631,-1.3106525,-0.0000026,-0.0001058,-0.0000072,-0.2812662,
 0.000001,-0.0006204,0.000001,-0.2812632,-0.024649,-0.0000045,0.0022601
 ,-0.0000483,0.08307,0.000202,0.0233918,0.0002028,-0.0064196,-0.025522,
 -0.0022008,-0.0014751,-0.020649,0.0156491,-0.0391466,-0.0123482,-0.039
 1195,0.0603947,-0.025562,0.002201,-0.0014606,0.0207177,0.0152891,0.038
 9375,-0.0122547,0.0389096,0.0607504,-0.2315668,-0.0000175,0.0009085,-0
 .0000358,-0.4742165,0.0000011,0.0024218,0.0000012,-0.4741523,-1.009528
 2,0.0000116,-0.0005733,0.0000313,-0.4216317,-0.0000002,-0.0017661,-0.0
 000002,-0.421673\Polar=87.9229428,-0.0001634,40.0451586,0.0274399,0.00
 00302,40.0408161\Quadrupole=-27.9623657,13.9810919,13.9812738,0.000015
 1,0.0037274,-0.0000121\PG=C01 [X(C2H3Cl1N1)]\NImag=2\\0.25745874,-0.00
 000291,0.59993825,-0.00040221,-0.00002925,0.60011698,-0.09470005,0.000
 00191,-0.00006828,0.18047130,0.00000086,-0.03346864,0.,-0.00000303,0.0
 1824773,-0.00006705,0.00000003,-0.03348302,0.00015933,-0.00000038,0.01
 824391,-0.05601685,-0.00019370,0.08489225,-0.02477431,-0.00004526,0.01
 981160,0.07428385,-0.00019133,-0.04959357,0.00063311,0.00001412,0.0006
 1845,-0.00001826,0.00020049,0.04605356,0.08372330,0.00063387,-0.326108
 74,-0.00600041,-0.00001782,0.00842756,-0.08752440,-0.00066875,0.338232
 95,-0.05580497,-0.07294699,-0.04236351,-0.02475842,-0.01717833,-0.0099
 9563,0.00428578,0.00734505,0.00433413,0.07402724,-0.07194752,-0.256393
 55,-0.12006139,0.00513420,0.00643906,0.00338086,-0.00004650,0.00209806
 ,0.00240959,0.07523823,0.26457978,-0.04176966,-0.12005586,-0.11931677,
 0.00295410,0.00335703,0.00257115,-0.00849282,-0.02509693,-0.01113564,0
 .04370190,0.12688395,0.11971206,-0.05579407,0.07314114,-0.04202932,-0.
 02476265,0.01722612,-0.00991821,0.00428554,-0.00736587,0.00430043,0.00
 427614,-0.00739237,0.00418799,0.07402016,0.07214004,-0.25752896,0.1194
 5768,-0.00514683,0.00646909,-0.00336230,0.00008461,0.00199520,-0.00235
 056,0.00737186,-0.01763814,0.01370165,-0.07543827,0.26577679,-0.041441
 05,0.11945136,-0.11823167,0.00293058,-0.00333887,0.00254090,-0.0084920
 9,0.02515712,-0.01103094,0.00422121,-0.01382270,0.00862742,0.04335805,
 -0.12624316,0.11856343,-0.00084857,0.00000035,-0.00001929,-0.00540265,
 -0.00000021,0.00000757,-0.00227783,-0.00000102,0.00048520,-0.00223413,
 -0.00040891,-0.00024027,-0.00223329,0.00041003,-0.00023830,1.13944499,
 0.00000140,-0.00378906,-0.00000020,-0.00000083,0.00202901,0.00000005,0
 .00000017,-0.00147186,-0.00000798,0.00009841,0.00117662,0.00153616,-0.
 00009881,0.00119095,-0.00152804,-0.00005084,0.00009400,-0.00007133,-0.
 00000020,-0.00382166,0.00004995,0.00000005,0.00203538,-0.00011059,-0.0
 0000797,0.00206372,0.00005968,0.00153706,-0.00056291,0.00005918,-0.001
 52895,-0.00057680,0.00270713,-0.00000012,0.00009569,0.00570577,0.00000
 021,-0.00000965,-0.00607322,-0.00000015,0.00000238,0.00021382,-0.00000
 144,0.00068175,0.00020838,-0.00057713,-0.00034124,0.00020818,0.0005785
 7,-0.00033839,-1.12644853,0.00005050,-0.00269402,1.12618560,-0.0000005
 3,0.00083554,0.00000005,0.00000046,-0.00033469,0.,0.00000019,0.0003001
 5,0.00000165,0.00007177,-0.00026183,-0.00032600,-0.00007194,-0.0002649
 2,0.00032429,0.00005060,0.00077034,0.00000013,-0.00005056,-0.00104459,
 0.00002801,0.00000005,0.00084488,-0.00002527,-0.00000001,-0.00033588,-
 0.00008394,0.00000167,-0.00044891,0.00004221,-0.00032737,0.00010470,0.
 00004187,0.00032564,0.00010765,-0.00270205,0.00000013,0.00076658,0.002
 69916,-0.00000012,-0.00103902\\-0.00515341,-0.00001215,-0.00002840,0.0
 1212434,-0.00000207,0.00000037,-0.00119143,0.00000320,-0.00087953,-0.0
 0119430,0.00081142,0.00046402,-0.00120428,-0.00080053,0.00045421,-0.00
 032013,0.00000004,-0.00000765,-0.00306078,0.00000008,-0.00000303\\\@


 The hours that make us happy make us wise.
                         -- John Masefield
 Job cpu time:       0 days  0 hours  3 minutes 39.1 seconds.
 Elapsed time:       0 days  0 hours  0 minutes  9.5 seconds.
 File lengths (MBytes):  RWF=     88 Int=      0 D2E=      0 Chk=      2 Scr=      2
 Normal termination of Gaussian 16 at Sun Oct 13 09:52:14 2024.
