RxCoord=3.79756 DE=45.74                                                
Freq      RB3LYP                                                      6-31++G(d,p)        
Number of atoms                            I                7
Info1-9                                    I   N=           9
          16          16           0           0           0         100
           6          18        -502
Full Title                                 C   N=           2
RxCoord=3.79756 DE=45.74
Route                                      C   N=           6
#p b3lyp 6-31++g(d,p) scf=verytight NoSymm freq=noraman int=
ultrafine   
Charge                                     I               -1
Multiplicity                               I                1
Number of electrons                        I               40
Number of alpha electrons                  I               20
Number of beta electrons                   I               20
Number of basis functions                  I               98
Number of independent functions            I               98
Number of point charges in /Mol/           I                0
Number of translation vectors              I                0
Atomic numbers                             I   N=           7
           6          17           1           1           1           6
           7
Nuclear charges                            R   N=           7
  6.00000000E+00  1.70000000E+01  1.00000000E+00  1.00000000E+00  1.00000000E+00
  6.00000000E+00  7.00000000E+00
Current cartesian coordinates              R   N=          21
 -7.25482867E-01 -2.26767135E-05  3.15206318E-03 -4.18290878E+00 -7.55890450E-06
 -1.56847268E-04 -9.53442419E-02  4.44274612E-03 -1.94750261E+00 -9.85397688E-02
  1.68797518E+00  9.83288753E-01 -9.86796085E-02 -1.69248029E+00  9.75559773E-01
  4.77007314E+00  7.74787711E-05 -4.56557832E-03  7.00070019E+00 -2.26767135E-05
  7.88015794E-04
Number of symbols in /Mol/                 I                0
Force Field                                I                0
Atom Types                                 C   N=           7
                                                            
                        
Int Atom Types                             I   N=           7
           0           0           0           0           0           0
           0
MM charges                                 R   N=           7
  0.00000000E+00  0.00000000E+00  0.00000000E+00  0.00000000E+00  0.00000000E+00
  0.00000000E+00  0.00000000E+00
Integer atomic weights                     I   N=           7
          12          35           1           1           1          12
          14
Real atomic weights                        R   N=           7
  1.20000000E+01  3.49688527E+01  1.00782504E+00  1.00782504E+00  1.00782504E+00
  1.20000000E+01  1.40030740E+01
Atom fragment info                         I   N=           7
           0           0           0           0           0           0
           0
Atom residue num                           I   N=           7
           0           0           0           0           0           0
           0
Nuclear spins                              I   N=           7
           0           3           1           1           1           0
           2
Nuclear ZEff                               R   N=           7
 -3.60000000E+00 -1.42400000E+01 -1.00000000E+00 -1.00000000E+00 -1.00000000E+00
 -3.60000000E+00 -4.55000000E+00
Nuclear ZNuc                               R   N=           7
  6.00000000E+00  1.70000000E+01  1.00000000E+00  1.00000000E+00  1.00000000E+00
  6.00000000E+00  7.00000000E+00
Nuclear QMom                               R   N=           7
  0.00000000E+00 -8.16500000E+00  0.00000000E+00  0.00000000E+00  0.00000000E+00
  0.00000000E+00  2.04400000E+00
Nuclear GFac                               R   N=           7
  0.00000000E+00  8.21874000E-01  2.79284600E+00  2.79284600E+00  2.79284600E+00
  0.00000000E+00  4.03761000E-01
MicOpt                                     I   N=           7
          -1          -1          -1          -1          -1          -1
          -1
Number of residues                         I                0
Number of secondary structures             I                0
Number of contracted shells                I               33
Number of primitive shells                 I               72
Pure/Cartesian d shells                    I                1
Pure/Cartesian f shells                    I                0
Highest angular momentum                   I                2
Largest degree of contraction              I                6
Shell types                                I   N=          33
           0          -1          -1          -1           2           0
          -1          -1          -1          -1           2           0
           0           0           1           0           0           0
           1           0           0           0           1           0
          -1          -1          -1           2           0          -1
          -1          -1           2
Number of primitives per shell             I   N=          33
           6           3           1           1           1           6
           6           3           1           1           1           3
           1           1           1           3           1           1
           1           3           1           1           1           6
           3           1           1           1           6           3
           1           1           1
Shell to atom map                          I   N=          33
           1           1           1           1           1           2
           2           2           2           2           2           3
           3           3           3           4           4           4
           4           5           5           5           5           6
           6           6           6           6           7           7
           7           7           7
Primitive exponents                        R   N=          72
  3.04752488E+03  4.57369518E+02  1.03948685E+02  2.92101553E+01  9.28666296E+00
  3.16392696E+00  7.86827235E+00  1.88128854E+00  5.44249258E-01  1.68714478E-01
  4.38000000E-02  8.00000000E-01  2.51801000E+04  3.78035000E+03  8.60474000E+02
  2.42145000E+02  7.73349000E+01  2.62470000E+01  4.91765000E+02  1.16984000E+02
  3.74153000E+01  1.37834000E+01  5.45215000E+00  2.22588000E+00  3.18649000E+00
  1.14427000E+00  4.20377000E-01  1.42657000E-01  4.83000000E-02  7.50000000E-01
  1.87311370E+01  2.82539436E+00  6.40121692E-01  1.61277759E-01  3.60000000E-02
  1.10000000E+00  1.87311370E+01  2.82539436E+00  6.40121692E-01  1.61277759E-01
  3.60000000E-02  1.10000000E+00  1.87311370E+01  2.82539436E+00  6.40121692E-01
  1.61277759E-01  3.60000000E-02  1.10000000E+00  3.04752488E+03  4.57369518E+02
  1.03948685E+02  2.92101553E+01  9.28666296E+00  3.16392696E+00  7.86827235E+00
  1.88128854E+00  5.44249258E-01  1.68714478E-01  4.38000000E-02  8.00000000E-01
  4.17351146E+03  6.27457911E+02  1.42902093E+02  4.02343293E+01  1.28202129E+01
  4.39043701E+00  1.16263619E+01  2.71627981E+00  7.72218397E-01  2.12031498E-01
  6.39000000E-02  8.00000000E-01
Contraction coefficients                   R   N=          72
  1.83473713E-03  1.40373228E-02  6.88426223E-02  2.32184443E-01  4.67941348E-01
  3.62311985E-01 -1.19332420E-01 -1.60854152E-01  1.14345644E+00  1.00000000E+00
  1.00000000E+00  1.00000000E+00  1.83295985E-03  1.40341988E-02  6.90973943E-02
  2.37451980E-01  4.83033960E-01  3.39855972E-01 -2.29739142E-03 -3.07137189E-02
 -1.12528069E-01  4.50163278E-02  5.89353363E-01  4.65206287E-01 -2.51828028E-01
  6.15892514E-02  1.06018433E+00  1.00000000E+00  1.00000000E+00  1.00000000E+00
  3.34946043E-02  2.34726953E-01  8.13757326E-01  1.00000000E+00  1.00000000E+00
  1.00000000E+00  3.34946043E-02  2.34726953E-01  8.13757326E-01  1.00000000E+00
  1.00000000E+00  1.00000000E+00  3.34946043E-02  2.34726953E-01  8.13757326E-01
  1.00000000E+00  1.00000000E+00  1.00000000E+00  1.83473713E-03  1.40373228E-02
  6.88426223E-02  2.32184443E-01  4.67941348E-01  3.62311985E-01 -1.19332420E-01
 -1.60854152E-01  1.14345644E+00  1.00000000E+00  1.00000000E+00  1.00000000E+00
  1.83477216E-03  1.39946270E-02  6.85865518E-02  2.32240873E-01  4.69069948E-01
  3.60455199E-01 -1.14961182E-01 -1.69117479E-01  1.14585195E+00  1.00000000E+00
  1.00000000E+00  1.00000000E+00
P(S=P) Contraction coefficients            R   N=          72
  0.00000000E+00  0.00000000E+00  0.00000000E+00  0.00000000E+00  0.00000000E+00
  0.00000000E+00  6.89990666E-02  3.16423961E-01  7.44308291E-01  1.00000000E+00
  1.00000000E+00  0.00000000E+00  0.00000000E+00  0.00000000E+00  0.00000000E+00
  0.00000000E+00  0.00000000E+00  0.00000000E+00  3.98940088E-03  3.03177067E-02
  1.29880029E-01  3.27951072E-01  4.53527100E-01  2.52154056E-01 -1.42993147E-02
  3.23572333E-01  7.43507765E-01  1.00000000E+00  1.00000000E+00  0.00000000E+00
  0.00000000E+00  0.00000000E+00  0.00000000E+00  0.00000000E+00  0.00000000E+00
  0.00000000E+00  0.00000000E+00  0.00000000E+00  0.00000000E+00  0.00000000E+00
  0.00000000E+00  0.00000000E+00  0.00000000E+00  0.00000000E+00  0.00000000E+00
  0.00000000E+00  0.00000000E+00  0.00000000E+00  0.00000000E+00  0.00000000E+00
  0.00000000E+00  0.00000000E+00  0.00000000E+00  0.00000000E+00  6.89990666E-02
  3.16423961E-01  7.44308291E-01  1.00000000E+00  1.00000000E+00  0.00000000E+00
  0.00000000E+00  0.00000000E+00  0.00000000E+00  0.00000000E+00  0.00000000E+00
  0.00000000E+00  6.75797439E-02  3.23907296E-01  7.40895140E-01  1.00000000E+00
  1.00000000E+00  0.00000000E+00
Coordinates of each shell                  R   N=          99
 -7.25482867E-01 -2.26767135E-05  3.15206318E-03 -7.25482867E-01 -2.26767135E-05
  3.15206318E-03 -7.25482867E-01 -2.26767135E-05  3.15206318E-03 -7.25482867E-01
 -2.26767135E-05  3.15206318E-03 -7.25482867E-01 -2.26767135E-05  3.15206318E-03
 -4.18290878E+00 -7.55890450E-06 -1.56847268E-04 -4.18290878E+00 -7.55890450E-06
 -1.56847268E-04 -4.18290878E+00 -7.55890450E-06 -1.56847268E-04 -4.18290878E+00
 -7.55890450E-06 -1.56847268E-04 -4.18290878E+00 -7.55890450E-06 -1.56847268E-04
 -4.18290878E+00 -7.55890450E-06 -1.56847268E-04 -9.53442419E-02  4.44274612E-03
 -1.94750261E+00 -9.53442419E-02  4.44274612E-03 -1.94750261E+00 -9.53442419E-02
  4.44274612E-03 -1.94750261E+00 -9.53442419E-02  4.44274612E-03 -1.94750261E+00
 -9.85397688E-02  1.68797518E+00  9.83288753E-01 -9.85397688E-02  1.68797518E+00
  9.83288753E-01 -9.85397688E-02  1.68797518E+00  9.83288753E-01 -9.85397688E-02
  1.68797518E+00  9.83288753E-01 -9.86796085E-02 -1.69248029E+00  9.75559773E-01
 -9.86796085E-02 -1.69248029E+00  9.75559773E-01 -9.86796085E-02 -1.69248029E+00
  9.75559773E-01 -9.86796085E-02 -1.69248029E+00  9.75559773E-01  4.77007314E+00
  7.74787711E-05 -4.56557832E-03  4.77007314E+00  7.74787711E-05 -4.56557832E-03
  4.77007314E+00  7.74787711E-05 -4.56557832E-03  4.77007314E+00  7.74787711E-05
 -4.56557832E-03  4.77007314E+00  7.74787711E-05 -4.56557832E-03  7.00070019E+00
 -2.26767135E-05  7.88015794E-04  7.00070019E+00 -2.26767135E-05  7.88015794E-04
  7.00070019E+00 -2.26767135E-05  7.88015794E-04  7.00070019E+00 -2.26767135E-05
  7.88015794E-04  7.00070019E+00 -2.26767135E-05  7.88015794E-04
Num ILSW                                   I              100
ILSW                                       I   N=         100
           0           1           0           0           2           0
           0           0           0           0         402          -1
           5           0           0           0           2           0
           0           0           0           0           1           0
           1           1           0           0           0           0
           0           0      100000           0          -1           0
           0           0           0           0           0           0
           0           0           0           1           0           0
           0 -2000000000           1           0           0           0
           0           0           4          52           0           0
           0           0           5           0           0           0
           0           0           0           7           0           1
           0           0           0           0           0           0
           0           0           0           0           0           0
           0           0           0           0           0           0
           0           0           0           0           0           0
           0           0           0           0
Num RLSW                                   I               52
RLSW                                       R   N=          52
  8.00000000E-01  7.20000000E-01  1.00000000E+00  8.10000000E-01  2.00000000E-01
  0.00000000E+00  0.00000000E+00  1.00000000E+00  0.00000000E+00  0.00000000E+00
  0.00000000E+00  0.00000000E+00  1.00000000E+00  0.00000000E+00  0.00000000E+00
  0.00000000E+00  0.00000000E+00  1.00000000E+00  0.00000000E+00  0.00000000E+00
  0.00000000E+00  0.00000000E+00  1.00000000E+00  0.00000000E+00  0.00000000E+00
  0.00000000E+00  0.00000000E+00  1.00000000E+00  0.00000000E+00  0.00000000E+00
  0.00000000E+00  0.00000000E+00  1.00000000E+00  0.00000000E+00  0.00000000E+00
  0.00000000E+00  0.00000000E+00  0.00000000E+00  1.00000000E+00  1.00000000E+00
  0.00000000E+00  1.00000000E+00  0.00000000E+00  0.00000000E+00  0.00000000E+00
  0.00000000E+00  0.00000000E+00  0.00000000E+00  0.00000000E+00  0.00000000E+00
  0.00000000E+00  0.00000000E+00
MxBond                                     I                4
NBond                                      I   N=           7
           4           1           1           1           1           1
           1
IBond                                      I   N=          28
           2           3           4           5           1           0
           0           0           1           0           0           0
           1           0           0           0           1           0
           0           0           7           0           0           0
           6           0           0           0
RBond                                      R   N=          28
  1.00000000E+00  1.00000000E+00  1.00000000E+00  1.00000000E+00  1.00000000E+00
  0.00000000E+00  0.00000000E+00  0.00000000E+00  1.00000000E+00  0.00000000E+00
  0.00000000E+00  0.00000000E+00  1.00000000E+00  0.00000000E+00  0.00000000E+00
  0.00000000E+00  1.00000000E+00  0.00000000E+00  0.00000000E+00  0.00000000E+00
  2.00000000E+00  0.00000000E+00  0.00000000E+00  0.00000000E+00  2.00000000E+00
  0.00000000E+00  0.00000000E+00  0.00000000E+00
Virial Ratio                               R      2.004552086520770E+00
SCF Energy                                 R     -5.929946811163354E+02
Total Energy                               R     -5.929946811163354E+02
RMS Force                                  R      3.006498942598199E-03
RMS Density                                R      1.886970513370534E-09
NImag                                      I                2
Job Status                                 I                1
Nuclear derivative order                   I                2
External E-field                           R   N=          35
  0.00000000E+00  0.00000000E+00  0.00000000E+00  0.00000000E+00  0.00000000E+00
  0.00000000E+00  0.00000000E+00  0.00000000E+00  0.00000000E+00  0.00000000E+00
  0.00000000E+00  0.00000000E+00  0.00000000E+00  0.00000000E+00  0.00000000E+00
  0.00000000E+00  0.00000000E+00  0.00000000E+00  0.00000000E+00  0.00000000E+00
  0.00000000E+00  0.00000000E+00  0.00000000E+00  0.00000000E+00  0.00000000E+00
  0.00000000E+00  0.00000000E+00  0.00000000E+00  0.00000000E+00  0.00000000E+00
  0.00000000E+00  0.00000000E+00  0.00000000E+00  0.00000000E+00  0.00000000E+00
IOpCl                                      I                0
IROHF                                      I                0
Alpha Orbital Energies                     R   N=          98
 -1.01412081E+02 -1.40943051E+01 -1.01017326E+01 -9.95975278E+00 -9.32830266E+00
 -7.09133817E+00 -7.08293821E+00 -7.08293814E+00 -7.17749370E-01 -6.47317577E-01
 -5.40540695E-01 -3.08598562E-01 -3.08541990E-01 -2.78535594E-01 -1.82379246E-01
 -1.76696683E-01 -1.76686859E-01 -9.64424237E-02 -9.64418900E-02 -6.87398474E-02
  1.08418784E-01  1.26627912E-01  1.44387120E-01  1.44430249E-01  1.73191442E-01
  2.02261606E-01  2.02476653E-01  2.02489863E-01  2.20272472E-01  2.20439187E-01
  2.40262514E-01  2.48839470E-01  2.48940321E-01  2.70157770E-01  2.76170774E-01
  2.76281865E-01  3.13379234E-01  3.33186278E-01  3.33329573E-01  3.60722797E-01
  3.85649229E-01  3.85765893E-01  3.88013565E-01  4.64278176E-01  4.79348691E-01
  6.45447627E-01  7.28123831E-01  7.43337507E-01  7.43362245E-01  7.72161585E-01
  7.72278579E-01  8.75832247E-01  8.96836686E-01  8.96871153E-01  9.74521740E-01
  9.92505618E-01  9.92548668E-01  1.04328385E+00  1.04335602E+00  1.08180192E+00
  1.09375646E+00  1.09376683E+00  1.12416548E+00  1.18974635E+00  1.18982240E+00
  1.22425452E+00  1.26670153E+00  1.37148433E+00  1.46492610E+00  1.60052325E+00
  1.60060248E+00  1.74196131E+00  1.78245445E+00  1.78245798E+00  1.80455029E+00
  1.80457832E+00  2.15598692E+00  2.20212722E+00  2.20216075E+00  2.21608114E+00
  2.21626857E+00  2.29397311E+00  2.48727047E+00  2.48728927E+00  2.67684715E+00
  2.82010735E+00  2.83520029E+00  2.83523018E+00  2.95271147E+00  2.95293790E+00
  3.25733787E+00  3.38154668E+00  3.55475240E+00  3.55506821E+00  4.20878885E+00
  4.41113078E+00  4.45531071E+00  4.57032901E+00
Alpha MO coefficients                      R   N=        9604
 -6.48759020E-06  2.58477445E-05 -5.31103889E-05 -2.80450186E-10 -6.54772893E-08
  1.15331798E-04 -3.15898161E-05 -7.46760590E-10 -8.09066634E-08 -3.82179256E-05
 -7.72831379E-05  7.97399721E-10  1.05682933E-07 -2.12305721E-05  1.21745017E-05
  1.21756333E-05  1.08919306E-09 -4.23186938E-08 -9.77530381E-10  9.95996903E-01
  1.51506557E-02  4.03100137E-05  1.22104558E-10  4.39442035E-08 -2.10653109E-02
 -1.77055218E-05  5.12133290E-11 -1.09148940E-08  1.88659349E-03 -4.77520422E-05
  2.26053079E-10 -6.26813772E-08 -4.06392660E-04 -2.23196027E-05  3.19987695E-10
 -4.99664294E-08  7.50298834E-03  7.52462990E-03  7.52463135E-03  2.55748200E-10
 -2.57213145E-08 -1.06358164E-11 -2.74276823E-05 -3.27618562E-05  4.36570058E-05
  2.35734356E-05  2.79623545E-08 -1.22581670E-05 -2.74618539E-05 -3.25484317E-05
  4.33181105E-05  2.35577659E-05  1.06022418E-05  6.18065823E-06 -2.74671683E-05
 -3.25449627E-05  4.33206501E-05  2.35540926E-05 -1.06307527E-05  6.13221752E-06
 -2.75828619E-07  1.83520834E-06  6.13343880E-09  4.35624387E-10 -2.75706773E-08
 -1.06255548E-04 -8.35023929E-05  2.35510441E-09 -1.12480636E-07 -1.94647746E-05
 -7.35124683E-05 -1.63886022E-09  1.41271711E-07 -9.74248103E-06  1.00714670E-06
  1.00897860E-06  5.35848194E-10 -3.00778331E-08  2.36639248E-11 -1.80169721E-06
 -7.12463742E-06 -8.50753385E-07  4.26230332E-11 -2.02777066E-09  1.06546080E-04
 -5.89802693E-05  2.72828165E-09 -1.46299784E-07  9.59115652E-05  8.55828422E-06
  2.95705995E-09 -1.93958373E-07  3.65344807E-06 -5.44437290E-06 -5.44477391E-06
 -6.33473073E-10  3.50899187E-08 -3.83626499E-12  3.88089836E-06  1.55530501E-05
  3.92355269E-06  5.58448863E-10 -2.96096096E-08 -3.68261678E-05 -3.82212202E-05
 -2.90431036E-09  6.81532286E-08  1.02926965E-03  1.03997828E-04  2.12186658E-08
 -1.22904218E-06  2.55967758E-06  9.73854090E-06  9.72827215E-06  1.20793081E-12
  7.20353056E-09 -2.48387138E-10  1.41460672E-07  2.50920189E-06 -1.52831718E-07
  1.85084359E-11 -2.92732923E-09  6.39326051E-06  1.40200396E-06 -1.17356125E-10
  1.74614282E-08 -6.34030983E-05 -3.03753338E-05  8.52141227E-10 -9.43792092E-08
 -1.53397908E-04 -6.88946813E-05 -1.04525343E-08  5.45491952E-07  2.87102723E-06
  4.88482268E-06  4.88462008E-06 -8.27511550E-11  4.54882286E-11 -4.91075931E-11
  1.01168985E-05 -4.53786768E-05 -1.68994011E-04  1.45768276E-06  6.18932332E-09
 -2.63312515E-06  1.00715475E-05 -4.51897393E-05 -1.69683418E-04  1.52891090E-06
  2.25045339E-06  1.30350716E-06  1.00702584E-05 -4.51886217E-05 -1.69689367E-04
  1.53049470E-06 -2.25622165E-06  1.29329430E-06  8.34712035E-05  2.09240233E-04
 -2.81070503E-04  1.22649700E-08 -6.54288029E-07 -2.44709569E-04 -4.23132047E-04
  2.08281983E-08 -1.13004501E-06  1.45709340E-03  1.00514304E-03 -3.73948712E-08
  2.11367882E-06 -7.58177227E-04 -1.36412017E-05 -1.36432005E-05  3.86054410E-08
 -2.06531138E-06  1.17082476E-10  9.92698721E-01  3.44411376E-02 -1.39693210E-03
  6.26232522E-08 -3.35258918E-06  5.20907595E-03  1.08829875E-04 -4.66163537E-09
  2.65139810E-07 -2.99949464E-03  6.03846587E-05 -7.42354043E-09  3.33497393E-07
 -7.70735642E-03 -8.42140965E-03 -8.42140682E-03 -3.68545057E-08  1.96821969E-06
 -8.86685691E-11  9.92990204E-01  4.96321379E-02 -7.26587987E-04 -3.15525887E-08
  9.36533715E-07 -1.64682456E-02  9.10355949E-04  8.99929917E-08  3.54319289E-07
  6.77122664E-03 -3.31224033E-03 -2.75869176E-08 -1.95443985E-06 -9.27960280E-03
 -8.86649243E-03 -8.86709566E-03  5.46156834E-09 -2.58404823E-07 -1.85442896E-08
 -9.32471303E-06 -5.03533240E-05 -2.43675421E-06  1.59100979E-09 -1.28570233E-08
 -1.91563945E-05  1.87755816E-04 -1.07706932E-08  2.49116094E-07  3.25015886E-03
  1.86519016E-03  2.24559092E-08  1.63494059E-06 -5.78318747E-03 -1.91043224E-03
 -2.17973704E-09 -2.33386149E-06 -1.38565167E-04 -1.78566187E-04 -1.78526023E-04
  4.89501475E-09 -9.23593082E-09  3.54702902E-09 -1.56485653E-04  3.02330971E-03
 -9.45125005E-04  2.85073227E-05  2.07235449E-07 -9.52821335E-05 -1.57321400E-04
  3.02396297E-03 -9.46787428E-04  2.88625402E-05  8.30174455E-05  4.82484158E-05
 -1.57348274E-04  3.02415419E-03 -9.47030070E-04  2.88724889E-05 -8.32332611E-05
  4.78536144E-05 -1.98576029E-05 -4.87985380E-05  4.25103265E-05  1.10934819E-08
 -5.46438012E-07 -3.86902133E-04 -7.90329541E-04 -2.00243006E-08  1.06418887E-06
  1.87805468E-03  4.07829973E-04 -9.25738628E-08  3.73014795E-06 -5.18059923E-05
 -3.42168951E-05 -3.43370147E-05  6.14601701E-09 -3.22434400E-07 -1.00116808E-09
 -2.88281325E-05 -1.04676173E-04 -1.00671797E-05 -4.40821536E-09  2.61575915E-07
  1.12405037E-03 -3.31406520E-04  3.83837682E-08 -2.21444134E-06 -1.04292262E-03
 -1.08399423E-04  2.90450045E-08 -4.49383561E-07 -2.48714045E-05 -7.10291682E-05
 -7.10164607E-05 -5.20328582E-09  2.58849809E-07  1.60917637E-11 -1.66881439E-05
 -7.90453541E-05 -8.45396702E-05  7.36102194E-10 -4.78300310E-08  4.99040663E-04
  4.77551757E-04 -2.56789729E-08  1.35493676E-06 -1.29575502E-03  2.77922496E-03
  1.29038346E-08  9.19917379E-07 -3.42386996E-05 -2.94459926E-05 -2.95784164E-05
 -2.07763628E-10 -1.00462432E-08 -1.01829919E-09  1.25442547E-07  6.07531045E-06
  3.66138295E-06 -3.51855803E-10  1.44329755E-08  1.35375571E-05 -2.56122029E-05
  2.07089042E-09 -8.12940017E-08 -1.46498712E-04  2.54914330E-04 -5.43383360E-09
  2.51816762E-07  3.83387384E-03  9.18734685E-04 -6.16438305E-09  1.37974586E-06
  3.82460066E-05 -4.32147317E-07 -4.50040755E-07 -7.91353392E-10  4.67134661E-08
 -5.17352807E-10 -2.89326115E-05 -4.72715062E-04 -2.31609664E-04 -3.65131633E-05
  4.28399572E-08 -1.81250836E-05 -2.86876699E-05 -4.74867641E-04 -2.26653170E-04
 -3.69515330E-05  1.60020743E-05  9.20296941E-06 -2.86788980E-05 -4.74916272E-04
 -2.26534642E-04 -3.69629249E-05 -1.60479517E-05  9.13356466E-06  9.92844308E-01
  4.92842158E-02  1.88104471E-03 -9.03681929E-08  4.87045905E-06 -1.11811523E-02
 -1.01150574E-03  7.20969270E-08 -3.99377032E-06 -5.70536344E-03 -1.14832508E-03
  1.43847827E-07 -8.79972202E-06 -8.46261418E-03 -9.69618239E-03 -9.69614700E-03
 -6.43198419E-08  3.43798506E-06  1.21041730E-10 -4.94312303E-04  2.04949558E-05
  4.41006513E-04 -1.89698815E-08  1.02918833E-06 -7.62248435E-04  3.76682784E-04
 -2.37960126E-08  1.22978339E-06  8.89067615E-03 -3.10810733E-03  1.01055006E-07
 -4.81558476E-06 -2.74511067E-04  1.55953849E-04  1.55950986E-04  2.43643481E-08
 -1.31411619E-06  7.58279881E-11 -1.09925048E-04  1.27571752E-04  3.70037122E-04
  1.81409644E-09  1.75142796E-07  3.00592592E-03 -1.58847769E-03  1.64354870E-08
  1.27049313E-06 -3.77624477E-02  3.38265592E-02  6.08084806E-09  1.07504551E-05
 -7.68917456E-04 -1.26655232E-04 -1.26938191E-04  2.12054982E-09 -6.68313583E-07
  9.29118802E-09 -2.84604856E-01  1.02274256E+00  4.93546496E-03  1.14057949E-08
  5.74214252E-06  7.60255875E-02  6.13539899E-04 -5.44801557E-10  4.13153968E-07
 -2.64768889E-02 -1.75254974E-03 -5.34012791E-09 -1.34270231E-06  6.16422967E-02
  1.71805893E-02 -1.36307639E-07  2.37843531E-05 -1.51894556E-02 -1.55807583E-02
 -1.55808090E-02 -4.38113764E-09  5.77795528E-07 -3.49231786E-10 -4.16881627E-05
 -7.19600920E-04  9.10933905E-04 -7.15414902E-05 -2.91741680E-08  1.31587630E-05
 -4.13385961E-05 -7.24807544E-04  9.20123434E-04 -7.19295717E-05 -1.09353152E-05
 -6.63058803E-06 -4.13162586E-05 -7.24803062E-04  9.20054786E-04 -7.19736693E-05
  1.09671023E-05 -6.58036917E-06  1.30160700E-05  5.89431512E-05  4.48344953E-05
 -2.21025115E-08  1.28304387E-06  3.64249757E-04  5.76233242E-04  5.26676186E-08
 -2.97741900E-06 -1.69798978E-02  9.42110804E-03  5.43060049E-07 -4.68051537E-05
  7.99728374E-05  3.97203953E-06  3.98891560E-06 -5.14576152E-09  3.75641275E-07
  2.80760240E-10  1.09316022E-05  5.84111033E-05 -1.76210083E-05 -9.15589434E-09
  7.78605746E-07 -7.76647609E-04  5.67643926E-04  1.28917642E-08 -2.15612801E-06
  5.78462057E-04 -2.61509129E-03 -3.15279199E-07  2.62054317E-05 -4.56520314E-05
  2.89939240E-05  2.89919995E-05  9.67559947E-09 -5.42103065E-07  1.32026887E-11
  7.16541350E-05  1.60295365E-03  4.00057779E-04 -1.01475542E-08  9.51647233E-07
 -7.52213842E-04  1.51155482E-03  1.59916081E-07 -3.55498837E-06  4.85273101E-02
 -5.17831765E-02 -1.73938120E-07 -1.15857368E-05 -1.96369107E-03  2.09305005E-04
  2.10018502E-04  2.11994030E-09 -2.49863811E-06  2.26765782E-08  1.45448342E-03
 -5.54034355E-03  9.90324900E-01  3.20105898E-06  1.00261237E-03 -4.11135741E-04
  3.14945893E-02  8.27626352E-08  3.19738222E-05  5.05534472E-03 -1.29380134E-02
 -3.16573926E-08 -1.25538849E-05 -7.08004085E-02 -1.38889542E-02  2.06597474E-07
 -2.89024543E-05  7.59211242E-04 -4.61922601E-04 -4.61866532E-04 -8.50845374E-09
  1.31193568E-06  9.54446819E-10 -1.59931931E-04  1.36885060E-03 -5.36512218E-03
 -3.14931759E-04  6.33219067E-08 -3.10564884E-05 -1.59138368E-04  1.37353473E-03
 -5.36205888E-03 -3.15070752E-04  2.60860121E-05  1.52148237E-05 -1.59044062E-04
  1.37369768E-03 -5.36230982E-03 -3.15129297E-04 -2.61553699E-05  1.50864220E-05
 -2.29678801E-05 -1.55672464E-04 -9.36921408E-05  2.59056870E-08 -1.64377972E-06
  2.31941431E-03  1.37184272E-03 -1.55035910E-07  8.82583461E-06  3.72049657E-02
 -1.58590451E-02 -1.01088232E-06  8.39717652E-05  1.22080052E-04 -4.01652254E-05
 -4.01720418E-05 -7.55069061E-09  2.44244535E-07 -3.81661621E-10 -1.56903635E-05
 -4.20758022E-05  3.86366359E-05  1.49750127E-08 -1.26400372E-06 -5.58498930E-04
  6.79282263E-04 -9.94235144E-08  7.69551132E-06 -7.75689810E-03  5.68584676E-03
  4.66796121E-07 -4.10621494E-05 -1.29172743E-04 -1.15154365E-05 -1.15022197E-05
 -4.12059068E-10  9.35833054E-08 -6.51532480E-11  4.31629272E-09 -1.44402795E-09
  1.14757379E-07 -8.24154329E-05 -1.18276453E-05 -7.28827245E-08 -7.50254136E-07
  3.19084938E-04  4.59900201E-05  1.56642939E-06 -7.05014464E-06  4.43222626E-04
  6.44753678E-05  1.03677744E-08 -1.13267686E-05  1.13635140E-05  1.45781485E-04
  2.09066488E-05 -9.58331325E-05  2.60359309E-08 -1.06216143E-07 -1.45797134E-04
  9.80778492E-01  1.40879479E-01 -8.34820431E-09 -4.34466229E-06  2.92946314E-02
  4.20794461E-03  1.53763368E-07  1.27264934E-06 -1.15164860E-02 -1.65445079E-03
 -8.01149212E-06 -2.50770062E-06  5.12491321E-03  7.36634958E-04 -1.67791778E-07
  6.74158819E-07 -5.94869872E-07  3.22619154E-04  4.63400289E-05  6.10208570E-06
  8.45168863E-06 -7.87646817E-05  6.57920184E-04  3.73943846E-05 -2.54712972E-05
 -6.99372212E-06 -5.57767332E-05  5.26431812E-04 -4.33848285E-03 -2.47658269E-04
 -4.50320025E-05 -1.52778765E-05  4.73619406E-05 -4.46536192E-04  3.68093699E-03
  2.10388819E-04 -4.21186636E-05  6.13089670E-06 -3.89956331E-09 -2.11987906E-09
 -3.84369379E-08  4.08781004E-05  5.89251634E-06 -2.26505325E-06 -1.74229320E-06
 -1.57264318E-04 -2.27849709E-05  4.95454033E-06 -3.46686787E-06  9.82501315E-04
  1.43007907E-04 -1.28654424E-07  5.15669060E-07 -4.59400342E-07 -6.24356735E-06
 -9.17577159E-07  4.07460309E-06 -5.90814141E-08 -2.32641657E-07  1.55142465E-08
 -1.83500105E-05 -2.69632043E-06  2.74216042E-06 -1.36145711E-06  1.12725661E-04
  1.65263286E-05  1.21157432E-07  1.16311878E-06 -4.13643050E-04 -6.06755133E-05
  2.52406989E-08  6.41118785E-08 -3.77833649E-07 -1.12003891E-05 -1.61921130E-06
  1.87030435E-06  9.30529102E-08  3.82804247E-07  8.86091129E-07  1.18423350E-05
 -8.23707376E-05 -2.67003239E-06 -5.62117751E-06 -4.57749574E-05  3.19766435E-04
  1.44416613E-05 -6.01731459E-05 -6.37063913E-05  4.49154048E-04  9.92932002E-08
 -8.30068960E-05  8.32371946E-05 -2.09414662E-05  1.45557466E-04  1.31102085E-05
  1.95620087E-07 -8.23121358E-07 -9.92553419E-04 -1.40879563E-01  9.80777926E-01
 -9.84541520E-08 -2.94155730E-05 -4.20789915E-03  2.92949786E-02  1.95868058E-06
  8.44164827E-06  1.65423315E-03 -1.15179840E-02 -6.81236333E-05 -2.03831486E-05
 -7.36150874E-04  5.12835465E-03 -1.14903942E-06  4.89416350E-06 -4.43329766E-06
 -4.63442565E-05  3.22632449E-04 -8.37023730E-07  5.97737403E-05 -5.56453828E-04
  4.65586734E-03  2.64639527E-04  3.71118678E-06 -4.90446242E-05 -2.23142581E-05
  2.15394061E-04 -1.76014738E-03 -9.96336005E-05 -4.35491823E-06 -3.02373728E-05
 -3.68511785E-05  3.52968507E-04 -2.89335031E-03 -1.64382072E-04  1.68388246E-05
 -3.32124541E-05 -3.86124047E-08 -5.20082344E-08 -2.98438620E-07 -5.87193235E-06