RxCoord=3.89754 DE=45.65                                                
Freq      RB3LYP                                                      6-31++G(d,p)        
Number of atoms                            I                7
Info1-9                                    I   N=           9
          16          16           0           0           0         100
           6          18        -502
Full Title                                 C   N=           2
RxCoord=3.89754 DE=45.65
Route                                      C   N=           6
#p b3lyp 6-31++g(d,p) scf=verytight NoSymm freq=noraman int=
ultrafine   
Charge                                     I               -1
Multiplicity                               I                1
Number of electrons                        I               40
Number of alpha electrons                  I               20
Number of beta electrons                   I               20
Number of basis functions                  I               98
Number of independent functions            I               98
Number of point charges in /Mol/           I                0
Number of translation vectors              I                0
Atomic numbers                             I   N=           7
           6          17           1           1           1           6
           7
Nuclear charges                            R   N=           7
  6.00000000E+00  1.70000000E+01  1.00000000E+00  1.00000000E+00  1.00000000E+00
  6.00000000E+00  7.00000000E+00
Current cartesian coordinates              R   N=          21
 -7.34113246E-01 -2.83458919E-05  3.26922620E-03 -4.19108562E+00 -3.77945225E-06
 -1.47398638E-04 -1.02793542E-01  4.39739269E-03 -1.94740246E+00 -1.06882910E-01
  1.68798463E+00  9.83318989E-01 -1.06697716E-01 -1.69253320E+00  9.75610796E-01
  4.78590715E+00  8.50376756E-05 -4.74321257E-03  7.01665515E+00 -2.83458919E-05
  8.03133603E-04
Number of symbols in /Mol/                 I                0
Force Field                                I                0
Atom Types                                 C   N=           7
                                                            
                        
Int Atom Types                             I   N=           7
           0           0           0           0           0           0
           0
MM charges                                 R   N=           7
  0.00000000E+00  0.00000000E+00  0.00000000E+00  0.00000000E+00  0.00000000E+00
  0.00000000E+00  0.00000000E+00
Integer atomic weights                     I   N=           7
          12          35           1           1           1          12
          14
Real atomic weights                        R   N=           7
  1.20000000E+01  3.49688527E+01  1.00782504E+00  1.00782504E+00  1.00782504E+00
  1.20000000E+01  1.40030740E+01
Atom fragment info                         I   N=           7
           0           0           0           0           0           0
           0
Atom residue num                           I   N=           7
           0           0           0           0           0           0
           0
Nuclear spins                              I   N=           7
           0           3           1           1           1           0
           2
Nuclear ZEff                               R   N=           7
 -3.60000000E+00 -1.42400000E+01 -1.00000000E+00 -1.00000000E+00 -1.00000000E+00
 -3.60000000E+00 -4.55000000E+00
Nuclear ZNuc                               R   N=           7
  6.00000000E+00  1.70000000E+01  1.00000000E+00  1.00000000E+00  1.00000000E+00
  6.00000000E+00  7.00000000E+00
Nuclear QMom                               R   N=           7
  0.00000000E+00 -8.16500000E+00  0.00000000E+00  0.00000000E+00  0.00000000E+00
  0.00000000E+00  2.04400000E+00
Nuclear GFac                               R   N=           7
  0.00000000E+00  8.21874000E-01  2.79284600E+00  2.79284600E+00  2.79284600E+00
  0.00000000E+00  4.03761000E-01
MicOpt                                     I   N=           7
          -1          -1          -1          -1          -1          -1
          -1
Number of residues                         I                0
Number of secondary structures             I                0
Number of contracted shells                I               33
Number of primitive shells                 I               72
Pure/Cartesian d shells                    I                1
Pure/Cartesian f shells                    I                0
Highest angular momentum                   I                2
Largest degree of contraction              I                6
Shell types                                I   N=          33
           0          -1          -1          -1           2           0
          -1          -1          -1          -1           2           0
           0           0           1           0           0           0
           1           0           0           0           1           0
          -1          -1          -1           2           0          -1
          -1          -1           2
Number of primitives per shell             I   N=          33
           6           3           1           1           1           6
           6           3           1           1           1           3
           1           1           1           3           1           1
           1           3           1           1           1           6
           3           1           1           1           6           3
           1           1           1
Shell to atom map                          I   N=          33
           1           1           1           1           1           2
           2           2           2           2           2           3
           3           3           3           4           4           4
           4           5           5           5           5           6
           6           6           6           6           7           7
           7           7           7
Primitive exponents                        R   N=          72
  3.04752488E+03  4.57369518E+02  1.03948685E+02  2.92101553E+01  9.28666296E+00
  3.16392696E+00  7.86827235E+00  1.88128854E+00  5.44249258E-01  1.68714478E-01
  4.38000000E-02  8.00000000E-01  2.51801000E+04  3.78035000E+03  8.60474000E+02
  2.42145000E+02  7.73349000E+01  2.62470000E+01  4.91765000E+02  1.16984000E+02
  3.74153000E+01  1.37834000E+01  5.45215000E+00  2.22588000E+00  3.18649000E+00
  1.14427000E+00  4.20377000E-01  1.42657000E-01  4.83000000E-02  7.50000000E-01
  1.87311370E+01  2.82539436E+00  6.40121692E-01  1.61277759E-01  3.60000000E-02
  1.10000000E+00  1.87311370E+01  2.82539436E+00  6.40121692E-01  1.61277759E-01
  3.60000000E-02  1.10000000E+00  1.87311370E+01  2.82539436E+00  6.40121692E-01
  1.61277759E-01  3.60000000E-02  1.10000000E+00  3.04752488E+03  4.57369518E+02
  1.03948685E+02  2.92101553E+01  9.28666296E+00  3.16392696E+00  7.86827235E+00
  1.88128854E+00  5.44249258E-01  1.68714478E-01  4.38000000E-02  8.00000000E-01
  4.17351146E+03  6.27457911E+02  1.42902093E+02  4.02343293E+01  1.28202129E+01
  4.39043701E+00  1.16263619E+01  2.71627981E+00  7.72218397E-01  2.12031498E-01
  6.39000000E-02  8.00000000E-01
Contraction coefficients                   R   N=          72
  1.83473713E-03  1.40373228E-02  6.88426223E-02  2.32184443E-01  4.67941348E-01
  3.62311985E-01 -1.19332420E-01 -1.60854152E-01  1.14345644E+00  1.00000000E+00
  1.00000000E+00  1.00000000E+00  1.83295985E-03  1.40341988E-02  6.90973943E-02
  2.37451980E-01  4.83033960E-01  3.39855972E-01 -2.29739142E-03 -3.07137189E-02
 -1.12528069E-01  4.50163278E-02  5.89353363E-01  4.65206287E-01 -2.51828028E-01
  6.15892514E-02  1.06018433E+00  1.00000000E+00  1.00000000E+00  1.00000000E+00
  3.34946043E-02  2.34726953E-01  8.13757326E-01  1.00000000E+00  1.00000000E+00
  1.00000000E+00  3.34946043E-02  2.34726953E-01  8.13757326E-01  1.00000000E+00
  1.00000000E+00  1.00000000E+00  3.34946043E-02  2.34726953E-01  8.13757326E-01
  1.00000000E+00  1.00000000E+00  1.00000000E+00  1.83473713E-03  1.40373228E-02
  6.88426223E-02  2.32184443E-01  4.67941348E-01  3.62311985E-01 -1.19332420E-01
 -1.60854152E-01  1.14345644E+00  1.00000000E+00  1.00000000E+00  1.00000000E+00
  1.83477216E-03  1.39946270E-02  6.85865518E-02  2.32240873E-01  4.69069948E-01
  3.60455199E-01 -1.14961182E-01 -1.69117479E-01  1.14585195E+00  1.00000000E+00
  1.00000000E+00  1.00000000E+00
P(S=P) Contraction coefficients            R   N=          72
  0.00000000E+00  0.00000000E+00  0.00000000E+00  0.00000000E+00  0.00000000E+00
  0.00000000E+00  6.89990666E-02  3.16423961E-01  7.44308291E-01  1.00000000E+00
  1.00000000E+00  0.00000000E+00  0.00000000E+00  0.00000000E+00  0.00000000E+00
  0.00000000E+00  0.00000000E+00  0.00000000E+00  3.98940088E-03  3.03177067E-02
  1.29880029E-01  3.27951072E-01  4.53527100E-01  2.52154056E-01 -1.42993147E-02
  3.23572333E-01  7.43507765E-01  1.00000000E+00  1.00000000E+00  0.00000000E+00
  0.00000000E+00  0.00000000E+00  0.00000000E+00  0.00000000E+00  0.00000000E+00
  0.00000000E+00  0.00000000E+00  0.00000000E+00  0.00000000E+00  0.00000000E+00
  0.00000000E+00  0.00000000E+00  0.00000000E+00  0.00000000E+00  0.00000000E+00
  0.00000000E+00  0.00000000E+00  0.00000000E+00  0.00000000E+00  0.00000000E+00
  0.00000000E+00  0.00000000E+00  0.00000000E+00  0.00000000E+00  6.89990666E-02
  3.16423961E-01  7.44308291E-01  1.00000000E+00  1.00000000E+00  0.00000000E+00
  0.00000000E+00  0.00000000E+00  0.00000000E+00  0.00000000E+00  0.00000000E+00
  0.00000000E+00  6.75797439E-02  3.23907296E-01  7.40895140E-01  1.00000000E+00
  1.00000000E+00  0.00000000E+00
Coordinates of each shell                  R   N=          99
 -7.34113246E-01 -2.83458919E-05  3.26922620E-03 -7.34113246E-01 -2.83458919E-05
  3.26922620E-03 -7.34113246E-01 -2.83458919E-05  3.26922620E-03 -7.34113246E-01
 -2.83458919E-05  3.26922620E-03 -7.34113246E-01 -2.83458919E-05  3.26922620E-03
 -4.19108562E+00 -3.77945225E-06 -1.47398638E-04 -4.19108562E+00 -3.77945225E-06
 -1.47398638E-04 -4.19108562E+00 -3.77945225E-06 -1.47398638E-04 -4.19108562E+00
 -3.77945225E-06 -1.47398638E-04 -4.19108562E+00 -3.77945225E-06 -1.47398638E-04
 -4.19108562E+00 -3.77945225E-06 -1.47398638E-04 -1.02793542E-01  4.39739269E-03
 -1.94740246E+00 -1.02793542E-01  4.39739269E-03 -1.94740246E+00 -1.02793542E-01
  4.39739269E-03 -1.94740246E+00 -1.02793542E-01  4.39739269E-03 -1.94740246E+00
 -1.06882910E-01  1.68798463E+00  9.83318989E-01 -1.06882910E-01  1.68798463E+00
  9.83318989E-01 -1.06882910E-01  1.68798463E+00  9.83318989E-01 -1.06882910E-01
  1.68798463E+00  9.83318989E-01 -1.06697716E-01 -1.69253320E+00  9.75610796E-01
 -1.06697716E-01 -1.69253320E+00  9.75610796E-01 -1.06697716E-01 -1.69253320E+00
  9.75610796E-01 -1.06697716E-01 -1.69253320E+00  9.75610796E-01  4.78590715E+00
  8.50376756E-05 -4.74321257E-03  4.78590715E+00  8.50376756E-05 -4.74321257E-03
  4.78590715E+00  8.50376756E-05 -4.74321257E-03  4.78590715E+00  8.50376756E-05
 -4.74321257E-03  4.78590715E+00  8.50376756E-05 -4.74321257E-03  7.01665515E+00
 -2.83458919E-05  8.03133603E-04  7.01665515E+00 -2.83458919E-05  8.03133603E-04
  7.01665515E+00 -2.83458919E-05  8.03133603E-04  7.01665515E+00 -2.83458919E-05
  8.03133603E-04  7.01665515E+00 -2.83458919E-05  8.03133603E-04
Num ILSW                                   I              100
ILSW                                       I   N=         100
           0           1           0           0           2           0
           0           0           0           0         402          -1
           5           0           0           0           2           0
           0           0           0           0           1           0
           1           1           0           0           0           0
           0           0      100000           0          -1           0
           0           0           0           0           0           0
           0           0           0           1           0           0
           0 -2000000000           1           0           0           0
           0           0           4          52           0           0
           0           0           5           0           0           0
           0           0           0           7           0           1
           0           0           0           0           0           0
           0           0           0           0           0           0
           0           0           0           0           0           0
           0           0           0           0           0           0
           0           0           0           0
Num RLSW                                   I               52
RLSW                                       R   N=          52
  8.00000000E-01  7.20000000E-01  1.00000000E+00  8.10000000E-01  2.00000000E-01
  0.00000000E+00  0.00000000E+00  1.00000000E+00  0.00000000E+00  0.00000000E+00
  0.00000000E+00  0.00000000E+00  1.00000000E+00  0.00000000E+00  0.00000000E+00
  0.00000000E+00  0.00000000E+00  1.00000000E+00  0.00000000E+00  0.00000000E+00
  0.00000000E+00  0.00000000E+00  1.00000000E+00  0.00000000E+00  0.00000000E+00
  0.00000000E+00  0.00000000E+00  1.00000000E+00  0.00000000E+00  0.00000000E+00
  0.00000000E+00  0.00000000E+00  1.00000000E+00  0.00000000E+00  0.00000000E+00
  0.00000000E+00  0.00000000E+00  0.00000000E+00  1.00000000E+00  1.00000000E+00
  0.00000000E+00  1.00000000E+00  0.00000000E+00  0.00000000E+00  0.00000000E+00
  0.00000000E+00  0.00000000E+00  0.00000000E+00  0.00000000E+00  0.00000000E+00
  0.00000000E+00  0.00000000E+00
MxBond                                     I                4
NBond                                      I   N=           7
           4           1           1           1           1           1
           1
IBond                                      I   N=          28
           2           3           4           5           1           0
           0           0           1           0           0           0
           1           0           0           0           1           0
           0           0           7           0           0           0
           6           0           0           0
RBond                                      R   N=          28
  1.00000000E+00  1.00000000E+00  1.00000000E+00  1.00000000E+00  1.00000000E+00
  0.00000000E+00  0.00000000E+00  0.00000000E+00  1.00000000E+00  0.00000000E+00
  0.00000000E+00  0.00000000E+00  1.00000000E+00  0.00000000E+00  0.00000000E+00
  0.00000000E+00  1.00000000E+00  0.00000000E+00  0.00000000E+00  0.00000000E+00
  2.00000000E+00  0.00000000E+00  0.00000000E+00  0.00000000E+00  2.00000000E+00
  0.00000000E+00  0.00000000E+00  0.00000000E+00
Virial Ratio                               R      2.004556933316401E+00
SCF Energy                                 R     -5.929947575809667E+02
Total Energy                               R     -5.929947575809667E+02
RMS Force                                  R      2.957004861648477E-03
RMS Density                                R      1.869316570307167E-09
NImag                                      I                2
Job Status                                 I                1
Nuclear derivative order                   I                2
External E-field                           R   N=          35
  0.00000000E+00  0.00000000E+00  0.00000000E+00  0.00000000E+00  0.00000000E+00
  0.00000000E+00  0.00000000E+00  0.00000000E+00  0.00000000E+00  0.00000000E+00
  0.00000000E+00  0.00000000E+00  0.00000000E+00  0.00000000E+00  0.00000000E+00
  0.00000000E+00  0.00000000E+00  0.00000000E+00  0.00000000E+00  0.00000000E+00
  0.00000000E+00  0.00000000E+00  0.00000000E+00  0.00000000E+00  0.00000000E+00
  0.00000000E+00  0.00000000E+00  0.00000000E+00  0.00000000E+00  0.00000000E+00
  0.00000000E+00  0.00000000E+00  0.00000000E+00  0.00000000E+00  0.00000000E+00
IOpCl                                      I                0
IROHF                                      I                0
Alpha Orbital Energies                     R   N=          98
 -1.01412626E+02 -1.40941907E+01 -1.01022195E+01 -9.95971584E+00 -9.32883751E+00
 -7.09188505E+00 -7.08346785E+00 -7.08346782E+00 -7.18266316E-01 -6.47167019E-01
 -5.40960917E-01 -3.09038222E-01 -3.08931363E-01 -2.78980663E-01 -1.82301004E-01
 -1.77135554E-01 -1.77120886E-01 -9.62986663E-02 -9.62981879E-02 -6.86504415E-02
  1.08228222E-01  1.26275270E-01  1.44227109E-01  1.44274274E-01  1.73192124E-01
  2.01900026E-01  2.02277020E-01  2.02283967E-01  2.20153929E-01  2.20323793E-01
  2.39964607E-01  2.48663906E-01  2.48768285E-01  2.69971317E-01  2.76283966E-01
  2.76402525E-01  3.13212384E-01  3.32750380E-01  3.32862046E-01  3.60483367E-01
  3.85569610E-01  3.85691413E-01  3.88195591E-01  4.64026329E-01  4.79007429E-01
  6.44191080E-01  7.27447135E-01  7.42983278E-01  7.43004218E-01  7.71759041E-01
  7.71863764E-01  8.74990372E-01  8.96843684E-01  8.96869842E-01  9.73638146E-01
  9.92052192E-01  9.92098207E-01  1.04284814E+00  1.04292484E+00  1.08123004E+00
  1.09324977E+00  1.09328894E+00  1.12398358E+00  1.18961696E+00  1.18969627E+00
  1.22089728E+00  1.26643512E+00  1.37183933E+00  1.46360915E+00  1.59992393E+00
  1.60002843E+00  1.73861109E+00  1.78259739E+00  1.78260048E+00  1.80462380E+00
  1.80465216E+00  2.15557917E+00  2.20221636E+00  2.20224959E+00  2.21548917E+00
  2.21561369E+00  2.29374504E+00  2.48640027E+00  2.48654266E+00  2.67745324E+00
  2.81793826E+00  2.83528826E+00  2.83531821E+00  2.95194301E+00  2.95219054E+00
  3.25678712E+00  3.38061496E+00  3.55414576E+00  3.55436121E+00  4.20819535E+00
  4.41036971E+00  4.45477151E+00  4.56988349E+00
Alpha MO coefficients                      R   N=        9604
 -6.51292042E-06  2.58628994E-05 -5.32867923E-05  1.84159017E-09 -6.32373732E-08
  1.15798877E-04 -3.03729109E-05  2.79840647E-09 -7.76680902E-08 -3.88251234E-05
 -7.30582931E-05 -5.91287832E-09  9.32281513E-08 -2.14260636E-05  1.21247310E-05
  1.21115829E-05 -1.04863211E-09 -4.92311706E-08  2.14463524E-09  9.95996907E-01
  1.51506292E-02  4.04027064E-05 -9.11245294E-10  4.33906751E-08 -2.10653504E-02
 -1.77117673E-05 -1.84113018E-11 -1.17664595E-08  1.88703538E-03 -4.71998470E-05
  8.71893555E-10 -6.18400082E-08 -4.02072582E-04 -2.14781026E-05  8.61704099E-10
 -4.83691348E-08  7.50307521E-03  7.52458979E-03  7.52459112E-03  3.09825945E-11
 -2.67244723E-08  2.90786210E-11 -2.74917950E-05 -3.30479127E-05  4.37785458E-05
  2.35674353E-05  2.78625900E-08 -1.22733486E-05 -2.75575411E-05 -3.28224360E-05
  4.34738743E-05  2.35283262E-05  1.06189157E-05  6.19128548E-06 -2.75497857E-05
 -3.28219887E-05  4.34593612E-05  2.35339597E-05 -1.06462432E-05  6.14221741E-06
 -2.37703404E-07  1.87441550E-06 -5.62622606E-08  6.18936467E-10 -2.73387804E-08
 -1.04709144E-04 -8.14609175E-05  2.06127335E-09 -1.17090664E-07 -2.29601991E-05
 -7.11807580E-05 -2.00793988E-09  1.36281161E-07 -9.51017222E-06  1.07590571E-06
  1.07791560E-06  6.98461609E-10 -3.03610235E-08 -2.59629244E-11 -1.75574282E-06
 -6.94571330E-06 -8.12288569E-07 -1.27278389E-11 -2.28727942E-09  1.04037615E-04
 -5.78909495E-05  3.24750408E-09 -1.47314764E-07  9.55803948E-05  7.95054885E-06
  3.67032095E-09 -1.94256806E-07  3.61985649E-06 -5.32394664E-06 -5.32434949E-06
 -7.38589722E-10  3.54335935E-08 -2.93354231E-12  3.90639963E-06  1.53383072E-05
  4.34052456E-06  5.11968197E-10 -3.12753112E-08 -3.71266953E-05 -3.90931513E-05
  1.73601478E-09  7.88660643E-08  1.01643693E-03  1.06795373E-04  1.32192618E-08
 -1.28978887E-06  3.02414483E-06  9.77685417E-06  9.76405286E-06 -2.31966309E-10
  6.82335602E-09  3.66664315E-10  1.43701405E-07  2.53400370E-06 -1.40708299E-07
  1.07551139E-10 -2.83833455E-09  6.52298483E-06  1.35918236E-06 -6.15818983E-10
  1.70379872E-08 -6.41035630E-05 -3.07225207E-05  2.23548894E-09 -9.53975089E-08
 -1.47212059E-04 -6.70477713E-05 -9.46043771E-09  5.71786796E-07  2.77872267E-06
  4.94574859E-06  4.94508466E-06 -1.59099906E-11  9.54973337E-11  7.27408646E-11
  1.02244896E-05 -4.47126211E-05 -1.67457677E-04  1.62087172E-06  5.72135071E-09
 -2.54882444E-06  1.01720037E-05 -4.45289304E-05 -1.68085281E-04  1.69701059E-06
  2.17964905E-06  1.26130737E-06  1.01713388E-05 -4.45204367E-05 -1.68128393E-04
  1.69646684E-06 -2.18422115E-06  1.25059247E-06  8.34408118E-05  2.09389702E-04
 -2.80822906E-04  1.39196066E-08 -6.77257276E-07 -2.43612135E-04 -4.22450768E-04
  2.37693986E-08 -1.16728041E-06  1.45686418E-03  1.00299868E-03 -5.19440921E-08
  2.15734941E-06 -7.57967007E-04 -1.36861950E-05 -1.36883086E-05  4.38263345E-08
 -2.13830493E-06  6.73286089E-11  9.92698851E-01  3.44407871E-02 -1.39659107E-03
  7.09149207E-08 -3.47212999E-06  5.20718247E-03  1.09269303E-04 -6.06242667E-09
  2.73390094E-07 -2.99732019E-03  6.06283081E-05 -3.29301240E-09  3.60764135E-07
 -7.70735313E-03 -8.42108342E-03 -8.42108025E-03 -4.16646498E-08  2.03821331E-06
 -1.25478829E-10  9.92989929E-01  4.96303888E-02 -7.29096330E-04  9.89289948E-09
  1.01378011E-06 -1.64630732E-02  9.21219723E-04 -1.19851642E-07  4.52148874E-08
  6.81492166E-03 -3.36623244E-03  7.76280441E-08 -1.67327966E-06 -9.27943066E-03
 -8.86698531E-03 -8.86782108E-03 -6.19276138E-09 -2.95533204E-07  3.26427666E-08
 -9.34916733E-06 -5.06152891E-05 -2.49002742E-06 -2.23487455E-09 -2.17535230E-08
 -1.97483022E-05  1.88215240E-04  1.28636692E-08  3.11232932E-07  3.26099494E-03
  1.86841463E-03 -6.25875556E-08  1.49782665E-06 -5.85345988E-03 -1.92856393E-03
  4.12447615E-08 -2.39461304E-06 -1.38944696E-04 -1.79229290E-04 -1.79152272E-04
 -8.23726803E-09 -4.37076699E-08 -5.82124485E-09 -1.57149372E-04  3.02123838E-03
 -9.50741469E-04  2.80673329E-05  2.33939443E-07 -9.53779511E-05 -1.58149568E-04
  3.02291461E-03 -9.54171464E-04  2.84741863E-05  8.29922347E-05  4.82777177E-05
 -1.58121959E-04  3.02263457E-03 -9.53781994E-04  2.84681890E-05 -8.32381902E-05
  4.79331365E-05 -1.99117430E-05 -4.68404001E-05  4.22177849E-05 -5.76254428E-10
 -5.94424877E-07 -3.82881095E-04 -7.78822497E-04  2.22763612E-08  1.18494063E-06
  1.92346308E-03  3.70748164E-04  4.73102290E-08  4.32009048E-06 -5.41751630E-05
 -3.37019123E-05 -3.38295823E-05  3.24349118E-09 -3.32436171E-07  8.71977375E-10
 -2.85175180E-05 -1.03139251E-04 -1.07342957E-05 -3.38753881E-09  2.63221990E-07
  1.11218396E-03 -3.27447618E-04  3.69604923E-08 -2.25984377E-06 -1.04774497E-03
 -9.46947829E-05 -7.32734393E-08 -7.86770301E-07 -2.40706307E-05 -7.04764400E-05
 -7.04636661E-05 -1.86614023E-09  2.79763207E-07  2.54738123E-11 -1.62717529E-05
 -7.69996775E-05 -8.29282813E-05  3.65398578E-10 -4.32824416E-08  5.00624301E-04
  4.63671263E-04  5.53324064E-09  1.40397513E-06 -1.20359745E-03  2.63024490E-03
 -3.24198568E-08  8.74988435E-07 -3.57763307E-05 -2.90234883E-05 -2.91677066E-05
  4.00926358E-11 -1.18428669E-08  1.14459993E-09  1.24774154E-07  6.05665276E-06
  3.59158470E-06  3.78259078E-10  1.60043019E-08  1.35049643E-05 -2.51873388E-05
 -2.38309313E-09 -9.11025888E-08 -1.47396192E-04  2.45108927E-04  8.55347780E-09
  2.83607550E-07  3.65727424E-03  8.78311813E-04 -1.11665269E-08  1.31486744E-06
  3.73136820E-05 -2.28182585E-07 -2.51314334E-07  1.09306911E-09  5.13168450E-08
  8.46468358E-10 -2.78931060E-05 -4.71321031E-04 -2.44595966E-04 -3.65003395E-05
  4.13755104E-08 -1.84482612E-05 -2.75781328E-05 -4.73655026E-04 -2.39072787E-04
 -3.69783346E-05  1.62974231E-05  9.37420640E-06 -2.75901155E-05 -4.73622914E-04
 -2.39136917E-04 -3.69704034E-05 -1.63401543E-05  9.29907646E-06  9.92844631E-01
  4.92798627E-02  1.88044160E-03 -1.01270356E-07  5.03173188E-06 -1.11998069E-02
 -1.03105198E-03  7.73155299E-08 -4.13675791E-06 -5.58974874E-03 -1.21031884E-03
  1.15322692E-07 -8.93369158E-06 -8.46351873E-03 -9.69504647E-03 -9.69500859E-03
 -7.14182175E-08  3.55462733E-06 -3.64030685E-10 -4.94576417E-04  1.82949652E-05
  4.40976587E-04 -2.14281038E-08  1.06458990E-06 -7.34354958E-04  3.63149518E-04
 -2.77302470E-08  1.24114569E-06  8.88682059E-03 -3.09047476E-03  1.42688998E-07
 -5.08035000E-06 -2.74187690E-04  1.54581389E-04  1.54578447E-04  2.70182670E-08
 -1.35350476E-06  5.90154811E-11 -1.10148564E-04  1.27229287E-04  3.70941899E-04
 -2.85437606E-09  1.76771052E-07  3.01018108E-03 -1.59421052E-03 -8.85160150E-08
  1.03601156E-06 -3.77228066E-02  3.34731747E-02  7.56538624E-08  1.13535035E-05
 -7.69704243E-04 -1.27071278E-04 -1.27264965E-04  4.97701128E-09 -6.91158295E-07
 -1.71588291E-08 -2.84604944E-01  1.02274234E+00  4.94766741E-03 -1.16775820E-07
  5.67585283E-06  7.60224714E-02  6.15577982E-04 -3.30504367E-09  4.28608506E-07
 -2.64637276E-02 -1.76118141E-03  2.54494136E-08 -1.34665638E-06  6.12970958E-02
  1.71025389E-02 -2.05829852E-07  2.43895897E-05 -1.51895433E-02 -1.55812712E-02
 -1.55813276E-02 -2.62810206E-09  6.03270229E-07  4.66043552E-10 -4.19744745E-05
 -7.15139013E-04  8.84704474E-04 -7.13247971E-05 -2.64674628E-08  1.33483298E-05
 -4.14859253E-05 -7.20121903E-04  8.93031841E-04 -7.19742467E-05 -1.11207220E-05
 -6.74014587E-06 -4.15141862E-05 -7.20266599E-04  8.93425565E-04 -7.19133624E-05
  1.11407008E-05 -6.67866071E-06  1.27109975E-05  5.76782170E-05  4.46831535E-05
 -1.75220441E-08  1.32899934E-06  3.78990048E-04  5.81017202E-04  2.94820740E-08
 -3.07435823E-06 -1.65908907E-02  9.27746975E-03  6.61003199E-07 -4.76518281E-05
  7.92393355E-05  3.42668938E-06  3.44515315E-06 -6.08317756E-09  3.90435708E-07
 -1.30859373E-10  1.09472715E-05  5.85147466E-05 -1.75676855E-05 -1.29011647E-08
  7.91722239E-07 -7.80264693E-04  5.69232708E-04  2.98061359E-08 -2.16181310E-06
  5.37475865E-04 -2.58315157E-03 -3.72430625E-07  2.68422787E-05 -4.55400927E-05
  2.90199679E-05  2.90170856E-05  8.52412050E-09 -5.63763899E-07  2.33164286E-10
  7.23736669E-05  1.60666436E-03  4.04769398E-04 -5.96224453E-09  9.88321149E-07
 -7.66690468E-04  1.49185097E-03 -1.38602753E-07 -4.30015482E-06  4.84996884E-02
 -5.12821335E-02  4.95688221E-08 -1.16719990E-05 -1.96375917E-03  2.10473753E-04
  2.11427426E-04  3.57442037E-08 -2.52092464E-06 -3.40067898E-08  1.45809769E-03
 -5.55254983E-03  9.90325099E-01 -2.07362104E-05  9.87508885E-04 -4.08819299E-04
  3.14928189E-02 -6.31603041E-07  3.15950004E-05  5.02608906E-03 -1.29376823E-02
  2.41989304E-07 -1.24113288E-05 -7.03350652E-02 -1.37824894E-02  2.30571957E-07
 -2.97652528E-05  7.60994668E-04 -4.60667508E-04 -4.60598940E-04 -6.95422449E-09
  1.36236681E-06 -1.53533812E-09 -1.57947945E-04  1.36736233E-03 -5.31640555E-03
 -3.13742302E-04  7.77547875E-08 -3.09309765E-05 -1.56639599E-04  1.37308157E-03
 -5.31450241E-03 -3.14209799E-04  2.59318758E-05  1.51503096E-05 -1.56763917E-04
  1.37291606E-03 -5.31414808E-03 -3.14123053E-04 -2.59916923E-05  1.50352151E-05
 -2.28549193E-05 -1.54616791E-04 -9.30273024E-05  2.33357958E-08 -1.70875097E-06
  2.23667705E-03  1.30923752E-03 -1.46862724E-07  9.03047282E-06  3.65668851E-02
 -1.56884146E-02 -1.24190157E-06  8.57079830E-05  1.19554827E-04 -3.95715332E-05
 -3.95791410E-05 -8.84048011E-09  2.30831586E-07  7.89344319E-11 -1.69428499E-05
 -4.75855797E-05  3.85439762E-05  2.00274061E-08 -1.28587674E-06 -4.83194001E-04
  6.41265037E-04 -1.27764255E-07  7.77304433E-06 -7.63689928E-03  5.65040186E-03
  5.70231662E-07 -4.21609931E-05 -1.28272811E-04 -1.45957463E-05 -1.45818978E-05
  9.70768531E-10  1.14018534E-07 -1.71911795E-10  1.19132190E-07  5.72078741E-07
  8.24944024E-07  3.68949729E-05 -7.44725985E-05 -3.72716895E-06 -5.13460609E-06
 -1.43218165E-04  2.90491523E-04  1.39053168E-05 -5.86163058E-05 -1.99905878E-04
  4.08857023E-04  9.30814574E-08 -7.51463512E-05  7.53346569E-05 -6.54942748E-05
  1.32103131E-04  4.22541534E-05  1.81279316E-07 -7.78849971E-07 -8.94799429E-04
 -4.39522590E-01  8.88027730E-01 -1.17515323E-07 -2.64264345E-05 -1.31274321E-02
  2.65234599E-02  2.31608199E-06  7.65120214E-06  5.16063662E-03 -1.04281187E-02
 -6.62283956E-05 -1.96029182E-05 -2.29578194E-03  4.64156428E-03 -1.01646239E-06
  4.41701992E-06 -4.05366553E-06 -1.44843928E-04  2.92633438E-04 -2.70488959E-06
  5.44179738E-05 -5.02250647E-04  4.21567998E-03  2.39597434E-04  1.15045798E-05
 -4.40453801E-05 -3.84693003E-06  4.11247772E-05 -3.19744192E-04 -1.74814985E-05
  9.89886937E-06 -2.39901150E-05 -4.98541606E-05  4.74315219E-04 -3.89317973E-03
 -2.21703549E-04  2.89292375E-05 -3.33998441E-05 -3.94462837E-08 -6.05489592E-08
 -2.77265934E-07 -1.79930527E-05  3.64835498E-05 -1.60338770E-05 -1.26772675E-05
  6.91829395E-05 -1.41012638E-04  3.95899084E-05 -2.74270944E-05 -4.39258546E-04
  8.99449542E-04 -9.46740495E-07  3.42494082E-06 -3.05745855E-06  2.86525878E-06
 -5.92196596E-06 -1.80252164E-06 -4.21554504E-07 -1.66591693E-06  1.14137519E-07
  8.15135207E-06 -1.68536896E-05  1.97307275E-05 -9.84947008E-06 -5.01133055E-05
  1.03370533E-04  7.33806439E-07  9.06843699E-06  1.86207768E-04 -3.84232726E-04
  1.98601727E-07  3.25137910E-07 -2.56506540E-06  4.91548025E-06 -9.99644303E-06
 -8.13333571E-07  7.17507550E-08  3.69528542E-07  4.01743853E-07 -7.45581674E-05
 -3.68666406E-05 -2.31725753E-06 -2.45919169E-06  2.89151877E-04  1.43671781E-04
  7.18741574E-06 -2.98559169E-05  4.04182662E-04  2.02501947E-04  4.57760796E-08
 -3.65839284E-05  3.66652499E-05  1.32333378E-04  6.53864361E-05 -8.69167673E-05
  8.72878389E-08 -3.81503294E-07 -4.19739389E-04  8.88028230E-01  4.39522363E-01
 -6.65128728E-08 -1.23553868E-05  2.65231804E-02  1.31275861E-02  1.31913204E-06
  3.58699116E-06 -1.04267693E-02 -5.16132637E-03 -3.36496089E-05 -9.84543028E-06
  4.63856704E-03  2.29734510E-03 -4.69270144E-07  2.12746387E-06 -1.97898016E-06
  2.92660161E-04  1.44842577E-04  5.54357175E-06  2.67629482E-05 -2.46991784E-04
  2.07494798E-03  1.17905950E-04 -2.31237995E-05 -2.17361614E-05 -5.98468610E-05
  5.67355798E-04 -4.66827862E-03 -2.66432032E-04 -4.39921887E-05 -2.38625989E-05
  3.35051581E-05 -3.13161096E-04  2.59463131E-03  1.48650036E-04 -3.46408006E-05
 -4.63702003E-06 -2.20129445E-08 -4.06926089E-08 -1.32010239E-07  3.63572566E-05