RxCoord=3.99752 DE=45.54                                                
Freq      RB3LYP                                                      6-31++G(d,p)        
Number of atoms                            I                7
Info1-9                                    I   N=           9
          16          16           0           0           0         100
           6          18        -502
Full Title                                 C   N=           2
RxCoord=3.99752 DE=45.54
Route                                      C   N=           6
#p b3lyp 6-31++g(d,p) scf=verytight NoSymm freq=noraman int=
ultrafine   
Charge                                     I               -1
Multiplicity                               I                1
Number of electrons                        I               40
Number of alpha electrons                  I               20
Number of beta electrons                   I               20
Number of basis functions                  I               98
Number of independent functions            I               98
Number of point charges in /Mol/           I                0
Number of translation vectors              I                0
Atomic numbers                             I   N=           7
           6          17           1           1           1           6
           7
Nuclear charges                            R   N=           7
  6.00000000E+00  1.70000000E+01  1.00000000E+00  1.00000000E+00  1.00000000E+00
  6.00000000E+00  7.00000000E+00
Current cartesian coordinates              R   N=          21
 -7.42565991E-01 -1.13383567E-05  3.36182278E-03 -4.19931349E+00 -1.13383567E-05
 -1.64406173E-04 -1.11420142E-01  4.44652557E-03 -1.94717758E+00 -1.14315202E-01
  1.68805455E+00  9.83451270E-01 -1.14713935E-01 -1.69246895E+00  9.75767643E-01
  4.80174306E+00  6.61404144E-05 -4.87927285E-03  7.03261199E+00 -2.07869874E-05
  8.42817852E-04
Number of symbols in /Mol/                 I                0
Force Field                                I                0
Atom Types                                 C   N=           7
                                                            
                        
Int Atom Types                             I   N=           7
           0           0           0           0           0           0
           0
MM charges                                 R   N=           7
  0.00000000E+00  0.00000000E+00  0.00000000E+00  0.00000000E+00  0.00000000E+00
  0.00000000E+00  0.00000000E+00
Integer atomic weights                     I   N=           7
          12          35           1           1           1          12
          14
Real atomic weights                        R   N=           7
  1.20000000E+01  3.49688527E+01  1.00782504E+00  1.00782504E+00  1.00782504E+00
  1.20000000E+01  1.40030740E+01
Atom fragment info                         I   N=           7
           0           0           0           0           0           0
           0
Atom residue num                           I   N=           7
           0           0           0           0           0           0
           0
Nuclear spins                              I   N=           7
           0           3           1           1           1           0
           2
Nuclear ZEff                               R   N=           7
 -3.60000000E+00 -1.42400000E+01 -1.00000000E+00 -1.00000000E+00 -1.00000000E+00
 -3.60000000E+00 -4.55000000E+00
Nuclear ZNuc                               R   N=           7
  6.00000000E+00  1.70000000E+01  1.00000000E+00  1.00000000E+00  1.00000000E+00
  6.00000000E+00  7.00000000E+00
Nuclear QMom                               R   N=           7
  0.00000000E+00 -8.16500000E+00  0.00000000E+00  0.00000000E+00  0.00000000E+00
  0.00000000E+00  2.04400000E+00
Nuclear GFac                               R   N=           7
  0.00000000E+00  8.21874000E-01  2.79284600E+00  2.79284600E+00  2.79284600E+00
  0.00000000E+00  4.03761000E-01
MicOpt                                     I   N=           7
          -1          -1          -1          -1          -1          -1
          -1
Number of residues                         I                0
Number of secondary structures             I                0
Number of contracted shells                I               33
Number of primitive shells                 I               72
Pure/Cartesian d shells                    I                1
Pure/Cartesian f shells                    I                0
Highest angular momentum                   I                2
Largest degree of contraction              I                6
Shell types                                I   N=          33
           0          -1          -1          -1           2           0
          -1          -1          -1          -1           2           0
           0           0           1           0           0           0
           1           0           0           0           1           0
          -1          -1          -1           2           0          -1
          -1          -1           2
Number of primitives per shell             I   N=          33
           6           3           1           1           1           6
           6           3           1           1           1           3
           1           1           1           3           1           1
           1           3           1           1           1           6
           3           1           1           1           6           3
           1           1           1
Shell to atom map                          I   N=          33
           1           1           1           1           1           2
           2           2           2           2           2           3
           3           3           3           4           4           4
           4           5           5           5           5           6
           6           6           6           6           7           7
           7           7           7
Primitive exponents                        R   N=          72
  3.04752488E+03  4.57369518E+02  1.03948685E+02  2.92101553E+01  9.28666296E+00
  3.16392696E+00  7.86827235E+00  1.88128854E+00  5.44249258E-01  1.68714478E-01
  4.38000000E-02  8.00000000E-01  2.51801000E+04  3.78035000E+03  8.60474000E+02
  2.42145000E+02  7.73349000E+01  2.62470000E+01  4.91765000E+02  1.16984000E+02
  3.74153000E+01  1.37834000E+01  5.45215000E+00  2.22588000E+00  3.18649000E+00
  1.14427000E+00  4.20377000E-01  1.42657000E-01  4.83000000E-02  7.50000000E-01
  1.87311370E+01  2.82539436E+00  6.40121692E-01  1.61277759E-01  3.60000000E-02
  1.10000000E+00  1.87311370E+01  2.82539436E+00  6.40121692E-01  1.61277759E-01
  3.60000000E-02  1.10000000E+00  1.87311370E+01  2.82539436E+00  6.40121692E-01
  1.61277759E-01  3.60000000E-02  1.10000000E+00  3.04752488E+03  4.57369518E+02
  1.03948685E+02  2.92101553E+01  9.28666296E+00  3.16392696E+00  7.86827235E+00
  1.88128854E+00  5.44249258E-01  1.68714478E-01  4.38000000E-02  8.00000000E-01
  4.17351146E+03  6.27457911E+02  1.42902093E+02  4.02343293E+01  1.28202129E+01
  4.39043701E+00  1.16263619E+01  2.71627981E+00  7.72218397E-01  2.12031498E-01
  6.39000000E-02  8.00000000E-01
Contraction coefficients                   R   N=          72
  1.83473713E-03  1.40373228E-02  6.88426223E-02  2.32184443E-01  4.67941348E-01
  3.62311985E-01 -1.19332420E-01 -1.60854152E-01  1.14345644E+00  1.00000000E+00
  1.00000000E+00  1.00000000E+00  1.83295985E-03  1.40341988E-02  6.90973943E-02
  2.37451980E-01  4.83033960E-01  3.39855972E-01 -2.29739142E-03 -3.07137189E-02
 -1.12528069E-01  4.50163278E-02  5.89353363E-01  4.65206287E-01 -2.51828028E-01
  6.15892514E-02  1.06018433E+00  1.00000000E+00  1.00000000E+00  1.00000000E+00
  3.34946043E-02  2.34726953E-01  8.13757326E-01  1.00000000E+00  1.00000000E+00
  1.00000000E+00  3.34946043E-02  2.34726953E-01  8.13757326E-01  1.00000000E+00
  1.00000000E+00  1.00000000E+00  3.34946043E-02  2.34726953E-01  8.13757326E-01
  1.00000000E+00  1.00000000E+00  1.00000000E+00  1.83473713E-03  1.40373228E-02
  6.88426223E-02  2.32184443E-01  4.67941348E-01  3.62311985E-01 -1.19332420E-01
 -1.60854152E-01  1.14345644E+00  1.00000000E+00  1.00000000E+00  1.00000000E+00
  1.83477216E-03  1.39946270E-02  6.85865518E-02  2.32240873E-01  4.69069948E-01
  3.60455199E-01 -1.14961182E-01 -1.69117479E-01  1.14585195E+00  1.00000000E+00
  1.00000000E+00  1.00000000E+00
P(S=P) Contraction coefficients            R   N=          72
  0.00000000E+00  0.00000000E+00  0.00000000E+00  0.00000000E+00  0.00000000E+00
  0.00000000E+00  6.89990666E-02  3.16423961E-01  7.44308291E-01  1.00000000E+00
  1.00000000E+00  0.00000000E+00  0.00000000E+00  0.00000000E+00  0.00000000E+00
  0.00000000E+00  0.00000000E+00  0.00000000E+00  3.98940088E-03  3.03177067E-02
  1.29880029E-01  3.27951072E-01  4.53527100E-01  2.52154056E-01 -1.42993147E-02
  3.23572333E-01  7.43507765E-01  1.00000000E+00  1.00000000E+00  0.00000000E+00
  0.00000000E+00  0.00000000E+00  0.00000000E+00  0.00000000E+00  0.00000000E+00
  0.00000000E+00  0.00000000E+00  0.00000000E+00  0.00000000E+00  0.00000000E+00
  0.00000000E+00  0.00000000E+00  0.00000000E+00  0.00000000E+00  0.00000000E+00
  0.00000000E+00  0.00000000E+00  0.00000000E+00  0.00000000E+00  0.00000000E+00
  0.00000000E+00  0.00000000E+00  0.00000000E+00  0.00000000E+00  6.89990666E-02
  3.16423961E-01  7.44308291E-01  1.00000000E+00  1.00000000E+00  0.00000000E+00
  0.00000000E+00  0.00000000E+00  0.00000000E+00  0.00000000E+00  0.00000000E+00
  0.00000000E+00  6.75797439E-02  3.23907296E-01  7.40895140E-01  1.00000000E+00
  1.00000000E+00  0.00000000E+00
Coordinates of each shell                  R   N=          99
 -7.42565991E-01 -1.13383567E-05  3.36182278E-03 -7.42565991E-01 -1.13383567E-05
  3.36182278E-03 -7.42565991E-01 -1.13383567E-05  3.36182278E-03 -7.42565991E-01
 -1.13383567E-05  3.36182278E-03 -7.42565991E-01 -1.13383567E-05  3.36182278E-03
 -4.19931349E+00 -1.13383567E-05 -1.64406173E-04 -4.19931349E+00 -1.13383567E-05
 -1.64406173E-04 -4.19931349E+00 -1.13383567E-05 -1.64406173E-04 -4.19931349E+00
 -1.13383567E-05 -1.64406173E-04 -4.19931349E+00 -1.13383567E-05 -1.64406173E-04
 -4.19931349E+00 -1.13383567E-05 -1.64406173E-04 -1.11420142E-01  4.44652557E-03
 -1.94717758E+00 -1.11420142E-01  4.44652557E-03 -1.94717758E+00 -1.11420142E-01
  4.44652557E-03 -1.94717758E+00 -1.11420142E-01  4.44652557E-03 -1.94717758E+00
 -1.14315202E-01  1.68805455E+00  9.83451270E-01 -1.14315202E-01  1.68805455E+00
  9.83451270E-01 -1.14315202E-01  1.68805455E+00  9.83451270E-01 -1.14315202E-01
  1.68805455E+00  9.83451270E-01 -1.14713935E-01 -1.69246895E+00  9.75767643E-01
 -1.14713935E-01 -1.69246895E+00  9.75767643E-01 -1.14713935E-01 -1.69246895E+00
  9.75767643E-01 -1.14713935E-01 -1.69246895E+00  9.75767643E-01  4.80174306E+00
  6.61404144E-05 -4.87927285E-03  4.80174306E+00  6.61404144E-05 -4.87927285E-03
  4.80174306E+00  6.61404144E-05 -4.87927285E-03  4.80174306E+00  6.61404144E-05
 -4.87927285E-03  4.80174306E+00  6.61404144E-05 -4.87927285E-03  7.03261199E+00
 -2.07869874E-05  8.42817852E-04  7.03261199E+00 -2.07869874E-05  8.42817852E-04
  7.03261199E+00 -2.07869874E-05  8.42817852E-04  7.03261199E+00 -2.07869874E-05
  8.42817852E-04  7.03261199E+00 -2.07869874E-05  8.42817852E-04
Num ILSW                                   I              100
ILSW                                       I   N=         100
           0           1           0           0           2           0
           0           0           0           0         402          -1
           5           0           0           0           2           0
           0           0           0           0           1           0
           1           1           0           0           0           0
           0           0      100000           0          -1           0
           0           0           0           0           0           0
           0           0           0           1           0           0
           0 -2000000000           1           0           0           0
           0           0           4          52           0           0
           0           0           5           0           0           0
           0           0           0           7           0           1
           0           0           0           0           0           0
           0           0           0           0           0           0
           0           0           0           0           0           0
           0           0           0           0           0           0
           0           0           0           0
Num RLSW                                   I               52
RLSW                                       R   N=          52
  8.00000000E-01  7.20000000E-01  1.00000000E+00  8.10000000E-01  2.00000000E-01
  0.00000000E+00  0.00000000E+00  1.00000000E+00  0.00000000E+00  0.00000000E+00
  0.00000000E+00  0.00000000E+00  1.00000000E+00  0.00000000E+00  0.00000000E+00
  0.00000000E+00  0.00000000E+00  1.00000000E+00  0.00000000E+00  0.00000000E+00
  0.00000000E+00  0.00000000E+00  1.00000000E+00  0.00000000E+00  0.00000000E+00
  0.00000000E+00  0.00000000E+00  1.00000000E+00  0.00000000E+00  0.00000000E+00
  0.00000000E+00  0.00000000E+00  1.00000000E+00  0.00000000E+00  0.00000000E+00
  0.00000000E+00  0.00000000E+00  0.00000000E+00  1.00000000E+00  1.00000000E+00
  0.00000000E+00  1.00000000E+00  0.00000000E+00  0.00000000E+00  0.00000000E+00
  0.00000000E+00  0.00000000E+00  0.00000000E+00  0.00000000E+00  0.00000000E+00
  0.00000000E+00  0.00000000E+00
MxBond                                     I                4
NBond                                      I   N=           7
           4           1           1           1           1           1
           1
IBond                                      I   N=          28
           2           3           4           5           1           0
           0           0           1           0           0           0
           1           0           0           0           1           0
           0           0           7           0           0           0
           6           0           0           0
RBond                                      R   N=          28
  1.00000000E+00  1.00000000E+00  1.00000000E+00  1.00000000E+00  1.00000000E+00
  0.00000000E+00  0.00000000E+00  0.00000000E+00  1.00000000E+00  0.00000000E+00
  0.00000000E+00  0.00000000E+00  1.00000000E+00  0.00000000E+00  0.00000000E+00
  0.00000000E+00  1.00000000E+00  0.00000000E+00  0.00000000E+00  0.00000000E+00
  2.00000000E+00  0.00000000E+00  0.00000000E+00  0.00000000E+00  2.00000000E+00
  0.00000000E+00  0.00000000E+00  0.00000000E+00
Virial Ratio                               R      2.004561457618944E+00
SCF Energy                                 R     -5.929948283423281E+02
Total Energy                               R     -5.929948283423281E+02
RMS Force                                  R      2.899380479695446E-03
RMS Density                                R      1.851513559543724E-09
NImag                                      I                2
Job Status                                 I                1
Nuclear derivative order                   I                2
External E-field                           R   N=          35
  0.00000000E+00  0.00000000E+00  0.00000000E+00  0.00000000E+00  0.00000000E+00
  0.00000000E+00  0.00000000E+00  0.00000000E+00  0.00000000E+00  0.00000000E+00
  0.00000000E+00  0.00000000E+00  0.00000000E+00  0.00000000E+00  0.00000000E+00
  0.00000000E+00  0.00000000E+00  0.00000000E+00  0.00000000E+00  0.00000000E+00
  0.00000000E+00  0.00000000E+00  0.00000000E+00  0.00000000E+00  0.00000000E+00
  0.00000000E+00  0.00000000E+00  0.00000000E+00  0.00000000E+00  0.00000000E+00
  0.00000000E+00  0.00000000E+00  0.00000000E+00  0.00000000E+00  0.00000000E+00
IOpCl                                      I                0
IROHF                                      I                0
Alpha Orbital Energies                     R   N=          98
 -1.01413151E+02 -1.40940832E+01 -1.01027038E+01 -9.95968516E+00 -9.32935236E+00
 -7.09241137E+00 -7.08397794E+00 -7.08397778E+00 -7.18753456E-01 -6.47023448E-01
 -5.41398224E-01 -3.09440899E-01 -3.09390170E-01 -2.79398411E-01 -1.82226639E-01
 -1.77564681E-01 -1.77553841E-01 -9.61617371E-02 -9.61611759E-02 -6.85652559E-02
  1.08038218E-01  1.25919428E-01  1.44069896E-01  1.44117129E-01  1.73186170E-01
  2.01523497E-01  2.02078677E-01  2.02082585E-01  2.20036043E-01  2.20203625E-01
  2.39667241E-01  2.48487889E-01  2.48593310E-01  2.69781968E-01  2.76402132E-01
  2.76512463E-01  3.13042341E-01  3.32288012E-01  3.32449153E-01  3.60244425E-01
  3.85487814E-01  3.85613822E-01  3.88379470E-01  4.63772389E-01  4.78663060E-01
  6.42985325E-01  7.26810248E-01  7.42631522E-01  7.42659849E-01  7.71330271E-01
  7.71466091E-01  8.74142958E-01  8.96846231E-01  8.96877014E-01  9.72745010E-01
  9.91620203E-01  9.91662662E-01  1.04243562E+00  1.04250707E+00  1.08064140E+00
  1.09276510E+00  1.09278394E+00  1.12375783E+00  1.18948295E+00  1.18956355E+00
  1.21759544E+00  1.26619425E+00  1.37218100E+00  1.46233007E+00  1.59933561E+00
  1.59943073E+00  1.73529209E+00  1.78273310E+00  1.78273655E+00  1.80469108E+00
  1.80471713E+00  2.15515290E+00  2.20229476E+00  2.20233420E+00  2.21478560E+00
  2.21508266E+00  2.29343084E+00  2.48576488E+00  2.48582168E+00  2.67801262E+00
  2.81575800E+00  2.83536899E+00  2.83539735E+00  2.95126527E+00  2.95156436E+00
  3.25622438E+00  3.37986456E+00  3.55345659E+00  3.55390545E+00  4.20759692E+00
  4.40965530E+00  4.45423599E+00  4.56941445E+00
Alpha MO coefficients                      R   N=        9604
 -6.53790126E-06  2.58221822E-05 -5.34602497E-05 -2.21480877E-09 -7.26825651E-08
  1.16203604E-04 -2.92218762E-05 -4.06224873E-09 -9.32299580E-08 -3.95766066E-05
 -6.88371827E-05  6.63614531E-09  1.17207528E-07 -2.15391910E-05  1.20682836E-05
  1.20718589E-05  2.74322400E-09 -4.34279462E-08 -3.48504466E-09  9.95996911E-01
  1.51506021E-02  4.04891739E-05  1.07034231E-09  4.79399848E-08 -2.10653724E-02
 -1.77233692E-05  9.42379724E-11 -1.20177268E-08  1.88744411E-03 -4.66628953E-05
 -4.50945956E-10 -6.37845882E-08 -3.97679086E-04 -2.06094020E-05 -2.40602120E-10
 -4.88888847E-08  7.50314611E-03  7.52454856E-03  7.52455012E-03  3.90270510E-10
 -2.60790826E-08 -4.81128922E-11 -2.75945376E-05 -3.33055107E-05  4.39512739E-05
  2.35250716E-05  2.79909099E-08 -1.22913001E-05 -2.76083936E-05 -3.30893529E-05
  4.35773385E-05  2.35209677E-05  1.06304156E-05  6.19862185E-06 -2.76243929E-05
 -3.30843480E-05  4.35950761E-05  2.35096346E-05 -1.06597279E-05  6.15098915E-06
 -2.01200802E-07  1.90920821E-06 -1.15932390E-07  2.28436470E-10 -2.77176893E-08
 -1.03175422E-04 -7.94741227E-05  2.48862825E-09 -1.18218190E-07 -2.63718015E-05
 -6.88691579E-05 -7.91631864E-10  1.31337071E-07 -9.28096098E-06  1.14111860E-06
  1.14280942E-06  3.70318838E-10 -3.10896852E-08  5.96432102E-11 -1.71067763E-06
 -6.77083962E-06 -7.74453891E-07  8.55675413E-11 -2.18902589E-09  1.01582479E-04
 -5.68208822E-05  2.07541450E-09 -1.49044838E-07  9.52453069E-05  7.34221048E-06
  1.98543587E-09 -1.95465768E-07  3.58630191E-06 -5.20544423E-06 -5.20583128E-06
 -4.91339214E-10  3.58190639E-08 -3.73275301E-12  3.92590588E-06  1.51174640E-05
  4.73154230E-06  5.85296900E-10 -3.21443613E-08 -3.73474203E-05 -3.98730875E-05
 -6.68061769E-09  6.21890529E-08  1.00349226E-03  1.09758847E-04  2.56729866E-08
 -1.28359927E-06  3.46256758E-06  9.80002511E-06  9.79079412E-06  1.85114672E-10
  7.59937316E-09 -7.45662235E-10  1.45866217E-07  2.55764416E-06 -1.29068052E-07
 -5.32370689E-11 -3.19864112E-09  6.64702545E-06  1.31754626E-06  2.84480488E-10
  1.91106614E-08 -6.47638158E-05 -3.10288771E-05 -3.00960880E-10 -1.02565456E-07
 -1.40769445E-04 -6.51414178E-05 -1.08515012E-08  5.83028262E-07  2.69207611E-06
  5.00305220E-06  5.00308934E-06 -1.33335399E-10 -2.16340959E-10 -1.44221029E-10
  1.03165075E-05 -4.41002866E-05 -1.65785786E-04  1.78517612E-06  6.01329276E-09
 -2.47222586E-06  1.02621742E-05 -4.38791186E-05 -1.66570539E-04  1.85173933E-06
  2.10839263E-06  1.21995727E-06  1.02600978E-05 -4.38841305E-05 -1.66547282E-04
  1.85477960E-06 -2.11463337E-06  1.21121885E-06  8.34107228E-05  2.09539594E-04
 -2.80580067E-04  1.06054078E-08 -6.98346308E-07 -2.42432184E-04 -4.21698074E-04
  1.77237231E-08 -1.20193510E-06  1.45645196E-03  1.00098975E-03 -2.45644955E-08
  2.24721513E-06 -7.57756125E-04 -1.37303730E-05 -1.37332332E-05  3.33631096E-08
 -2.20544103E-06  1.57664124E-10  9.92698984E-01  3.44404473E-02 -1.39626204E-03
  5.42699525E-08 -3.58116616E-06  5.20518616E-03  1.09762951E-04 -3.42727562E-09
  2.85211035E-07 -2.99517230E-03  6.08345027E-05 -1.05680505E-08  3.58938303E-07
 -7.70734782E-03 -8.42075199E-03 -8.42074866E-03 -3.19929795E-08  2.10168050E-06
 -6.49534156E-11  9.92989625E-01  4.96292093E-02 -7.31353719E-04 -6.39255749E-08
  8.35275611E-07 -1.64588431E-02  9.31744448E-04  2.71265778E-07  9.39966021E-07
  6.85768768E-03 -3.41991752E-03 -1.18310875E-07 -1.98498647E-06 -9.27953366E-03
 -8.86770459E-03 -8.86826215E-03  1.45514434E-08 -2.67404973E-07 -5.84989181E-08
 -9.37022143E-06 -5.08987598E-05 -2.58049806E-06  4.70811864E-09 -8.78867014E-09
 -2.05500908E-05  1.88804602E-04 -2.96064528E-08  2.35652966E-07  3.27137788E-03
  1.87137901E-03  9.47112410E-08  1.81508542E-06 -5.92293699E-03 -1.94666437E-03
 -4.18943253E-08 -2.66097169E-06 -1.39046881E-04 -1.79821196E-04 -1.79798349E-04
  1.53490035E-08 -3.93034037E-09  1.11480738E-08 -1.58057918E-04  3.02124486E-03
 -9.58316108E-04  2.76888523E-05  1.83626625E-07 -9.53005432E-05 -1.58860532E-04
  3.02090542E-03 -9.59460170E-04  2.80456721E-05  8.31447538E-05  4.82998714E-05
 -1.58928632E-04  3.02149358E-03 -9.60209515E-04  2.80663613E-05 -8.33311599E-05
  4.78647770E-05 -1.99434023E-05 -4.49545328E-05  4.19055740E-05  1.94905055E-08
 -5.68128210E-07 -3.79856802E-04 -7.68289411E-04 -4.96063092E-08  1.05247373E-06
  1.96777328E-03  3.33354676E-04 -2.03355665E-07  4.05137244E-06 -5.64206718E-05
 -3.31696844E-05 -3.32858357E-05  7.73966940E-09 -3.21401014E-07 -2.28406942E-09
 -2.82308907E-05 -1.01718051E-04 -1.13566387E-05 -4.35784711E-09  2.55736822E-07
  1.10150151E-03 -3.24043858E-04  3.49637697E-08 -2.26541116E-06 -1.05167187E-03
 -8.09232314E-05  1.12727045E-07 -5.37228759E-07 -2.33039368E-05 -6.99698470E-05
 -6.99571861E-05 -7.64941933E-09  2.77681159E-07 -5.63462289E-12 -1.58627949E-05
 -7.50098989E-05 -8.12625242E-05  6.64068557E-10 -3.65916207E-08  5.02018660E-04
  4.49819693E-04 -4.78818622E-08  1.25479472E-06 -1.11167549E-03  2.48613132E-03
  4.76019933E-08  1.06698018E-06 -3.71746961E-05 -2.85895261E-05 -2.87220530E-05
 -3.32139390E-10 -1.50689386E-08 -2.62699730E-09  1.24510274E-07  6.04259364E-06
  3.52519385E-06 -8.97814210E-10  1.32509209E-08  1.34949623E-05 -2.47776463E-05
  5.41650033E-09 -7.46331322E-08 -1.48445319E-04  2.35385117E-04 -1.58756486E-08
  2.32924615E-07  3.48502707E-03  8.38908996E-04  2.16103880E-09  1.25717811E-06
  3.63826817E-05 -2.37040391E-08 -3.87020767E-08 -2.16738704E-09  4.45525886E-08
 -1.59465477E-09 -2.67520492E-05 -4.70062369E-04 -2.56466138E-04 -3.65096870E-05
  4.54201229E-08 -1.87652172E-05 -2.65010322E-05 -4.72035216E-04 -2.51584332E-04
 -3.69026876E-05  1.65488171E-05  9.52946817E-06 -2.64758981E-05 -4.72143249E-04
 -2.51336276E-04 -3.69267532E-05 -1.65982914E-05  9.46099026E-06  9.92844948E-01
  4.92756259E-02  1.87979496E-03 -7.84425176E-08  5.17212736E-06 -1.12180746E-02
 -1.05002709E-03  6.50222909E-08 -4.24138879E-06 -5.47992426E-03 -1.26985961E-03
  1.49101348E-07 -8.77069661E-06 -8.46443215E-03 -9.69392913E-03 -9.69389351E-03
 -5.64491845E-08  3.65315448E-06  4.53966570E-10 -4.94823375E-04  1.61649951E-05
  4.40933192E-04 -1.64516120E-08  1.09619541E-06 -7.07240061E-04  3.49938051E-04
 -1.84020720E-08  1.25664039E-06  8.88343785E-03 -3.07347232E-03  7.24635233E-08
 -5.49071061E-06 -2.73846942E-04  1.53247226E-04  1.53243965E-04  2.11361759E-08
 -1.38594200E-06  8.97429594E-11 -1.10317202E-04  1.26966704E-04  3.71720302E-04
  6.17747553E-09  2.02848486E-07  3.01369134E-03 -1.60006326E-03  1.03771478E-07
  1.36638624E-06 -3.76638138E-02  3.31198778E-02 -2.66311266E-08  1.14041127E-05
 -7.70314270E-04 -1.27328908E-04 -1.27683395E-04 -1.86817827E-09 -7.19305052E-07
  3.13983843E-08 -2.84605040E-01  1.02274211E+00  4.95874481E-03  1.29848579E-07
  6.23859909E-06  7.60192697E-02  6.17517166E-04  2.50444316E-09  4.52675869E-07
 -2.64495073E-02 -1.76977890E-03 -3.28723293E-08 -1.50153186E-06  6.09408694E-02
  1.70221148E-02 -2.67795915E-08  2.49976979E-05 -1.51898314E-02 -1.55817971E-02
 -1.55818503E-02 -4.37845449E-09  6.09597102E-07 -8.91828760E-10 -4.20989767E-05
 -7.10049009E-04  8.56492504E-04 -7.14701943E-05 -3.30583371E-08  1.35798496E-05
 -4.17974857E-05 -7.15645763E-04  8.66739222E-04 -7.17168395E-05 -1.12584199E-05
 -6.82881766E-06 -4.17346796E-05 -7.15506743E-04  8.66265375E-04 -7.18459430E-05
  1.13013399E-05 -6.78704075E-06  1.24110250E-05  5.64314832E-05  4.45149107E-05
 -2.37527733E-08  1.32758619E-06  3.93434534E-04  5.85685460E-04  6.43051372E-08
 -2.99193750E-06 -1.62093189E-02  9.13571659E-03  3.51689230E-07 -4.83733218E-05
  7.85222743E-05  2.89660840E-06  2.91272623E-06 -3.96982324E-09  4.04056444E-07
  5.44018599E-10  1.09526389E-05  5.85835574E-05 -1.75114585E-05 -4.74889781E-09
  8.12864718E-07 -7.83552271E-04  5.70740166E-04 -6.43026447E-09 -2.22723223E-06
  4.96470236E-04 -2.55111713E-03 -2.20932460E-07  2.73551047E-05 -4.54502070E-05
  2.90217656E-05  2.90199494E-05  9.98196063E-09 -5.69656933E-07 -1.64225626E-10
  7.31538406E-05  1.61029042E-03  4.08895463E-04 -1.20463431E-08  9.83797645E-07
 -7.81789669E-04  1.47258347E-03  4.02363222E-07 -3.29001046E-06  4.84472895E-02
 -5.07862749E-02 -3.91673309E-07 -1.28663552E-05 -1.96319595E-03  2.12016749E-04
  2.12655151E-04 -3.12222439E-08 -2.69538029E-06  6.77764499E-08  1.46138432E-03
 -5.56350788E-03  9.90325278E-01  2.51985816E-05  1.09180428E-03 -4.06209672E-04
  3.14907234E-02  7.43689195E-07  3.47473734E-05  4.99604177E-03 -1.29372928E-02
 -2.85816575E-07 -1.36202605E-05 -6.98602901E-02 -1.36743458E-02  1.24270857E-07
 -3.02848542E-05  7.62361525E-04 -4.59321032E-04 -4.59265061E-04 -6.95812704E-09
  1.38257821E-06  2.92918328E-09 -1.55301894E-04  1.36749018E-03 -5.26923464E-03
 -3.13067053E-04  5.00687510E-08 -3.08412959E-05 -1.54855098E-04  1.37207242E-03
 -5.26467847E-03 -3.12952178E-04  2.58327449E-05  1.50569400E-05 -1.54584237E-04
  1.37249869E-03 -5.26545209E-03 -3.13128508E-04 -2.59107710E-05  1.49216479E-05
 -2.27390001E-05 -1.53490187E-04 -9.23893495E-05  2.57852162E-08 -1.73172807E-06
  2.15367185E-03  1.24690888E-03 -1.45943767E-07  9.04561482E-06  3.59433923E-02
 -1.55223769E-02 -6.67882791E-07  8.73248401E-05  1.16892785E-04 -3.89641189E-05
 -3.89680839E-05 -6.01741628E-09  2.21207001E-07 -7.18245524E-10 -1.81964867E-05
 -5.30892253E-05  3.84448606E-05  8.53964775E-09 -1.31527108E-06 -4.07931358E-04
  6.03031034E-04 -6.02504646E-08  7.88602473E-06 -7.51705443E-03  5.61541969E-03
  3.10883119E-07 -4.31413322E-05 -1.27312725E-04 -1.77003131E-05 -1.76868414E-05
 -1.79924463E-09  1.24518270E-07  9.31832335E-12 -1.26730024E-08 -1.21896405E-07
  1.48092930E-07 -8.16404763E-05 -1.51973649E-05  5.39435757E-07 -1.02200318E-06
  3.18126521E-04  5.95218724E-05  1.10362352E-06 -7.17865310E-06  4.45604573E-04
  8.40496045E-05  8.81094391E-09 -1.47008466E-05  1.47635441E-05  1.45334078E-04
  2.70334205E-05 -9.48730369E-05  3.52680248E-08 -1.36591772E-07 -2.24862349E-04
  9.74080482E-01  1.81499776E-01 -1.32476917E-09 -6.74985707E-06  2.90920729E-02
  5.42077012E-03 -2.89018430E-08  2.02239018E-06 -1.14363990E-02 -2.13122197E-03
 -8.25536907E-06 -2.85887221E-06  5.08597624E-03  9.48305002E-04 -2.60320129E-07
  9.01552994E-07 -7.55411733E-07  3.21500183E-04  5.99012108E-05  6.09626101E-06
  1.09317583E-05 -1.01771229E-04  8.49707536E-04  4.83516851E-05 -2.53478469E-05
 -8.94961694E-06 -5.68379039E-05  5.32683233E-04 -4.40118324E-03 -2.51359647E-04
 -4.47382108E-05 -1.62399342E-05  4.58469567E-05 -4.30346437E-04  3.55234014E-03
  2.03279385E-04 -4.10907015E-05  4.53043288E-06 -9.32808809E-10  1.44458168E-08
 -5.32708115E-08  3.91604177E-05  7.32375888E-06 -3.10944678E-06 -2.26844295E-06
 -1.50526430E-04 -2.83033099E-05  5.15519449E-06 -3.79524693E-06  9.71429028E-04
  1.83476304E-04 -1.66288661E-07  6.82687283E-07 -5.92208042E-07 -6.49456855E-06
 -1.23792654E-06  4.06475140E-06 -7.91012359E-08 -3.09338553E-07  2.06279390E-08
 -1.79182713E-05 -3.41882603E-06  3.63570988E-06 -1.80449540E-06  1.10239461E-04
  2.09826809E-05  2.24455356E-07  1.32226575E-06 -4.14685158E-04 -7.89314093E-05
  3.21769090E-08  6.78695963E-08 -4.90541501E-07 -1.06677086E-05 -2.00132078E-06
  1.80246512E-06  7.13572714E-08  2.44656556E-07  8.78384276E-07  1.52250010E-05
 -8.16314034E-05 -2.03588033E-06 -5.62724670E-06 -5.90923899E-05  3.18457071E-04
  1.21602243E-05 -5.66412261E-05 -8.32115550E-05  4.52056995E-04  8.32147798E-08
 -8.22828212E-05  8.25313291E-05 -2.70843218E-05  1.45106503E-04  1.70574222E-05
  1.98356937E-07 -8.29043824E-07 -1.06931449E-03 -1.81499922E-01  9.74079827E-01
 -9.66249934E-08 -3.17602688E-05 -5.42072096E-03  2.90924459E-02  1.78185695E-06
  9.35790799E-06  2.13094542E-03 -1.14379593E-02 -6.43012284E-05 -1.97858638E-05
 -9.47711727E-04  5.08962421E-03 -1.21833056E-06  4.87752961E-06 -4.35560720E-06
 -5.99150039E-05  3.21534171E-04 -1.09203578E-06  5.92972093E-05 -5.51200699E-04
  4.62004198E-03  2.62810864E-04  4.77260426E-06 -4.82670287E-05 -2.00430189E-05
  1.92539736E-04 -1.57608326E-03 -8.91599537E-05 -2.28078624E-06 -2.95700141E-05
 -3.88155277E-05  3.69963397E-04 -3.03991504E-03 -1.72878051E-04  1.82799101E-05
 -3.33398269E-05 -2.96974880E-08 -1.25011263E-08 -3.05606878E-07 -7.29842352E-06