 Entering Gaussian System, Link 0=g16
 Initial command:
 /usr/local/g16_AVX//g16/l1.exe "/scratch/alanqf/0141-54583.ixchel.mda.cinvestav.mx/Gau-27086.inp" -scrdir="/scratch/alanqf/0141-54583.ixchel.mda.cinvestav.mx/"
 Entering Link 1 = /usr/local/g16_AVX//g16/l1.exe PID=     27087.
  
 Copyright (c) 1988-2017, Gaussian, Inc.  All Rights Reserved.
  
 This is part of the Gaussian(R) 16 program.  It is based on
 the Gaussian(R) 09 system (copyright 2009, Gaussian, Inc.),
 the Gaussian(R) 03 system (copyright 2003, Gaussian, Inc.),
 the Gaussian(R) 98 system (copyright 1998, Gaussian, Inc.),
 the Gaussian(R) 94 system (copyright 1995, Gaussian, Inc.),
 the Gaussian 92(TM) system (copyright 1992, Gaussian, Inc.),
 the Gaussian 90(TM) system (copyright 1990, Gaussian, Inc.),
 the Gaussian 88(TM) system (copyright 1988, Gaussian, Inc.),
 the Gaussian 86(TM) system (copyright 1986, Carnegie Mellon
 University), and the Gaussian 82(TM) system (copyright 1983,
 Carnegie Mellon University). Gaussian is a federally registered
 trademark of Gaussian, Inc.
  
 This software contains proprietary and confidential information,
 including trade secrets, belonging to Gaussian, Inc.
  
 This software is provided under written license and may be
 used, copied, transmitted, or stored only in accord with that
 written license.
  
 The following legend is applicable only to US Government
 contracts under FAR:
  
                    RESTRICTED RIGHTS LEGEND
  
 Use, reproduction and disclosure by the US Government is
 subject to restrictions as set forth in subparagraphs (a)
 and (c) of the Commercial Computer Software - Restricted
 Rights clause in FAR 52.227-19.
  
 Gaussian, Inc.
 340 Quinnipiac St., Bldg. 40, Wallingford CT 06492
  
  
 ---------------------------------------------------------------
 Warning -- This program may not be used in any manner that
 competes with the business of Gaussian, Inc. or will provide
 assistance to any competitor of Gaussian, Inc.  The licensee
 of this program is prohibited from giving any competitor of
 Gaussian, Inc. access to this program.  By using this program,
 the user acknowledges that Gaussian, Inc. is engaged in the
 business of creating and licensing software in the field of
 computational chemistry and represents and warrants to the
 licensee that it is not a competitor of Gaussian, Inc. and that
 it will not use this program in any manner prohibited above.
 ---------------------------------------------------------------
  

 Cite this work as:
 Gaussian 16, Revision B.01,
 M. J. Frisch, G. W. Trucks, H. B. Schlegel, G. E. Scuseria, 
 M. A. Robb, J. R. Cheeseman, G. Scalmani, V. Barone, 
 G. A. Petersson, H. Nakatsuji, X. Li, M. Caricato, A. V. Marenich, 
 J. Bloino, B. G. Janesko, R. Gomperts, B. Mennucci, H. P. Hratchian, 
 J. V. Ortiz, A. F. Izmaylov, J. L. Sonnenberg, D. Williams-Young, 
 F. Ding, F. Lipparini, F. Egidi, J. Goings, B. Peng, A. Petrone, 
 T. Henderson, D. Ranasinghe, V. G. Zakrzewski, J. Gao, N. Rega, 
 G. Zheng, W. Liang, M. Hada, M. Ehara, K. Toyota, R. Fukuda, 
 J. Hasegawa, M. Ishida, T. Nakajima, Y. Honda, O. Kitao, H. Nakai, 
 T. Vreven, K. Throssell, J. A. Montgomery, Jr., J. E. Peralta, 
 F. Ogliaro, M. J. Bearpark, J. J. Heyd, E. N. Brothers, K. N. Kudin, 
 V. N. Staroverov, T. A. Keith, R. Kobayashi, J. Normand, 
 K. Raghavachari, A. P. Rendell, J. C. Burant, S. S. Iyengar, 
 J. Tomasi, M. Cossi, J. M. Millam, M. Klene, C. Adamo, R. Cammi, 
 J. W. Ochterski, R. L. Martin, K. Morokuma, O. Farkas, 
 J. B. Foresman, and D. J. Fox, Gaussian, Inc., Wallingford CT, 2016.
 
 ******************************************
 Gaussian 16:  ES64L-G16RevB.01 20-Dec-2017
                13-Oct-2024 
 ******************************************
 %NProcShared=26
 Will use up to   26 processors via shared memory.
 %MEM=20GB
 %chk=CHKfiles/0141.chk
 ---------------------------------------------------------------------
 #p b3lyp 6-31++g(d,p) scf=verytight NoSymm freq=noraman int=ultrafine
 ---------------------------------------------------------------------
 1/10=4,30=1,38=1/1,3;
 2/12=2,15=1,17=6,18=5,40=1/2;
 3/5=1,6=6,7=1111,11=2,25=1,30=1,71=2,74=-5,75=-5,140=1/1,2,3;
 4//1;
 5/5=2,17=3,38=5,98=1/2;
 8/6=4,10=90,11=11/1;
 11/6=1,8=1,9=11,15=111,16=1,31=1/1,2,10;
 10/6=1,31=1/2;
 6/7=2,8=2,9=2,10=2,28=1/1;
 7/8=1,10=1,25=1,30=1/1,2,3,16;
 1/10=4,30=1/3;
 99//99;
 Leave Link    1 at Sun Oct 13 09:52:05 2024, MaxMem=  2684354560 cpu:               1.3 elap:               0.1
 (Enter /usr/local/g16_AVX//g16/l101.exe)
 ------------------------
 RxCoord=3.99752 DE=45.54
 ------------------------
 Symbolic Z-matrix:
 Charge = -1 Multiplicity = 1
 C                    -0.39295  -0.00001   0.00178 
 Cl                   -2.22218  -0.00001  -0.00009 
 H                    -0.05896   0.00235  -1.0304 
 H                    -0.06049   0.89328   0.52042 
 H                    -0.0607   -0.89562   0.51635 
 C                     2.54097   0.00004  -0.00258 
 N                     3.7215   -0.00001   0.00045 
 
 ITRead=  0  0  0  0  0  0  0
 MicOpt= -1 -1 -1 -1 -1 -1 -1
 NAtoms=      7 NQM=        7 NQMF=       0 NMMI=      0 NMMIF=      0
                NMic=       0 NMicF=      0.
                    Isotopes and Nuclear Properties:
 (Nuclear quadrupole moments (NQMom) in fm**2, nuclear magnetic moments (NMagM)
  in nuclear magnetons)

  Atom         1           2           3           4           5           6           7
 IAtWgt=          12          35           1           1           1          12          14
 AtmWgt=  12.0000000  34.9688527   1.0078250   1.0078250   1.0078250  12.0000000  14.0030740
 NucSpn=           0           3           1           1           1           0           2
 AtZEff=  -0.0000000  -0.0000000  -0.0000000  -0.0000000  -0.0000000  -0.0000000  -0.0000000
 NQMom=    0.0000000  -8.1650000   0.0000000   0.0000000   0.0000000   0.0000000   2.0440000
 NMagM=    0.0000000   0.8218740   2.7928460   2.7928460   2.7928460   0.0000000   0.4037610
 AtZNuc=   6.0000000  17.0000000   1.0000000   1.0000000   1.0000000   6.0000000   7.0000000
 Leave Link  101 at Sun Oct 13 09:52:05 2024, MaxMem=  2684354560 cpu:               2.8 elap:               0.1
 (Enter /usr/local/g16_AVX//g16/l103.exe)

 GradGradGradGradGradGradGradGradGradGradGradGradGradGradGradGradGradGrad
 Berny optimization.
 Initialization pass.
 Trust Radius=3.00D-01 FncErr=1.00D-07 GrdErr=1.00D-07 EigMax=2.50D+02 EigMin=1.00D-04
 Number of steps in this run=      2 maximum allowed number of steps=      2.
 GradGradGradGradGradGradGradGradGradGradGradGradGradGradGradGradGradGrad

 Leave Link  103 at Sun Oct 13 09:52:05 2024, MaxMem=  2684354560 cpu:               0.5 elap:               0.1
 (Enter /usr/local/g16_AVX//g16/l202.exe)
                          Input orientation:                          
 ---------------------------------------------------------------------
 Center     Atomic      Atomic             Coordinates (Angstroms)
 Number     Number       Type             X           Y           Z
 ---------------------------------------------------------------------
      1          6           0       -0.392949   -0.000006    0.001779
      2         17           0       -2.222181   -0.000006   -0.000087
      3          1           0       -0.058961    0.002353   -1.030402
      4          1           0       -0.060493    0.893280    0.520420
      5          1           0       -0.060704   -0.895616    0.516354
      6          6           0        2.540973    0.000035   -0.002582
      7          7           0        3.721498   -0.000011    0.000446
 ---------------------------------------------------------------------
                    Distance matrix (angstroms):
                    1          2          3          4          5
     1  C    0.000000
     2  Cl   1.829233   0.000000
     3  H    1.084874   2.396054   0.000000
     4  H    1.085115   2.396202   1.788520   0.000000
     5  H    1.085031   2.395999   1.788520   1.788901   0.000000
     6  C    2.933925   4.763155   2.795725   2.799829   2.800037
     7  N    4.114447   5.943679   3.918485   3.920688   3.920883
                    6          7
     6  C    0.000000
     7  N    1.180529   0.000000
 Symmetry turned off by external request.
 Stoichiometry    C2H3ClN(1-)
 Framework group  C1[X(C2H3ClN)]
 Deg. of freedom    15
 Full point group                 C1      NOp   1
 Rotational constants (GHZ):         156.7350042           1.1291627           1.1291607
 Leave Link  202 at Sun Oct 13 09:52:05 2024, MaxMem=  2684354560 cpu:               0.2 elap:               0.0
 (Enter /usr/local/g16_AVX//g16/l301.exe)
 Standard basis: 6-31++G(d,p) (6D, 7F)
 Ernie: Thresh=  0.10000D-02 Tol=  0.10000D-05 Strict=F.
    98 basis functions,   176 primitive gaussians,    98 cartesian basis functions
    20 alpha electrons       20 beta electrons
       nuclear repulsion energy       109.3242973146 Hartrees.
 IExCor=  402 DFT=T Ex+Corr=B3LYP ExCW=0 ScaHFX=  0.200000
 ScaDFX=  0.800000  0.720000  1.000000  0.810000 ScalE2=  1.000000  1.000000
 IRadAn=      5 IRanWt=     -1 IRanGd=            0 ICorTp=0 IEmpDi=  4
 NAtoms=    7 NActive=    7 NUniq=    7 SFac= 1.00D+00 NAtFMM=   60 NAOKFM=F Big=F
 Integral buffers will be    131072 words long.
 Raffenetti 2 integral format.
 Two-electron integral symmetry is turned off.
 Leave Link  301 at Sun Oct 13 09:52:05 2024, MaxMem=  2684354560 cpu:               1.3 elap:               0.1
 (Enter /usr/local/g16_AVX//g16/l302.exe)
 NPDir=0 NMtPBC=     1 NCelOv=     1 NCel=       1 NClECP=     1 NCelD=      1
         NCelK=      1 NCelE2=     1 NClLst=     1 CellRange=     0.0.
 One-electron integrals computed using PRISM.
 NBasis=    98 RedAO= T EigKep=  1.44D-04  NBF=    98
 NBsUse=    98 1.00D-06 EigRej= -1.00D+00 NBFU=    98
 Precomputing XC quadrature grid using
 IXCGrd= 4 IRadAn=           5 IRanWt=          -1 IRanGd=           0 AccXCQ= 0.00D+00.
 Generated NRdTot=       0 NPtTot=           0 NUsed=           0 NTot=          32
 NSgBfM=    98    98    98    98    98 MxSgAt=     7 MxSgA2=     7.
 Leave Link  302 at Sun Oct 13 09:52:05 2024, MaxMem=  2684354560 cpu:               3.9 elap:               0.2
 (Enter /usr/local/g16_AVX//g16/l303.exe)
 DipDrv:  MaxL=1.
 Leave Link  303 at Sun Oct 13 09:52:05 2024, MaxMem=  2684354560 cpu:               0.7 elap:               0.1
 (Enter /usr/local/g16_AVX//g16/l401.exe)
 ExpMin= 3.60D-02 ExpMax= 2.52D+04 ExpMxC= 3.78D+03 IAcc=3 IRadAn=         5 AccDes= 0.00D+00
 Harris functional with IExCor=  402 and IRadAn=       5 diagonalized for initial guess.
 HarFok:  IExCor=  402 AccDes= 0.00D+00 IRadAn=         5 IDoV= 1 UseB2=F ITyADJ=14
 ICtDFT=  3500011 ScaDFX=  1.000000  1.000000  1.000000  1.000000
 FoFCou: FMM=F IPFlag=           0 FMFlag=      100000 FMFlg1=           0
         NFxFlg=           0 DoJE=T BraDBF=F KetDBF=T FulRan=T
         wScrn=  0.000000 ICntrl=       500 IOpCl=  0 I1Cent=   200000004 NGrid=           0
         NMat0=    1 NMatS0=      1 NMatT0=    0 NMatD0=    1 NMtDS0=    0 NMtDT0=    0
 Symmetry not used in FoFCou.
 Harris En= -593.078893075589    
 JPrj=0 DoOrth=F DoCkMO=F.
 Leave Link  401 at Sun Oct 13 09:52:06 2024, MaxMem=  2684354560 cpu:               5.8 elap:               0.3
 (Enter /usr/local/g16_AVX//g16/l502.exe)
 Keep R1 ints in memory in canonical form, NReq=35752935.
 FoFCou: FMM=F IPFlag=           0 FMFlag=           0 FMFlg1=           0
         NFxFlg=           0 DoJE=F BraDBF=F KetDBF=F FulRan=T
         wScrn=  0.000000 ICntrl=       600 IOpCl=  0 I1Cent=           0 NGrid=           0
         NMat0=    1 NMatS0=   4851 NMatT0=    0 NMatD0=    1 NMtDS0=    0 NMtDT0=    0
 Symmetry not used in FoFCou.
 Two-electron integral symmetry not used.
 Closed shell SCF:
 Using DIIS extrapolation, IDIIS=  1040.
 NGot=  2684354560 LenX=  2672563405 LenY=  2672553360
 Requested convergence on RMS density matrix=1.00D-08 within 128 cycles.
 Requested convergence on MAX density matrix=1.00D-06.
 Requested convergence on             energy=1.00D-06.
 No special actions if energy rises.

 Cycle   1  Pass 1  IDiag  1:
 E= -592.842237396323    
 DIIS: error= 3.49D-02 at cycle   1 NSaved=   1.
 NSaved= 1 IEnMin= 1 EnMin= -592.842237396323     IErMin= 1 ErrMin= 3.49D-02
 ErrMax= 3.49D-02  0.00D+00 EMaxC= 1.00D-01 BMatC= 1.32D-01 BMatP= 1.32D-01
 IDIUse=3 WtCom= 6.51D-01 WtEn= 3.49D-01
 Coeff-Com:  0.100D+01
 Coeff-En:   0.100D+01
 Coeff:      0.100D+01
 Gap=     0.632 Goal=   None    Shift=    0.000
 GapD=    0.632 DampG=2.000 DampE=0.500 DampFc=1.0000 IDamp=-1.
 RMSDP=7.42D-02 MaxDP=2.52D+00              OVMax= 3.81D-01

 Cycle   2  Pass 1  IDiag  1:
 E= -592.637781116778     Delta-E=        0.204456279545 Rises=F Damp=F
 DIIS: error= 4.97D-02 at cycle   2 NSaved=   2.
 NSaved= 2 IEnMin= 1 EnMin= -592.842237396323     IErMin= 1 ErrMin= 3.49D-02
 ErrMax= 4.97D-02  0.00D+00 EMaxC= 1.00D-01 BMatC= 3.01D-01 BMatP= 1.32D-01
 IDIUse=2 WtCom= 0.00D+00 WtEn= 1.00D+00
 Coeff-En:   0.687D+00 0.313D+00
 Coeff:      0.687D+00 0.313D+00
 Gap=     0.153 Goal=   None    Shift=    0.000
 RMSDP=7.27D-02 MaxDP=2.50D+00 DE= 2.04D-01 OVMax= 2.43D-01

 Cycle   3  Pass 1  IDiag  1:
 E= -592.983303440989     Delta-E=       -0.345522324210 Rises=F Damp=F
 DIIS: error= 8.04D-03 at cycle   3 NSaved=   3.
 NSaved= 3 IEnMin= 3 EnMin= -592.983303440989     IErMin= 3 ErrMin= 8.04D-03
 ErrMax= 8.04D-03  0.00D+00 EMaxC= 1.00D-01 BMatC= 1.06D-02 BMatP= 1.32D-01
 IDIUse=3 WtCom= 9.20D-01 WtEn= 8.04D-02
 Coeff-Com:  0.273D+00 0.109D+00 0.618D+00
 Coeff-En:   0.000D+00 0.000D+00 0.100D+01
 Coeff:      0.251D+00 0.100D+00 0.648D+00
 Gap=     0.183 Goal=   None    Shift=    0.000
 RMSDP=2.53D-03 MaxDP=4.32D-02 DE=-3.46D-01 OVMax= 5.09D-02

 Cycle   4  Pass 1  IDiag  1:
 E= -592.988185245669     Delta-E=       -0.004881804681 Rises=F Damp=F
 DIIS: error= 1.22D-02 at cycle   4 NSaved=   4.
 NSaved= 4 IEnMin= 4 EnMin= -592.988185245669     IErMin= 3 ErrMin= 8.04D-03
 ErrMax= 1.22D-02  0.00D+00 EMaxC= 1.00D-01 BMatC= 7.06D-03 BMatP= 1.06D-02
 IDIUse=3 WtCom= 8.78D-01 WtEn= 1.22D-01
 Coeff-Com:  0.510D-01-0.233D-01 0.488D+00 0.485D+00
 Coeff-En:   0.000D+00 0.000D+00 0.379D+00 0.621D+00
 Coeff:      0.448D-01-0.204D-01 0.474D+00 0.501D+00
 Gap=     0.174 Goal=   None    Shift=    0.000
 RMSDP=9.25D-04 MaxDP=1.51D-02 DE=-4.88D-03 OVMax= 2.96D-02

 Cycle   5  Pass 1  IDiag  1:
 E= -592.994555210110     Delta-E=       -0.006369964441 Rises=F Damp=F
 DIIS: error= 2.51D-03 at cycle   5 NSaved=   5.
 NSaved= 5 IEnMin= 5 EnMin= -592.994555210110     IErMin= 5 ErrMin= 2.51D-03
 ErrMax= 2.51D-03  0.00D+00 EMaxC= 1.00D-01 BMatC= 2.74D-04 BMatP= 7.06D-03
 IDIUse=3 WtCom= 9.75D-01 WtEn= 2.51D-02
 Coeff-Com:  0.163D-01-0.114D-01 0.220D+00 0.274D+00 0.501D+00
 Coeff-En:   0.000D+00 0.000D+00 0.000D+00 0.000D+00 0.100D+01
 Coeff:      0.159D-01-0.111D-01 0.214D+00 0.268D+00 0.514D+00
 Gap=     0.177 Goal=   None    Shift=    0.000
 RMSDP=2.62D-04 MaxDP=4.13D-03 DE=-6.37D-03 OVMax= 6.55D-03

 Cycle   6  Pass 1  IDiag  1:
 E= -592.994800304969     Delta-E=       -0.000245094859 Rises=F Damp=F
 DIIS: error= 8.37D-04 at cycle   6 NSaved=   6.
 NSaved= 6 IEnMin= 6 EnMin= -592.994800304969     IErMin= 6 ErrMin= 8.37D-04
 ErrMax= 8.37D-04  0.00D+00 EMaxC= 1.00D-01 BMatC= 2.87D-05 BMatP= 2.74D-04
 IDIUse=3 WtCom= 9.92D-01 WtEn= 8.37D-03
 Coeff-Com:  0.296D-02-0.571D-02 0.594D-01 0.752D-01 0.268D+00 0.600D+00
 Coeff-En:   0.000D+00 0.000D+00 0.000D+00 0.000D+00 0.809D-01 0.919D+00
 Coeff:      0.294D-02-0.566D-02 0.589D-01 0.745D-01 0.266D+00 0.603D+00
 Gap=     0.176 Goal=   None    Shift=    0.000
 RMSDP=6.97D-05 MaxDP=1.24D-03 DE=-2.45D-04 OVMax= 1.62D-03

 Cycle   7  Pass 1  IDiag  1:
 E= -592.994827868245     Delta-E=       -0.000027563276 Rises=F Damp=F
 DIIS: error= 6.42D-05 at cycle   7 NSaved=   7.
 NSaved= 7 IEnMin= 7 EnMin= -592.994827868245     IErMin= 7 ErrMin= 6.42D-05
 ErrMax= 6.42D-05  0.00D+00 EMaxC= 1.00D-01 BMatC= 3.90D-07 BMatP= 2.87D-05
 IDIUse=1 WtCom= 1.00D+00 WtEn= 0.00D+00
 Coeff-Com:  0.336D-03-0.823D-03 0.277D-02 0.218D-02 0.427D-01 0.180D+00
 Coeff-Com:  0.773D+00
 Coeff:      0.336D-03-0.823D-03 0.277D-02 0.218D-02 0.427D-01 0.180D+00
 Coeff:      0.773D+00
 Gap=     0.177 Goal=   None    Shift=    0.000
 RMSDP=1.30D-05 MaxDP=2.24D-04 DE=-2.76D-05 OVMax= 2.59D-04

 Cycle   8  Pass 1  IDiag  1:
 E= -592.994828326036     Delta-E=       -0.000000457791 Rises=F Damp=F
 DIIS: error= 9.12D-06 at cycle   8 NSaved=   8.
 NSaved= 8 IEnMin= 8 EnMin= -592.994828326036     IErMin= 8 ErrMin= 9.12D-06
 ErrMax= 9.12D-06  0.00D+00 EMaxC= 1.00D-01 BMatC= 1.39D-08 BMatP= 3.90D-07
 IDIUse=1 WtCom= 1.00D+00 WtEn= 0.00D+00
 Coeff-Com:  0.882D-04-0.117D-03 0.468D-04 0.193D-03 0.916D-02 0.419D-01
 Coeff-Com:  0.232D+00 0.717D+00
 Coeff:      0.882D-04-0.117D-03 0.468D-04 0.193D-03 0.916D-02 0.419D-01
 Coeff:      0.232D+00 0.717D+00
 Gap=     0.177 Goal=   None    Shift=    0.000
 RMSDP=2.22D-06 MaxDP=5.95D-05 DE=-4.58D-07 OVMax= 4.60D-05

 Cycle   9  Pass 1  IDiag  1:
 E= -592.994828340711     Delta-E=       -0.000000014674 Rises=F Damp=F
 DIIS: error= 2.95D-06 at cycle   9 NSaved=   9.
 NSaved= 9 IEnMin= 9 EnMin= -592.994828340711     IErMin= 9 ErrMin= 2.95D-06
 ErrMax= 2.95D-06  0.00D+00 EMaxC= 1.00D-01 BMatC= 1.46D-09 BMatP= 1.39D-08
 IDIUse=1 WtCom= 1.00D+00 WtEn= 0.00D+00
 Coeff-Com: -0.778D-05 0.858D-05-0.144D-03 0.104D-03 0.133D-02 0.520D-02
 Coeff-Com:  0.399D-01 0.280D+00 0.673D+00
 Coeff:     -0.778D-05 0.858D-05-0.144D-03 0.104D-03 0.133D-02 0.520D-02
 Coeff:      0.399D-01 0.280D+00 0.673D+00
 Gap=     0.177 Goal=   None    Shift=    0.000
 RMSDP=6.74D-07 MaxDP=1.93D-05 DE=-1.47D-08 OVMax= 1.14D-05

 Cycle  10  Pass 1  IDiag  1:
 E= -592.994828342295     Delta-E=       -0.000000001585 Rises=F Damp=F
 DIIS: error= 4.41D-07 at cycle  10 NSaved=  10.
 NSaved=10 IEnMin=10 EnMin= -592.994828342295     IErMin=10 ErrMin= 4.41D-07
 ErrMax= 4.41D-07  0.00D+00 EMaxC= 1.00D-01 BMatC= 2.49D-11 BMatP= 1.46D-09
 IDIUse=1 WtCom= 1.00D+00 WtEn= 0.00D+00
 Coeff-Com: -0.749D-05 0.645D-05-0.136D-04 0.413D-04 0.876D-05-0.532D-03
 Coeff-Com: -0.145D-02 0.247D-01 0.149D+00 0.829D+00
 Coeff:     -0.749D-05 0.645D-05-0.136D-04 0.413D-04 0.876D-05-0.532D-03
 Coeff:     -0.145D-02 0.247D-01 0.149D+00 0.829D+00
 Gap=     0.177 Goal=   None    Shift=    0.000
 RMSDP=1.52D-07 MaxDP=3.38D-06 DE=-1.58D-09 OVMax= 1.92D-06

 Cycle  11  Pass 1  IDiag  1:
 E= -592.994828342326     Delta-E=       -0.000000000031 Rises=F Damp=F
 DIIS: error= 4.76D-08 at cycle  11 NSaved=  11.
 NSaved=11 IEnMin=11 EnMin= -592.994828342326     IErMin=11 ErrMin= 4.76D-08
 ErrMax= 4.76D-08  0.00D+00 EMaxC= 1.00D-01 BMatC= 2.47D-13 BMatP= 2.49D-11
 IDIUse=1 WtCom= 1.00D+00 WtEn= 0.00D+00
 Coeff-Com: -0.108D-05 0.610D-06-0.754D-05-0.100D-04-0.479D-04-0.144D-03
 Coeff-Com: -0.232D-03-0.219D-02 0.488D-02 0.720D-01 0.926D+00
 Coeff:     -0.108D-05 0.610D-06-0.754D-05-0.100D-04-0.479D-04-0.144D-03
 Coeff:     -0.232D-03-0.219D-02 0.488D-02 0.720D-01 0.926D+00
 Gap=     0.177 Goal=   None    Shift=    0.000
 RMSDP=3.11D-08 MaxDP=5.78D-07 DE=-3.13D-11 OVMax= 3.53D-07

 Cycle  12  Pass 1  IDiag  1:
 E= -592.994828342328     Delta-E=       -0.000000000002 Rises=F Damp=F
 DIIS: error= 6.04D-09 at cycle  12 NSaved=  12.
 NSaved=12 IEnMin=12 EnMin= -592.994828342328     IErMin=12 ErrMin= 6.04D-09
 ErrMax= 6.04D-09  0.00D+00 EMaxC= 1.00D-01 BMatC= 3.59D-15 BMatP= 2.47D-13
 IDIUse=1 WtCom= 1.00D+00 WtEn= 0.00D+00
 Coeff-Com: -0.566D-07 0.143D-07-0.928D-06-0.214D-05-0.877D-05-0.191D-04
 Coeff-Com: -0.381D-04-0.826D-03-0.207D-02-0.967D-03 0.117D+00 0.887D+00
 Coeff:     -0.566D-07 0.143D-07-0.928D-06-0.214D-05-0.877D-05-0.191D-04
 Coeff:     -0.381D-04-0.826D-03-0.207D-02-0.967D-03 0.117D+00 0.887D+00
 Gap=     0.177 Goal=   None    Shift=    0.000
 RMSDP=1.85D-09 MaxDP=3.45D-08 DE=-1.71D-12 OVMax= 3.94D-08

 SCF Done:  E(RB3LYP) =  -592.994828342     A.U. after   12 cycles
            NFock= 12  Conv=0.19D-08     -V/T= 2.0046
 KE= 5.903021899206D+02 PE=-1.628227494511D+03 EE= 3.356061789329D+02
 Leave Link  502 at Sun Oct 13 09:52:07 2024, MaxMem=  2684354560 cpu:              33.5 elap:               1.6
 (Enter /usr/local/g16_AVX//g16/l801.exe)
 DoSCS=F DFT=T ScalE2(SS,OS)=  1.000000  1.000000
 Range of M.O.s used for correlation:     1    98
 NBasis=    98 NAE=    20 NBE=    20 NFC=     0 NFV=     0
 NROrb=     98 NOA=    20 NOB=    20 NVA=    78 NVB=    78

 **** Warning!!: The largest alpha MO coefficient is  0.31472858D+02

 Leave Link  801 at Sun Oct 13 09:52:07 2024, MaxMem=  2684354560 cpu:               0.7 elap:               0.1
 (Enter /usr/local/g16_AVX//g16/l1101.exe)
 Using compressed storage, NAtomX=     7.
 Will process      8 centers per pass.
 Leave Link 1101 at Sun Oct 13 09:52:07 2024, MaxMem=  2684354560 cpu:               3.4 elap:               0.2
 (Enter /usr/local/g16_AVX//g16/l1102.exe)
 Symmetrizing basis deriv contribution to polar:
 IMax=3 JMax=2 DiffMx= 0.00D+00
 Leave Link 1102 at Sun Oct 13 09:52:08 2024, MaxMem=  2684354560 cpu:               0.8 elap:               0.1
 (Enter /usr/local/g16_AVX//g16/l1110.exe)
 Forming Gx(P) for the SCF density, NAtomX=     7.
 Integral derivatives from FoFJK, PRISM(SPDF).
 Do as many integral derivatives as possible in FoFJK.
 G2DrvN: MDV=    2684353864.
 G2DrvN: will do     8 centers at a time, making    1 passes.
 Calling FoFCou, ICntrl=  3107 FMM=F I1Cent=   0 AccDes= 0.00D+00.
 FoFJK:  IHMeth= 1 ICntrl=    3107 DoSepK=F KAlg= 0 I1Cent=           0 FoldK=F
 IRaf=         0 NMat=       1 IRICut=       1 DoRegI=T DoRafI=F ISym2E= 0 IDoP0=0 IntGTp=1.
 FoFCou: FMM=F IPFlag=           0 FMFlag=      100000 FMFlg1=           0
         NFxFlg=           0 DoJE=F BraDBF=F KetDBF=F FulRan=T
         wScrn=  0.000000 ICntrl=      3107 IOpCl=  0 I1Cent=           0 NGrid=           0
         NMat0=    1 NMatS0=      1 NMatT0=    0 NMatD0=    1 NMtDS0=    0 NMtDT0=    0
 Symmetry not used in FoFCou.
 End of G2Drv F.D. properties file   721 does not exist.
 End of G2Drv F.D. properties file   722 does not exist.
 End of G2Drv F.D. properties file   788 does not exist.
 Leave Link 1110 at Sun Oct 13 09:52:09 2024, MaxMem=  2684354560 cpu:              37.0 elap:               1.5
 (Enter /usr/local/g16_AVX//g16/l1002.exe)
 Minotr:  Closed shell wavefunction.
          IDoAtm=1111111
          Direct CPHF calculation.
          Differentiating once with respect to electric field.
                with respect to dipole field.
          Differentiating once with respect to nuclear coordinates.
          Requested convergence is 1.0D-08 RMS, and 1.0D-07 maximum.
          Secondary convergence is 1.0D-12 RMS, and 1.0D-12 maximum.
          NewPWx=T KeepS1=F KeepF1=F KeepIn=T MapXYZ=F SortEE=F KeepMc=T.
         2136 words used for storage of precomputed grid.
 Keep R1 ints in memory in canonical form, NReq=35668397.
 FoFCou: FMM=F IPFlag=           0 FMFlag=           0 FMFlg1=           0
         NFxFlg=           0 DoJE=F BraDBF=F KetDBF=F FulRan=T
         wScrn=  0.000000 ICntrl=       600 IOpCl=  0 I1Cent=           0 NGrid=           0
         NMat0=    1 NMatS0=   4851 NMatT0=    0 NMatD0=    1 NMtDS0=    0 NMtDT0=    0
 Symmetry not used in FoFCou.
 Two-electron integral symmetry not used.
          MDV=    2684354560 using IRadAn=       1.
          Solving linear equations simultaneously, MaxMat=       0.
          There are    24 degrees of freedom in the 1st order CPHF.  IDoFFX=6 NUNeed=     3.
     21 vectors produced by pass  0 Test12= 6.50D-15 4.17D-09 XBig12= 8.00D+01 4.30D+00.
 AX will form    21 AO Fock derivatives at one time.
     21 vectors produced by pass  1 Test12= 6.50D-15 4.17D-09 XBig12= 4.67D+01 2.17D+00.
     21 vectors produced by pass  2 Test12= 6.50D-15 4.17D-09 XBig12= 1.49D+00 3.26D-01.
     21 vectors produced by pass  3 Test12= 6.50D-15 4.17D-09 XBig12= 3.42D-02 5.69D-02.
     21 vectors produced by pass  4 Test12= 6.50D-15 4.17D-09 XBig12= 8.81D-05 2.41D-03.
     16 vectors produced by pass  5 Test12= 6.50D-15 4.17D-09 XBig12= 1.82D-07 9.30D-05.
      6 vectors produced by pass  6 Test12= 6.50D-15 4.17D-09 XBig12= 2.04D-10 3.30D-06.
      1 vectors produced by pass  7 Test12= 6.50D-15 4.17D-09 XBig12= 2.57D-13 1.42D-07.
      1 vectors produced by pass  8 Test12= 6.50D-15 4.17D-09 XBig12= 4.12D-16 5.08D-09.
 InvSVY:  IOpt=1 It=  1 EMax= 3.55D-15
 Solved reduced A of dimension   129 with    24 vectors.
 FullF1:  Do perturbations      1 to       3.
 Isotropic polarizability for W=    0.000000       55.94 Bohr**3.
 End of Minotr F.D. properties file   721 does not exist.
 End of Minotr F.D. properties file   722 does not exist.
 End of Minotr F.D. properties file   788 does not exist.
 Leave Link 1002 at Sun Oct 13 09:52:11 2024, MaxMem=  2684354560 cpu:              50.9 elap:               2.0
 (Enter /usr/local/g16_AVX//g16/l601.exe)
 Copying SCF densities to generalized density rwf, IOpCl= 0 IROHF=0.

 **********************************************************************

            Population analysis using the SCF Density.

 **********************************************************************

 Alpha  occ. eigenvalues -- -101.41315 -14.09408 -10.10270  -9.95969  -9.32935
 Alpha  occ. eigenvalues --   -7.09241  -7.08398  -7.08398  -0.71875  -0.64702
 Alpha  occ. eigenvalues --   -0.54140  -0.30944  -0.30939  -0.27940  -0.18223
 Alpha  occ. eigenvalues --   -0.17756  -0.17755  -0.09616  -0.09616  -0.06857
 Alpha virt. eigenvalues --    0.10804   0.12592   0.14407   0.14412   0.17319
 Alpha virt. eigenvalues --    0.20152   0.20208   0.20208   0.22004   0.22020
 Alpha virt. eigenvalues --    0.23967   0.24849   0.24859   0.26978   0.27640
 Alpha virt. eigenvalues --    0.27651   0.31304   0.33229   0.33245   0.36024
 Alpha virt. eigenvalues --    0.38549   0.38561   0.38838   0.46377   0.47866
 Alpha virt. eigenvalues --    0.64299   0.72681   0.74263   0.74266   0.77133
 Alpha virt. eigenvalues --    0.77147   0.87414   0.89685   0.89688   0.97275
 Alpha virt. eigenvalues --    0.99162   0.99166   1.04244   1.04251   1.08064
 Alpha virt. eigenvalues --    1.09277   1.09278   1.12376   1.18948   1.18956
 Alpha virt. eigenvalues --    1.21760   1.26619   1.37218   1.46233   1.59934
 Alpha virt. eigenvalues --    1.59943   1.73529   1.78273   1.78274   1.80469
 Alpha virt. eigenvalues --    1.80472   2.15515   2.20229   2.20233   2.21479
 Alpha virt. eigenvalues --    2.21508   2.29343   2.48576   2.48582   2.67801
 Alpha virt. eigenvalues --    2.81576   2.83537   2.83540   2.95127   2.95156
 Alpha virt. eigenvalues --    3.25622   3.37986   3.55346   3.55391   4.20760
 Alpha virt. eigenvalues --    4.40966   4.45424   4.56941
          Condensed to atoms (all electrons):
               1          2          3          4          5          6
     1  C    5.350127  -0.019273   0.410747   0.410774   0.410762  -0.123533
     2  Cl  -0.019273  17.307991  -0.047425  -0.048145  -0.048159   0.049123
     3  H    0.410747  -0.047425   0.506087  -0.022946  -0.022935  -0.039185
     4  H    0.410774  -0.048145  -0.022946   0.506497  -0.022984  -0.038094
     5  H    0.410762  -0.048159  -0.022935  -0.022984   0.506515  -0.038072
     6  C   -0.123533   0.049123  -0.039185  -0.038094  -0.038072   6.048473
     7  N   -0.001670  -0.001651   0.000821   0.000756   0.000755   0.657226
               7
     1  C   -0.001670
     2  Cl  -0.001651
     3  H    0.000821
     4  H    0.000756
     5  H    0.000755
     6  C    0.657226
     7  N    6.840530
 Mulliken charges:
               1
     1  C   -0.437933
     2  Cl  -0.192461
     3  H    0.214837
     4  H    0.214143
     5  H    0.214118
     6  C   -0.515938
     7  N   -0.496767
 Sum of Mulliken charges =  -1.00000
 Mulliken charges with hydrogens summed into heavy atoms:
               1
     1  C    0.205165
     2  Cl  -0.192461
     6  C   -0.515938
     7  N   -0.496767
 APT charges:
               1
     1  C    0.575109
     2  Cl  -0.616942
     3  H    0.017625
     4  H    0.017161
     5  H    0.017128
     6  C   -0.393380
     7  N   -0.616700
 Sum of APT charges =  -1.00000
 APT charges with hydrogens summed into heavy atoms:
               1
     1  C    0.627023
     2  Cl  -0.616942
     6  C   -0.393380
     7  N   -0.616700
 Electronic spatial extent (au):  <R**2>=            920.4893
 Charge=             -1.0000 electrons
 Dipole moment (field-independent basis, Debye):
    X=            -10.4999    Y=             -0.0001    Z=              0.0068  Tot=             10.4999
 Quadrupole moment (field-independent basis, Debye-Ang):
   XX=            -92.3567   YY=            -35.4595   ZZ=            -35.4594
   XY=              0.0002   XZ=              0.0057   YZ=             -0.0001
 Traceless Quadrupole moment (field-independent basis, Debye-Ang):
   XX=            -37.9315   YY=             18.9657   ZZ=             18.9658
   XY=              0.0002   XZ=              0.0057   YZ=             -0.0001
 Octapole moment (field-independent basis, Debye-Ang**2):
  XXX=           -199.8708  YYY=             -0.0065  ZZZ=             -0.8601  XYY=            -12.5238
  XXY=             -0.0001  XXZ=             -0.0115  XZZ=            -12.5209  YZZ=              0.0058
  YYZ=              0.8851  XYZ=              0.0001
 Hexadecapole moment (field-independent basis, Debye-Ang**3):
 XXXX=          -2033.6455 YYYY=            -56.2026 ZZZZ=            -56.2025 XXXY=              0.0009
 XXXZ=              0.0491 YYYX=             -0.0020 YYYZ=             -0.0001 ZZZX=              0.1070
 ZZZY=             -0.0002 XXYY=           -238.2204 XXZZ=           -238.2191 YYZZ=            -18.7300
 XXYZ=              0.0000 YYXZ=              0.0600 ZZXY=             -0.0005
 N-N= 1.093242973146D+02 E-N=-1.628227494354D+03  KE= 5.903021899206D+02
  Exact polarizability:  87.614   0.001  40.110   0.031   0.000  40.105
 Approx polarizability: 108.061   0.001  49.858   0.072   0.000  49.852
 No NMR shielding tensors so no spin-rotation constants.
 Leave Link  601 at Sun Oct 13 09:52:11 2024, MaxMem=  2684354560 cpu:               2.6 elap:               0.1
 (Enter /usr/local/g16_AVX//g16/l701.exe)
 ... and contract with generalized density number  0.
 Compute integral second derivatives.
 Leave Link  701 at Sun Oct 13 09:52:11 2024, MaxMem=  2684354560 cpu:               4.6 elap:               0.2
 (Enter /usr/local/g16_AVX//g16/l702.exe)
 L702 exits ... SP integral derivatives will be done elsewhere.
 Leave Link  702 at Sun Oct 13 09:52:12 2024, MaxMem=  2684354560 cpu:               0.6 elap:               0.1
 (Enter /usr/local/g16_AVX//g16/l703.exe)
 Integral derivatives from FoFJK, PRISM(SPDF).
 Compute integral second derivatives, UseDBF=F ICtDFT=           0.
 Calling FoFJK, ICntrl=    100127 FMM=F ISym2X=0 I1Cent= 0 IOpClX= 0 NMat=1 NMatS=1 NMatT=0.
 FoFJK:  IHMeth= 1 ICntrl=  100127 DoSepK=F KAlg= 0 I1Cent=           0 FoldK=F
 IRaf=         0 NMat=       1 IRICut=       1 DoRegI=T DoRafI=F ISym2E= 0 IDoP0=0 IntGTp=1.
 FoFCou: FMM=F IPFlag=           0 FMFlag=      100000 FMFlg1=         800
         NFxFlg=           0 DoJE=F BraDBF=F KetDBF=F FulRan=T
         wScrn=  0.000000 ICntrl=    100127 IOpCl=  0 I1Cent=           0 NGrid=           0
         NMat0=    1 NMatS0=      1 NMatT0=    0 NMatD0=    1 NMtDS0=    0 NMtDT0=    0
 Symmetry not used in FoFCou.
 Leave Link  703 at Sun Oct 13 09:52:14 2024, MaxMem=  2684354560 cpu:              65.6 elap:               2.6
 (Enter /usr/local/g16_AVX//g16/l716.exe)
 Dipole        =-4.13098029D+00-2.00102104D-05 2.66128804D-03
 Polarizability= 8.76143521D+01 5.33328096D-04 4.01101117D+01
                 3.05274633D-02 1.56150733D-04 4.01047965D+01
 Full mass-weighted force constant matrix:
 Low frequencies ---  -66.6695  -66.5575  -34.5186  -34.3999   -0.0019    0.0034
 Low frequencies ---    0.0047   87.9846   88.2430
 ******    2 imaginary frequencies (negative Signs) ****** 
 Diagonal vibrational polarizability:
       93.2349351      43.4892972      43.7857256
 Harmonic frequencies (cm**-1), IR intensities (KM/Mole), Raman scattering
 activities (A**4/AMU), depolarization ratios for plane and unpolarized
 incident light, reduced masses (AMU), force constants (mDyne/A),
 and normal coordinates:
                      1                      2                      3
                      A                      A                      A
 Frequencies --    -65.9538               -65.8618                86.4513
 Red. masses --      8.2020                 8.2128                 3.8641
 Frc consts  --      0.0210                 0.0210                 0.0170
 IR Inten    --      0.1329                 0.1304                11.9082
  Atom  AN      X      Y      Z        X      Y      Z        X      Y      Z
     1   6    -0.00  -0.03   0.27    -0.00   0.27   0.03    -0.00  -0.04   0.38
     2  17    -0.00   0.01  -0.12    -0.00  -0.12  -0.01    -0.00   0.01  -0.09
     3   1     0.21  -0.04   0.34     0.02   0.33   0.04     0.27  -0.05   0.47
     4   1    -0.09  -0.04   0.34    -0.19   0.34   0.03    -0.11  -0.04   0.45
     5   1    -0.13  -0.04   0.34     0.17   0.34   0.04    -0.16  -0.06   0.46
     6   6    -0.00  -0.06   0.53    -0.00   0.53   0.06     0.00   0.03  -0.29
     7   7     0.00   0.05  -0.46     0.00  -0.46  -0.05     0.00  -0.01   0.06
                      4                      5                      6
                      A                      A                      A
 Frequencies --     86.7507               133.0020               622.1449
 Red. masses --      3.8639                11.8473                 9.0410
 Frc consts  --      0.0171                 0.1235                 2.0618
 IR Inten    --     11.9053                50.8990               221.2516
  Atom  AN      X      Y      Z        X      Y      Z        X      Y      Z
     1   6    -0.00   0.38   0.04    -0.31   0.00  -0.00     0.70   0.00   0.00
     2  17    -0.00  -0.09  -0.01    -0.28  -0.00   0.00    -0.28  -0.00  -0.00
     3   1     0.03   0.46   0.05    -0.28   0.00  -0.00     0.37   0.00  -0.09
     4   1    -0.25   0.47   0.06    -0.28  -0.00  -0.01     0.37   0.08   0.05
     5   1     0.22   0.46   0.03    -0.28   0.00  -0.01     0.37  -0.08   0.05
     6   6     0.00  -0.29  -0.03     0.54  -0.00   0.00     0.01   0.00  -0.00
     7   7     0.00   0.05   0.01     0.55   0.00   0.00     0.01  -0.00   0.00
                      7                      8                      9
                      A                      A                      A
 Frequencies --   1008.9277              1009.5402              1321.6554
 Red. masses --      1.1522                 1.1520                 1.0983
 Frc consts  --      0.6911                 0.6917                 1.1303
 IR Inten    --      0.2684                 0.2681                17.2789
  Atom  AN      X      Y      Z        X      Y      Z        X      Y      Z
     1   6     0.00   0.00  -0.11    -0.00   0.11   0.00    -0.09   0.00   0.00
     2  17    -0.00  -0.00   0.02     0.00  -0.02  -0.00    -0.02  -0.00  -0.00
     3   1     0.77  -0.01   0.13    -0.02  -0.23  -0.00     0.55  -0.00   0.18
     4   1    -0.36  -0.05   0.21     0.68  -0.16   0.04     0.55  -0.15  -0.09
     5   1    -0.40   0.04   0.20    -0.65  -0.16  -0.05     0.55   0.15  -0.09
     6   6    -0.00  -0.00   0.00     0.00  -0.00  -0.00    -0.00   0.00   0.00
     7   7    -0.00   0.00  -0.00     0.00   0.00   0.00    -0.00   0.00  -0.00
                     10                     11                     12
                      A                      A                      A
 Frequencies --   1461.7583              1461.8712              2148.6154
 Red. masses --      1.0609                 1.0609                12.8352
 Frc consts  --      1.3356                 1.3358                34.9117
 IR Inten    --      7.6993                 7.7137                17.3698
  Atom  AN      X      Y      Z        X      Y      Z        X      Y      Z
     1   6    -0.00  -0.06  -0.04    -0.00   0.04  -0.06    -0.00  -0.00   0.00
     2  17    -0.00  -0.00  -0.00    -0.00   0.00  -0.00     0.00   0.00   0.00
     3   1    -0.14   0.65  -0.07    -0.24  -0.39  -0.12    -0.01   0.00  -0.01
     4   1     0.28  -0.12  -0.06    -0.00  -0.38   0.65    -0.01   0.00   0.00
     5   1    -0.14   0.27   0.60     0.24   0.28   0.26    -0.01  -0.00   0.00
     6   6    -0.00  -0.00  -0.00    -0.00   0.00  -0.00     0.76  -0.00   0.00
     7   7    -0.00   0.00   0.00    -0.00  -0.00   0.00    -0.65   0.00  -0.00
                     13                     14                     15
                      A                      A                      A
 Frequencies --   3127.8602              3251.5683              3253.0136
 Red. masses --      1.0250                 1.1114                 1.1114
 Frc consts  --      5.9085                 6.9233                 6.9294
 IR Inten    --     12.7765                 0.3083                 0.2876
  Atom  AN      X      Y      Z        X      Y      Z        X      Y      Z
     1   6     0.04   0.00   0.00     0.00  -0.10  -0.02     0.00   0.02  -0.10
     2  17    -0.00  -0.00  -0.00    -0.00   0.00   0.00    -0.00  -0.00   0.00
     3   1    -0.16  -0.00   0.55    -0.04  -0.02   0.13    -0.24   0.00   0.77
     4   1    -0.16  -0.48  -0.28     0.22   0.63   0.37     0.08   0.24   0.12
     5   1    -0.16   0.48  -0.28    -0.18   0.51  -0.31     0.15  -0.43   0.23
     6   6     0.00  -0.00  -0.00     0.00   0.00   0.00     0.00  -0.00   0.00
     7   7     0.00   0.00   0.00     0.00  -0.00  -0.00     0.00   0.00  -0.00

 -------------------
 - Thermochemistry -
 -------------------
 Temperature   298.150 Kelvin.  Pressure   1.00000 Atm.
 Atom     1 has atomic number  6 and mass  12.00000
 Atom     2 has atomic number 17 and mass  34.96885
 Atom     3 has atomic number  1 and mass   1.00783
 Atom     4 has atomic number  1 and mass   1.00783
 Atom     5 has atomic number  1 and mass   1.00783
 Atom     6 has atomic number  6 and mass  12.00000
 Atom     7 has atomic number  7 and mass  14.00307
 Molecular mass:    75.99540 amu.
 Principal axes and moments of inertia in atomic units:
                           1         2         3
     Eigenvalues --    11.514601598.300351598.30317
           X            1.00000  -0.00000   0.00013
           Y            0.00000   1.00000  -0.00031
           Z           -0.00013   0.00031   1.00000
 This molecule is an asymmetric top.
 Rotational symmetry number  1.
 Rotational temperatures (Kelvin)      7.52209     0.05419     0.05419
 Rotational constants (GHZ):         156.73500     1.12916     1.12916
    2 imaginary frequencies ignored.
 Zero-point vibrational energy     113484.7 (Joules/Mol)
                                   27.12349 (Kcal/Mol)
 Warning -- explicit consideration of   3 degrees of freedom as
           vibrations may cause significant error
 Vibrational temperatures:    124.38   124.81   191.36   895.13  1451.62
          (Kelvin)           1452.50  1901.57  2103.14  2103.31  3091.38
                             4500.29  4678.28  4680.36
 
 Zero-point correction=                           0.043224 (Hartree/Particle)
 Thermal correction to Energy=                    0.048493
 Thermal correction to Enthalpy=                  0.049437
 Thermal correction to Gibbs Free Energy=         0.013892
 Sum of electronic and zero-point Energies=           -592.951604
 Sum of electronic and thermal Energies=              -592.946336
 Sum of electronic and thermal Enthalpies=            -592.945392
 Sum of electronic and thermal Free Energies=         -592.980936
 
                     E (Thermal)             CV                S
                      KCal/Mol        Cal/Mol-Kelvin    Cal/Mol-Kelvin
 Total                   30.430             13.835             74.809
 Electronic               0.000              0.000              0.000
 Translational            0.889              2.981             38.900
 Rotational               0.889              2.981             24.890
 Vibrational             28.652              7.873             11.020
 Vibration     1          0.601              1.959              3.739
 Vibration     2          0.601              1.958              3.732
 Vibration     3          0.613              1.920              2.902
                       Q            Log10(Q)             Ln(Q)
 Total Bot       0.407353D-06         -6.390029        -14.713586
 Total V=0       0.310192D+14         13.491630         31.065626
 Vib (Bot)       0.254804D-18        -18.593793        -42.813791
 Vib (Bot)    1  0.237971D+01          0.376525          0.866980
 Vib (Bot)    2  0.237138D+01          0.375002          0.863473
 Vib (Bot)    3  0.153163D+01          0.185154          0.426333
 Vib (V=0)       0.194029D+02          1.287866          2.965422
 Vib (V=0)    1  0.293167D+01          0.467116          1.075574
 Vib (V=0)    2  0.292352D+01          0.465906          1.072789
 Vib (V=0)    3  0.211118D+01          0.324525          0.747246
 Electronic      0.100000D+01          0.000000          0.000000
 Translational   0.260396D+08          7.415635         17.075130
 Rotational      0.613944D+05          4.788129         11.025074
 
                                                       RxCoord=3.99752 DE=45.54
                                                             IR Spectrum
 
     33   3                                      2                         1     1           1                                       
     22   1                                      1                         4     3           0              6                  1     
     55   2                                      4                         6     2           0              2                  3 8   
     32   8                                      9                         2     2           9              2                  3 6   
 
     XX   X                                      X                         X     X           X              X                  X X   
                                                 X                               X                          X                  X X   
                                                                                                            X                  X     
                                                                                                            X                  X     
                                                                                                            X                  X     
                                                                                                            X                        
                                                                                                            X                        
                                                                                                            X                        
                                                                                                            X                        
                                                                                                            X                        
                                                                                                            X                        
                                                                                                            X                        
                                                                                                            X                        
                                                                                                            X                        
                                                                                                            X                        
                                                                                                            X                        
                                                                                                            X                        
                                                                                                            X                        
                                                                                                            X                        
                                                                                                            X                        
 
 -------------------------------------------------------------------
 Center     Atomic                   Forces (Hartrees/Bohr)
 Number     Number              X              Y              Z
 -------------------------------------------------------------------
      1        6           0.005164204    0.000041927    0.000074547
      2       17          -0.011614653    0.000006589    0.000006461
      3        1           0.001232847   -0.000006066    0.000867772
      4        1           0.001193245   -0.000868066   -0.000492118
      5        1           0.001225513    0.000825726   -0.000467289
      6        6          -0.000005314   -0.000000021    0.000007907
      7        7           0.002804157   -0.000000089    0.000002721
 -------------------------------------------------------------------
 Cartesian Forces:  Max     0.011614653 RMS     0.002899380
 Z-matrix is all fixed cartesians, so copy forces.
 Force constants in Cartesian coordinates: 
                1             2             3             4             5 
      1  0.259877D+00
      2 -0.187001D-04  0.599067D+00
      3 -0.456209D-03 -0.990574D-04  0.599441D+00
      4 -0.957603D-01  0.500821D-05 -0.669389D-04  0.180949D+00
      5  0.155340D-05 -0.334762D-01  0.000000D+00 -0.714558D-05  0.183685D-01
      6 -0.709471D-04  0.000000D+00 -0.334899D-01  0.162097D-03 -0.111467D-05
      7 -0.564299D-01 -0.192085D-03  0.848454D-01 -0.247574D-01 -0.452458D-04
      8 -0.190262D-03 -0.496348D-01  0.630494D-03  0.145445D-04  0.615534D-03
      9  0.837238D-01  0.633156D-03 -0.325739D+00 -0.595512D-02 -0.177189D-04
     10 -0.562366D-01 -0.728586D-01 -0.423095D-01 -0.247238D-01 -0.172341D-01
     11 -0.718948D-01 -0.255953D+00 -0.119756D+00  0.509210D-02  0.642188D-02
     12 -0.417362D-01 -0.119746D+00 -0.119206D+00  0.292884D-02  0.334912D-02
     13 -0.562039D-01  0.730635D-01 -0.419844D-01 -0.247372D-01  0.172856D-01
     14  0.721008D-01 -0.257174D+00  0.119224D+00 -0.510415D-02  0.645071D-02
     15 -0.414184D-01  0.119212D+00 -0.118154D+00  0.290612D-02 -0.333058D-02
     16 -0.732912D-03  0.000000D+00 -0.188146D-04 -0.508771D-02  0.000000D+00
     17  0.200445D-05 -0.361946D-02  0.000000D+00  0.000000D+00  0.193657D-02
     18 -0.702949D-04  0.000000D+00 -0.365133D-02  0.510360D-04  0.000000D+00
     19  0.548620D-02  0.000000D+00 -0.952447D-05 -0.588226D-02  0.000000D+00
     20  0.000000D+00  0.789993D-03  0.000000D+00  0.000000D+00 -0.316960D-03
     21  0.282740D-04  0.000000D+00  0.799232D-03 -0.260305D-04  0.000000D+00
                6             7             8             9            10 
      6  0.183658D-01
      7  0.198827D-01  0.743339D-01
      8 -0.188746D-04  0.200548D-03  0.460660D-01
      9  0.840572D-02 -0.875517D-01 -0.665565D-03  0.337958D+00
     10 -0.100290D-01  0.436035D-02  0.739680D-02  0.432723D-02  0.740754D-01
     11  0.337375D-02 -0.161521D-04  0.209909D-02  0.239528D-02  0.752144D-01
     12  0.256140D-02 -0.853771D-02 -0.251043D-01 -0.111408D-01  0.436870D-01
     13 -0.995417D-02  0.435980D-02 -0.741947D-02  0.429358D-02  0.435008D-02
     14 -0.335408D-02  0.528875D-04  0.199950D-02 -0.233909D-02  0.739133D-02
     15  0.253244D-02 -0.853634D-02  0.251642D-01 -0.110351D-01  0.426912D-02
     16  0.721126D-05 -0.209850D-02  0.000000D+00  0.491462D-03 -0.205207D-02
     17  0.000000D+00  0.000000D+00 -0.143472D-02 -0.765096D-05  0.881552D-05
     18  0.194268D-02 -0.738768D-05 -0.755078D-05  0.198024D-02  0.723269D-05
     19  0.217286D-05  0.231741D-03 -0.133458D-05  0.670803D-03  0.226589D-03
     20  0.000000D+00  0.000000D+00  0.289356D-03  0.158087D-05  0.813714D-04
     21 -0.318119D-03 -0.949037D-04  0.157956D-05 -0.428272D-03  0.479552D-04
               11            12            13            14            15 
     11  0.264205D+00
     12  0.126634D+00  0.119603D+00
     13 -0.741438D-02  0.423694D-02  0.740558D-01
     14 -0.176471D-01  0.136960D-01 -0.754247D-01  0.265485D+00
     15 -0.138186D-01  0.863555D-02  0.433534D-01 -0.126062D+00  0.118486D+00
     16 -0.413550D-03 -0.243058D-03 -0.205066D-02  0.414881D-03 -0.240972D-03
     17  0.112411D-02  0.148387D-02 -0.911830D-05  0.113794D-02 -0.147592D-02
     18  0.148486D-02 -0.555782D-03  0.706351D-05 -0.147701D-02 -0.569043D-03
     19 -0.567572D-03 -0.335827D-03  0.226162D-03  0.568925D-03 -0.332925D-03
     20 -0.249344D-03 -0.312465D-03 -0.815117D-04 -0.252280D-03  0.310795D-03
     21 -0.313938D-03  0.101644D-03  0.475826D-04  0.312269D-03  0.104441D-03
               16            17            18            19            20 
     16  0.113753D+01
     17 -0.446812D-04  0.197536D-03
     18  0.288881D-02  0.000000D+00  0.199843D-03
     19 -0.112551D+01  0.439300D-04 -0.287646D-02  0.112522D+01
     20  0.440129D-04  0.658027D-03  0.000000D+00 -0.439252D-04 -0.918792D-03
     21 -0.288464D-02  0.000000D+00  0.653383D-03  0.288176D-02  0.000000D+00
               21 
     21 -0.912309D-03
 Leave Link  716 at Sun Oct 13 09:52:14 2024, MaxMem=  2684354560 cpu:               0.9 elap:               0.1
 (Enter /usr/local/g16_AVX//g16/l103.exe)

 GradGradGradGradGradGradGradGradGradGradGradGradGradGradGradGradGradGrad
 Berny optimization.
 Search for a local minimum.
 Step number   1 out of a maximum of    2
 All quantities printed in internal units (Hartrees-Bohrs-Radians)
 Second derivative matrix not updated -- analytic derivatives used.
 ITU=  0
     Eigenvalues ---   -0.00178  -0.00178   0.00143   0.00144   0.00769
     Eigenvalues ---    0.06237   0.06240   0.10948   0.10949   0.11580
     Eigenvalues ---    0.21834   0.49695   0.88589   0.88661   2.25589
 Eigenvalue     1 is  -1.78D-03 should be greater than     0.000000 Eigenvector:
                          Z6        Z7        Z2        Z4        Z5
   1                    0.62490  -0.60551  -0.21421   0.20304   0.20277
                          Z3        X3        Z1        X5        X4
   1                    0.20023   0.18217   0.14229  -0.10203  -0.08228
 Eigenvalue     2 is  -1.78D-03 should be greater than     0.000000 Eigenvector:
                          Y6        Y7        Y2        Y3        Y5
   1                    0.62491  -0.60552  -0.21421   0.20331   0.20149
                          Y4        X4        X5        Y1        Z6
   1                    0.20129  -0.16401   0.15269   0.14226   0.04026
 Angle between quadratic step and forces=  69.34 degrees.
 Linear search not attempted -- first point.
 B after Tr=     0.003750    0.000022    0.001551
         Rot=    1.000000   -0.000000   -0.000072    0.000003 Ang=  -0.01 deg.
 Variable       Old X    -DE/DX   Delta X   Delta X   Delta X     New X
                                 (Linear)    (Quad)   (Total)
    X1       -0.74257   0.00516   0.00000  -0.05581  -0.05206  -0.79463
    Y1       -0.00001   0.00004   0.00000  -0.00001   0.00002   0.00001
    Z1        0.00336   0.00007   0.00000  -0.00364  -0.00198   0.00138
    X2       -4.19931  -0.01161   0.00000  -0.10495  -0.10120  -4.30051
    Y2       -0.00001   0.00001   0.00000   0.00004   0.00009   0.00008
    Z2       -0.00016   0.00001   0.00000   0.00252   0.00469   0.00453
    X3       -0.11142   0.00123   0.00000  -0.05234  -0.04887  -0.16029
    Y3        0.00445  -0.00001   0.00000  -0.00005  -0.00003   0.00442
    Z3       -1.94718   0.00087   0.00000  -0.00229  -0.00071  -1.94789
    X4       -0.11432   0.00119   0.00000  -0.04717  -0.04327  -0.15759
    Y4        1.68805  -0.00087   0.00000  -0.00280  -0.00278   1.68528
    Z4        0.98345  -0.00049   0.00000  -0.00599  -0.00442   0.97903
    X5       -0.11471   0.00123   0.00000  -0.04685  -0.04297  -0.15769
    Y5       -1.69247   0.00083   0.00000   0.00272   0.00274  -1.68973
    Z5        0.97577  -0.00047   0.00000  -0.00598  -0.00440   0.97136
    X6        4.80174  -0.00001   0.00000   0.13928   0.14304   4.94478
    Y6        0.00007  -0.00000   0.00000  -0.00006  -0.00007  -0.00001
    Z6       -0.00488   0.00001   0.00000   0.00852   0.00936   0.00448
    X7        7.03261   0.00280   0.00000   0.14159   0.14534   7.17795
    Y7       -0.00002  -0.00000   0.00000   0.00005   0.00003   0.00001
    Z7        0.00084   0.00000   0.00000  -0.00305  -0.00254  -0.00170
         Item               Value     Threshold  Converged?
 Maximum Force            0.011615     0.000450     NO 
 RMS     Force            0.002899     0.000300     NO 
 Maximum Displacement     0.145340     0.001800     NO 
 RMS     Displacement     0.053815     0.001200     NO 
 Predicted change in Energy=-5.785413D-04
 GradGradGradGradGradGradGradGradGradGradGradGradGradGradGradGradGradGrad

 Leave Link  103 at Sun Oct 13 09:52:14 2024, MaxMem=  2684354560 cpu:               0.6 elap:               0.1
 (Enter /usr/local/g16_AVX//g16/l9999.exe)

 ----------------------------------------------------------------------

 Electric dipole moment (input orientation):
 (Debye = 10**-18 statcoulomb cm , SI units = C m)
                  (au)            (Debye)         (10**-30 SI)
   Tot        0.413098D+01      0.104999D+02      0.350239D+02
   x         -0.413098D+01     -0.104999D+02     -0.350239D+02
   y         -0.200102D-04     -0.508609D-04     -0.169654D-03
   z          0.266129D-02      0.676432D-02      0.225633D-01

 Dipole polarizability, Alpha (input orientation).
 (esu units = cm**3 , SI units = C**2 m**2 J**-1)
 Alpha(0;0):
               (au)            (10**-24 esu)      (10**-40 SI)
   iso        0.559431D+02      0.828991D+01      0.922377D+01
   aniso      0.475069D+02      0.703980D+01      0.783283D+01
   xx         0.876144D+02      0.129831D+02      0.144457D+02
   yx         0.533328D-03      0.790311D-04      0.879339D-04
   yy         0.401101D+02      0.594371D+01      0.661326D+01
   zx         0.305275D-01      0.452370D-02      0.503330D-02
   zy         0.156151D-03      0.231392D-04      0.257458D-04
   zz         0.401048D+02      0.594292D+01      0.661239D+01

 ----------------------------------------------------------------------

 Dipole orientation:
     6          0.00288344         -0.00000773          0.74256800
    17         -0.00286972          0.00000899          4.19931251
     1         -1.94724898          0.00443763          0.11016567
     1          0.98336925          1.68805987          0.11494057
     1          0.97570173         -1.69246367          0.11535072
     6         -0.00178586          0.00004287         -4.80174521
     7          0.00537341         -0.00005483         -7.03260999

 Electric dipole moment (dipole orientation):
 (Debye = 10**-18 statcoulomb cm , SI units = C m)
                  (au)            (Debye)         (10**-30 SI)
   Tot        0.413098D+01      0.104999D+02      0.350239D+02
   x          0.000000D+00      0.000000D+00      0.000000D+00
   y          0.000000D+00      0.000000D+00      0.000000D+00
   z          0.413098D+01      0.104999D+02      0.350239D+02

 Dipole polarizability, Alpha (dipole orientation).
 (esu units = cm**3 , SI units = C**2 m**2 J**-1)
 Alpha(0;0):
               (au)            (10**-24 esu)      (10**-40 SI)
   iso        0.559431D+02      0.828991D+01      0.922377D+01
   aniso      0.475069D+02      0.703980D+01      0.783283D+01
   xx         0.401049D+02      0.594293D+01      0.661240D+01
   yx         0.156173D-03      0.231424D-04      0.257494D-04
   yy         0.401101D+02      0.594371D+01      0.661326D+01
   zx        -0.611344D-01     -0.905918D-02     -0.100797D-01
   zy        -0.303416D-03     -0.449616D-04     -0.500266D-04
   zz         0.876143D+02      0.129831D+02      0.144456D+02

 ----------------------------------------------------------------------
 1\1\GINC-NODO7\Freq\RB3LYP\6-31++G(d,p)\C2H3Cl1N1(1-)\ALANQF\13-Oct-20
 24\0\\#p b3lyp 6-31++g(d,p) scf=verytight NoSymm freq=noraman int=ultr
 afine\\RxCoord=3.99752 DE=45.54\\-1,1\C,-0.392949,-0.000006,0.001779\C
 l,-2.222181,-0.000006,-0.000087\H,-0.058961,0.002353,-1.030402\H,-0.06
 0493,0.89328,0.52042\H,-0.060704,-0.895616,0.516354\C,2.540973,0.00003
 5,-0.002582\N,3.721498,-0.000011,0.000446\\Version=ES64L-G16RevB.01\HF
 =-592.9948283\RMSD=1.852e-09\RMSF=2.899e-03\ZeroPoint=0.043224\Thermal
 =0.0484925\Dipole=-4.0834273,-0.0000194,0.0028162\DipoleDeriv=1.598544
 4,0.000039,0.0005308,-0.0000118,0.0638059,0.0000222,0.0012448,0.000022
 2,0.062977,-1.2916857,-0.0000041,-0.0001212,-0.000027,-0.2795717,0.000
 0031,-0.0006874,0.0000031,-0.2795698,-0.0238514,-0.0000062,0.0026414,-
 0.0000453,0.083467,0.0001961,0.0243105,0.0001988,-0.0067415,-0.0246108
 ,-0.0025792,-0.0017135,-0.0214457,0.0154703,-0.0394903,-0.0128257,-0.0
 394533,0.060624,-0.024715,0.0025569,-0.0016848,0.0215222,0.0151163,0.0
 392662,-0.0127271,0.0392266,0.0609821,-0.2265014,-0.0000148,0.0009806,
 -0.0000169,-0.4768485,0.0000032,0.0025576,0.0000032,-0.4767904,-1.0071
 801,0.0000084,-0.0006333,0.0000245,-0.4214393,-0.0000005,-0.0018727,-0
 .0000005,-0.4214813\Polar=87.6143521,0.0005333,40.1101117,0.0305275,0.
 0001562,40.1047965\Quadrupole=-28.2011234,14.1005242,14.1005992,0.0001
 493,0.0042637,-0.0000473\PG=C01 [X(C2H3Cl1N1)]\NImag=2\\0.25987736,-0.
 00001870,0.59906738,-0.00045621,-0.00009906,0.59944136,-0.09576031,0.0
 0000501,-0.00006694,0.18094873,0.00000155,-0.03347625,0.00000020,-0.00
 000715,0.01836851,-0.00007095,0.00000023,-0.03348991,0.00016210,-0.000
 00111,0.01836579,-0.05642986,-0.00019209,0.08484538,-0.02475743,-0.000
 04525,0.01988266,0.07433390,-0.00019026,-0.04963479,0.00063049,0.00001
 454,0.00061553,-0.00001887,0.00020055,0.04606603,0.08372375,0.00063316
 ,-0.32573946,-0.00595512,-0.00001772,0.00840572,-0.08755170,-0.0006655
 6,0.33795764,-0.05623658,-0.07285856,-0.04230953,-0.02472376,-0.017234
 12,-0.01002902,0.00436035,0.00739680,0.00432723,0.07407539,-0.07189481
 ,-0.25595314,-0.11975554,0.00509210,0.00642188,0.00337375,-0.00001615,
 0.00209909,0.00239528,0.07521437,0.26420454,-0.04173619,-0.11974646,-0
 .11920552,0.00292884,0.00334912,0.00256140,-0.00853771,-0.02510426,-0.
 01114079,0.04368701,0.12663422,0.11960350,-0.05620389,0.07306351,-0.04
 198437,-0.02473725,0.01728565,-0.00995417,0.00435980,-0.00741947,0.004
 29358,0.00435008,-0.00741438,0.00423694,0.07405576,0.07210081,-0.25717
 372,0.11922422,-0.00510415,0.00645071,-0.00335408,0.00005289,0.0019995
 0,-0.00233909,0.00739133,-0.01764713,0.01369597,-0.07542468,0.26548499
 ,-0.04141838,0.11921244,-0.11815437,0.00290612,-0.00333058,0.00253244,
 -0.00853634,0.02516418,-0.01103509,0.00426912,-0.01381863,0.00863555,0
 .04335337,-0.12606228,0.11848607,-0.00073291,0.00000056,-0.00001881,-0
 .00508771,-0.00000039,0.00000721,-0.00209850,-0.00000083,0.00049146,-0
 .00205207,-0.00041355,-0.00024306,-0.00205066,0.00041488,-0.00024097,1
 .13752794,0.00000200,-0.00361946,-0.00000041,-0.00000075,0.00193657,0.
 00000011,-0.00000020,-0.00143472,-0.00000765,0.00000882,0.00112411,0.0
 0148387,-0.00000912,0.00113794,-0.00147592,-0.00004468,0.00019754,-0.0
 0007029,-0.00000040,-0.00365133,0.00005104,0.00000012,0.00194268,-0.00
 000739,-0.00000755,0.00198024,0.00000723,0.00148486,-0.00055578,0.0000
 0706,-0.00147701,-0.00056904,0.00288881,-0.00000015,0.00019984,0.00548
 620,0.00000027,-0.00000952,-0.00588226,-0.00000029,0.00000217,0.000231
 74,-0.00000133,0.00067080,0.00022659,-0.00056757,-0.00033583,0.0002261
 6,0.00056892,-0.00033292,-1.12550608,0.00004393,-0.00287646,1.12521765
 ,-0.00000059,0.00078999,0.00000009,0.00000039,-0.00031696,-0.00000002,
 0.00000025,0.00028936,0.00000158,0.00008137,-0.00024934,-0.00031246,-0
 .00008151,-0.00025228,0.00031080,0.00004401,0.00065803,0.00000013,-0.0
 0004393,-0.00091879,0.00002827,0.00000010,0.00079923,-0.00002603,-0.00
 000002,-0.00031812,-0.00009490,0.00000158,-0.00042827,0.00004796,-0.00
 031394,0.00010164,0.00004758,0.00031227,0.00010444,-0.00288464,0.00000
 013,0.00065338,0.00288176,-0.00000012,-0.00091231\\-0.00516420,-0.0000
 4193,-0.00007455,0.01161465,-0.00000659,-0.00000646,-0.00123285,0.0000
 0607,-0.00086777,-0.00119325,0.00086807,0.00049212,-0.00122551,-0.0008
 2573,0.00046729,0.00000531,0.00000002,-0.00000791,-0.00280416,0.000000
 09,-0.00000272\\\@


 The hours that make us happy make us wise.
                         -- John Masefield
 Job cpu time:       0 days  0 hours  3 minutes 39.1 seconds.
 Elapsed time:       0 days  0 hours  0 minutes  9.4 seconds.
 File lengths (MBytes):  RWF=     88 Int=      0 D2E=      0 Chk=      2 Scr=      2
 Normal termination of Gaussian 16 at Sun Oct 13 09:52:14 2024.
