 Entering Gaussian System, Link 0=g16
 Initial command:
 /usr/local/g16_AVX//g16/l1.exe "/scratch/alanqf/0142-54584.ixchel.mda.cinvestav.mx/Gau-43712.inp" -scrdir="/scratch/alanqf/0142-54584.ixchel.mda.cinvestav.mx/"
 Entering Link 1 = /usr/local/g16_AVX//g16/l1.exe PID=     43719.
  
 Copyright (c) 1988-2017, Gaussian, Inc.  All Rights Reserved.
  
 This is part of the Gaussian(R) 16 program.  It is based on
 the Gaussian(R) 09 system (copyright 2009, Gaussian, Inc.),
 the Gaussian(R) 03 system (copyright 2003, Gaussian, Inc.),
 the Gaussian(R) 98 system (copyright 1998, Gaussian, Inc.),
 the Gaussian(R) 94 system (copyright 1995, Gaussian, Inc.),
 the Gaussian 92(TM) system (copyright 1992, Gaussian, Inc.),
 the Gaussian 90(TM) system (copyright 1990, Gaussian, Inc.),
 the Gaussian 88(TM) system (copyright 1988, Gaussian, Inc.),
 the Gaussian 86(TM) system (copyright 1986, Carnegie Mellon
 University), and the Gaussian 82(TM) system (copyright 1983,
 Carnegie Mellon University). Gaussian is a federally registered
 trademark of Gaussian, Inc.
  
 This software contains proprietary and confidential information,
 including trade secrets, belonging to Gaussian, Inc.
  
 This software is provided under written license and may be
 used, copied, transmitted, or stored only in accord with that
 written license.
  
 The following legend is applicable only to US Government
 contracts under FAR:
  
                    RESTRICTED RIGHTS LEGEND
  
 Use, reproduction and disclosure by the US Government is
 subject to restrictions as set forth in subparagraphs (a)
 and (c) of the Commercial Computer Software - Restricted
 Rights clause in FAR 52.227-19.
  
 Gaussian, Inc.
 340 Quinnipiac St., Bldg. 40, Wallingford CT 06492
  
  
 ---------------------------------------------------------------
 Warning -- This program may not be used in any manner that
 competes with the business of Gaussian, Inc. or will provide
 assistance to any competitor of Gaussian, Inc.  The licensee
 of this program is prohibited from giving any competitor of
 Gaussian, Inc. access to this program.  By using this program,
 the user acknowledges that Gaussian, Inc. is engaged in the
 business of creating and licensing software in the field of
 computational chemistry and represents and warrants to the
 licensee that it is not a competitor of Gaussian, Inc. and that
 it will not use this program in any manner prohibited above.
 ---------------------------------------------------------------
  

 Cite this work as:
 Gaussian 16, Revision B.01,
 M. J. Frisch, G. W. Trucks, H. B. Schlegel, G. E. Scuseria, 
 M. A. Robb, J. R. Cheeseman, G. Scalmani, V. Barone, 
 G. A. Petersson, H. Nakatsuji, X. Li, M. Caricato, A. V. Marenich, 
 J. Bloino, B. G. Janesko, R. Gomperts, B. Mennucci, H. P. Hratchian, 
 J. V. Ortiz, A. F. Izmaylov, J. L. Sonnenberg, D. Williams-Young, 
 F. Ding, F. Lipparini, F. Egidi, J. Goings, B. Peng, A. Petrone, 
 T. Henderson, D. Ranasinghe, V. G. Zakrzewski, J. Gao, N. Rega, 
 G. Zheng, W. Liang, M. Hada, M. Ehara, K. Toyota, R. Fukuda, 
 J. Hasegawa, M. Ishida, T. Nakajima, Y. Honda, O. Kitao, H. Nakai, 
 T. Vreven, K. Throssell, J. A. Montgomery, Jr., J. E. Peralta, 
 F. Ogliaro, M. J. Bearpark, J. J. Heyd, E. N. Brothers, K. N. Kudin, 
 V. N. Staroverov, T. A. Keith, R. Kobayashi, J. Normand, 
 K. Raghavachari, A. P. Rendell, J. C. Burant, S. S. Iyengar, 
 J. Tomasi, M. Cossi, J. M. Millam, M. Klene, C. Adamo, R. Cammi, 
 J. W. Ochterski, R. L. Martin, K. Morokuma, O. Farkas, 
 J. B. Foresman, and D. J. Fox, Gaussian, Inc., Wallingford CT, 2016.
 
 ******************************************
 Gaussian 16:  ES64L-G16RevB.01 20-Dec-2017
                13-Oct-2024 
 ******************************************
 %NProcShared=26
 Will use up to   26 processors via shared memory.
 %MEM=20GB
 %chk=CHKfiles/0142.chk
 ---------------------------------------------------------------------
 #p b3lyp 6-31++g(d,p) scf=verytight NoSymm freq=noraman int=ultrafine
 ---------------------------------------------------------------------
 1/10=4,30=1,38=1/1,3;
 2/12=2,15=1,17=6,18=5,40=1/2;
 3/5=1,6=6,7=1111,11=2,25=1,30=1,71=2,74=-5,75=-5,140=1/1,2,3;
 4//1;
 5/5=2,17=3,38=5,98=1/2;
 8/6=4,10=90,11=11/1;
 11/6=1,8=1,9=11,15=111,16=1,31=1/1,2,10;
 10/6=1,31=1/2;
 6/7=2,8=2,9=2,10=2,28=1/1;
 7/8=1,10=1,25=1,30=1/1,2,3,16;
 1/10=4,30=1/3;
 99//99;
 Leave Link    1 at Sun Oct 13 09:52:06 2024, MaxMem=  2684354560 cpu:               1.3 elap:               0.1
 (Enter /usr/local/g16_AVX//g16/l101.exe)
 ------------------------
 RxCoord=4.09750 DE=45.46
 ------------------------
 Symbolic Z-matrix:
 Charge = -1 Multiplicity = 1
 C                    -0.39747  -0.00002   0.00174 
 Cl                   -2.22652   0.       -0.00007 
 H                    -0.0625    0.00229  -1.03051 
 H                    -0.06541   0.89324   0.52028 
 H                    -0.06504  -0.89568   0.51622 
 C                     2.54935   0.00005  -0.00255 
 N                     3.72994  -0.00002   0.00044 
 
 ITRead=  0  0  0  0  0  0  0
 MicOpt= -1 -1 -1 -1 -1 -1 -1
 NAtoms=      7 NQM=        7 NQMF=       0 NMMI=      0 NMMIF=      0
                NMic=       0 NMicF=      0.
                    Isotopes and Nuclear Properties:
 (Nuclear quadrupole moments (NQMom) in fm**2, nuclear magnetic moments (NMagM)
  in nuclear magnetons)

  Atom         1           2           3           4           5           6           7
 IAtWgt=          12          35           1           1           1          12          14
 AtmWgt=  12.0000000  34.9688527   1.0078250   1.0078250   1.0078250  12.0000000  14.0030740
 NucSpn=           0           3           1           1           1           0           2
 AtZEff=  -0.0000000  -0.0000000  -0.0000000  -0.0000000  -0.0000000  -0.0000000  -0.0000000
 NQMom=    0.0000000  -8.1650000   0.0000000   0.0000000   0.0000000   0.0000000   2.0440000
 NMagM=    0.0000000   0.8218740   2.7928460   2.7928460   2.7928460   0.0000000   0.4037610
 AtZNuc=   6.0000000  17.0000000   1.0000000   1.0000000   1.0000000   6.0000000   7.0000000
 Leave Link  101 at Sun Oct 13 09:52:06 2024, MaxMem=  2684354560 cpu:               2.7 elap:               0.1
 (Enter /usr/local/g16_AVX//g16/l103.exe)

 GradGradGradGradGradGradGradGradGradGradGradGradGradGradGradGradGradGrad
 Berny optimization.
 Initialization pass.
 Trust Radius=3.00D-01 FncErr=1.00D-07 GrdErr=1.00D-07 EigMax=2.50D+02 EigMin=1.00D-04
 Number of steps in this run=      2 maximum allowed number of steps=      2.
 GradGradGradGradGradGradGradGradGradGradGradGradGradGradGradGradGradGrad

 Leave Link  103 at Sun Oct 13 09:52:06 2024, MaxMem=  2684354560 cpu:               0.6 elap:               0.1
 (Enter /usr/local/g16_AVX//g16/l202.exe)
                          Input orientation:                          
 ---------------------------------------------------------------------
 Center     Atomic      Atomic             Coordinates (Angstroms)
 Number     Number       Type             X           Y           Z
 ---------------------------------------------------------------------
      1          6           0       -0.397470   -0.000020    0.001744
      2         17           0       -2.226517    0.000002   -0.000072
      3          1           0       -0.062502    0.002289   -1.030507
      4          1           0       -0.065407    0.893236    0.520279
      5          1           0       -0.065040   -0.895676    0.516219
      6          6           0        2.549354    0.000050   -0.002547
      7          7           0        3.729938   -0.000020    0.000437
 ---------------------------------------------------------------------
                    Distance matrix (angstroms):
                    1          2          3          4          5
     1  C    0.000000
     2  Cl   1.829048   0.000000
     3  H    1.085242   2.396823   0.000000
     4  H    1.084920   2.395627   1.788500   0.000000
     5  H    1.085078   2.395992   1.788493   1.788917   0.000000
     6  C    2.946827   4.775872   2.806866   2.812135   2.811850
     7  N    4.127408   5.956455   3.930070   3.933546   3.933203
                    6          7
     6  C    0.000000
     7  N    1.180588   0.000000
 Symmetry turned off by external request.
 Stoichiometry    C2H3ClN(1-)
 Framework group  C1[X(C2H3ClN)]
 Deg. of freedom    15
 Full point group                 C1      NOp   1
 Rotational constants (GHZ):         156.7372278           1.1238606           1.1238584
 Leave Link  202 at Sun Oct 13 09:52:06 2024, MaxMem=  2684354560 cpu:               0.2 elap:               0.0
 (Enter /usr/local/g16_AVX//g16/l301.exe)
 Standard basis: 6-31++G(d,p) (6D, 7F)
 Ernie: Thresh=  0.10000D-02 Tol=  0.10000D-05 Strict=F.
    98 basis functions,   176 primitive gaussians,    98 cartesian basis functions
    20 alpha electrons       20 beta electrons
       nuclear repulsion energy       109.2041025191 Hartrees.
 IExCor=  402 DFT=T Ex+Corr=B3LYP ExCW=0 ScaHFX=  0.200000
 ScaDFX=  0.800000  0.720000  1.000000  0.810000 ScalE2=  1.000000  1.000000
 IRadAn=      5 IRanWt=     -1 IRanGd=            0 ICorTp=0 IEmpDi=  4
 NAtoms=    7 NActive=    7 NUniq=    7 SFac= 1.00D+00 NAtFMM=   60 NAOKFM=F Big=F
 Integral buffers will be    131072 words long.
 Raffenetti 2 integral format.
 Two-electron integral symmetry is turned off.
 Leave Link  301 at Sun Oct 13 09:52:07 2024, MaxMem=  2684354560 cpu:               1.3 elap:               0.1
 (Enter /usr/local/g16_AVX//g16/l302.exe)
 NPDir=0 NMtPBC=     1 NCelOv=     1 NCel=       1 NClECP=     1 NCelD=      1
         NCelK=      1 NCelE2=     1 NClLst=     1 CellRange=     0.0.
 One-electron integrals computed using PRISM.
 NBasis=    98 RedAO= T EigKep=  1.46D-04  NBF=    98
 NBsUse=    98 1.00D-06 EigRej= -1.00D+00 NBFU=    98
 Precomputing XC quadrature grid using
 IXCGrd= 4 IRadAn=           5 IRanWt=          -1 IRanGd=           0 AccXCQ= 0.00D+00.
 Generated NRdTot=       0 NPtTot=           0 NUsed=           0 NTot=          32
 NSgBfM=    98    98    98    98    98 MxSgAt=     7 MxSgA2=     7.
 Leave Link  302 at Sun Oct 13 09:52:07 2024, MaxMem=  2684354560 cpu:               3.9 elap:               0.2
 (Enter /usr/local/g16_AVX//g16/l303.exe)
 DipDrv:  MaxL=1.
 Leave Link  303 at Sun Oct 13 09:52:07 2024, MaxMem=  2684354560 cpu:               0.8 elap:               0.1
 (Enter /usr/local/g16_AVX//g16/l401.exe)
 ExpMin= 3.60D-02 ExpMax= 2.52D+04 ExpMxC= 3.78D+03 IAcc=3 IRadAn=         5 AccDes= 0.00D+00
 Harris functional with IExCor=  402 and IRadAn=       5 diagonalized for initial guess.
 HarFok:  IExCor=  402 AccDes= 0.00D+00 IRadAn=         5 IDoV= 1 UseB2=F ITyADJ=14
 ICtDFT=  3500011 ScaDFX=  1.000000  1.000000  1.000000  1.000000
 FoFCou: FMM=F IPFlag=           0 FMFlag=      100000 FMFlg1=           0
         NFxFlg=           0 DoJE=T BraDBF=F KetDBF=T FulRan=T
         wScrn=  0.000000 ICntrl=       500 IOpCl=  0 I1Cent=   200000004 NGrid=           0
         NMat0=    1 NMatS0=      1 NMatT0=    0 NMatD0=    1 NMtDS0=    0 NMtDT0=    0
 Symmetry not used in FoFCou.
 Harris En= -593.079011218475    
 JPrj=0 DoOrth=F DoCkMO=F.
 Leave Link  401 at Sun Oct 13 09:52:07 2024, MaxMem=  2684354560 cpu:               5.8 elap:               0.3
 (Enter /usr/local/g16_AVX//g16/l502.exe)
 Keep R1 ints in memory in canonical form, NReq=35752935.
 FoFCou: FMM=F IPFlag=           0 FMFlag=           0 FMFlg1=           0
         NFxFlg=           0 DoJE=F BraDBF=F KetDBF=F FulRan=T
         wScrn=  0.000000 ICntrl=       600 IOpCl=  0 I1Cent=           0 NGrid=           0
         NMat0=    1 NMatS0=   4851 NMatT0=    0 NMatD0=    1 NMtDS0=    0 NMtDT0=    0
 Symmetry not used in FoFCou.
 Two-electron integral symmetry not used.
 Closed shell SCF:
 Using DIIS extrapolation, IDIIS=  1040.
 NGot=  2684354560 LenX=  2672563405 LenY=  2672553360
 Requested convergence on RMS density matrix=1.00D-08 within 128 cycles.
 Requested convergence on MAX density matrix=1.00D-06.
 Requested convergence on             energy=1.00D-06.
 No special actions if energy rises.

 Cycle   1  Pass 1  IDiag  1:
 E= -592.842399527658    
 DIIS: error= 3.49D-02 at cycle   1 NSaved=   1.
 NSaved= 1 IEnMin= 1 EnMin= -592.842399527658     IErMin= 1 ErrMin= 3.49D-02
 ErrMax= 3.49D-02  0.00D+00 EMaxC= 1.00D-01 BMatC= 1.32D-01 BMatP= 1.32D-01
 IDIUse=3 WtCom= 6.51D-01 WtEn= 3.49D-01
 Coeff-Com:  0.100D+01
 Coeff-En:   0.100D+01
 Coeff:      0.100D+01
 Gap=     0.632 Goal=   None    Shift=    0.000
 GapD=    0.632 DampG=2.000 DampE=0.500 DampFc=1.0000 IDamp=-1.
 RMSDP=7.29D-02 MaxDP=2.49D+00              OVMax= 3.81D-01

 Cycle   2  Pass 1  IDiag  1:
 E= -592.638013893128     Delta-E=        0.204385634530 Rises=F Damp=F
 DIIS: error= 4.99D-02 at cycle   2 NSaved=   2.
 NSaved= 2 IEnMin= 1 EnMin= -592.842399527658     IErMin= 1 ErrMin= 3.49D-02
 ErrMax= 4.99D-02  0.00D+00 EMaxC= 1.00D-01 BMatC= 3.01D-01 BMatP= 1.32D-01
 IDIUse=2 WtCom= 0.00D+00 WtEn= 1.00D+00
 Coeff-En:   0.687D+00 0.313D+00
 Coeff:      0.687D+00 0.313D+00
 Gap=     0.152 Goal=   None    Shift=    0.000
 RMSDP=7.15D-02 MaxDP=2.48D+00 DE= 2.04D-01 OVMax= 2.43D-01

 Cycle   3  Pass 1  IDiag  1:
 E= -592.983350218626     Delta-E=       -0.345336325498 Rises=F Damp=F
 DIIS: error= 8.04D-03 at cycle   3 NSaved=   3.
 NSaved= 3 IEnMin= 3 EnMin= -592.983350218626     IErMin= 3 ErrMin= 8.04D-03
 ErrMax= 8.04D-03  0.00D+00 EMaxC= 1.00D-01 BMatC= 1.06D-02 BMatP= 1.32D-01
 IDIUse=3 WtCom= 9.20D-01 WtEn= 8.04D-02
 Coeff-Com:  0.274D+00 0.110D+00 0.617D+00
 Coeff-En:   0.000D+00 0.000D+00 0.100D+01
 Coeff:      0.252D+00 0.101D+00 0.648D+00
 Gap=     0.183 Goal=   None    Shift=    0.000
 RMSDP=2.51D-03 MaxDP=4.27D-02 DE=-3.45D-01 OVMax= 5.09D-02

 Cycle   4  Pass 1  IDiag  1:
 E= -592.988254656362     Delta-E=       -0.004904437736 Rises=F Damp=F
 DIIS: error= 1.22D-02 at cycle   4 NSaved=   4.
 NSaved= 4 IEnMin= 4 EnMin= -592.988254656362     IErMin= 3 ErrMin= 8.04D-03
 ErrMax= 1.22D-02  0.00D+00 EMaxC= 1.00D-01 BMatC= 7.06D-03 BMatP= 1.06D-02
 IDIUse=3 WtCom= 8.78D-01 WtEn= 1.22D-01
 Coeff-Com:  0.510D-01-0.232D-01 0.487D+00 0.485D+00
 Coeff-En:   0.000D+00 0.000D+00 0.379D+00 0.621D+00
 Coeff:      0.447D-01-0.204D-01 0.474D+00 0.502D+00
 Gap=     0.173 Goal=   None    Shift=    0.000
 RMSDP=9.19D-04 MaxDP=1.51D-02 DE=-4.90D-03 OVMax= 2.95D-02

 Cycle   5  Pass 1  IDiag  1:
 E= -592.994620804463     Delta-E=       -0.006366148101 Rises=F Damp=F
 DIIS: error= 2.50D-03 at cycle   5 NSaved=   5.
 NSaved= 5 IEnMin= 5 EnMin= -592.994620804463     IErMin= 5 ErrMin= 2.50D-03
 ErrMax= 2.50D-03  0.00D+00 EMaxC= 1.00D-01 BMatC= 2.72D-04 BMatP= 7.06D-03
 IDIUse=3 WtCom= 9.75D-01 WtEn= 2.50D-02
 Coeff-Com:  0.162D-01-0.113D-01 0.219D+00 0.274D+00 0.502D+00
 Coeff-En:   0.000D+00 0.000D+00 0.000D+00 0.000D+00 0.100D+01
 Coeff:      0.158D-01-0.110D-01 0.213D+00 0.267D+00 0.514D+00
 Gap=     0.176 Goal=   None    Shift=    0.000
 RMSDP=2.59D-04 MaxDP=4.07D-03 DE=-6.37D-03 OVMax= 6.53D-03

 Cycle   6  Pass 1  IDiag  1:
 E= -592.994863306885     Delta-E=       -0.000242502422 Rises=F Damp=F
 DIIS: error= 8.36D-04 at cycle   6 NSaved=   6.
 NSaved= 6 IEnMin= 6 EnMin= -592.994863306885     IErMin= 6 ErrMin= 8.36D-04
 ErrMax= 8.36D-04  0.00D+00 EMaxC= 1.00D-01 BMatC= 2.86D-05 BMatP= 2.72D-04
 IDIUse=3 WtCom= 9.92D-01 WtEn= 8.36D-03
 Coeff-Com:  0.295D-02-0.569D-02 0.592D-01 0.752D-01 0.268D+00 0.600D+00
 Coeff-En:   0.000D+00 0.000D+00 0.000D+00 0.000D+00 0.816D-01 0.918D+00
 Coeff:      0.293D-02-0.564D-02 0.588D-01 0.746D-01 0.267D+00 0.603D+00
 Gap=     0.176 Goal=   None    Shift=    0.000
 RMSDP=6.92D-05 MaxDP=1.23D-03 DE=-2.43D-04 OVMax= 1.62D-03

 Cycle   7  Pass 1  IDiag  1:
 E= -592.994890752889     Delta-E=       -0.000027446004 Rises=F Damp=F
 DIIS: error= 6.39D-05 at cycle   7 NSaved=   7.
 NSaved= 7 IEnMin= 7 EnMin= -592.994890752889     IErMin= 7 ErrMin= 6.39D-05
 ErrMax= 6.39D-05  0.00D+00 EMaxC= 1.00D-01 BMatC= 3.89D-07 BMatP= 2.86D-05
 IDIUse=1 WtCom= 1.00D+00 WtEn= 0.00D+00
 Coeff-Com:  0.336D-03-0.823D-03 0.277D-02 0.219D-02 0.427D-01 0.179D+00
 Coeff-Com:  0.773D+00
 Coeff:      0.336D-03-0.823D-03 0.277D-02 0.219D-02 0.427D-01 0.179D+00
 Coeff:      0.773D+00
 Gap=     0.176 Goal=   None    Shift=    0.000
 RMSDP=1.30D-05 MaxDP=2.23D-04 DE=-2.74D-05 OVMax= 2.58D-04

 Cycle   8  Pass 1  IDiag  1:
 E= -592.994891209116     Delta-E=       -0.000000456227 Rises=F Damp=F
 DIIS: error= 8.99D-06 at cycle   8 NSaved=   8.
 NSaved= 8 IEnMin= 8 EnMin= -592.994891209116     IErMin= 8 ErrMin= 8.99D-06
 ErrMax= 8.99D-06  0.00D+00 EMaxC= 1.00D-01 BMatC= 1.37D-08 BMatP= 3.89D-07
 IDIUse=1 WtCom= 1.00D+00 WtEn= 0.00D+00
 Coeff-Com:  0.877D-04-0.116D-03 0.432D-04 0.189D-03 0.907D-02 0.415D-01
 Coeff-Com:  0.231D+00 0.719D+00
 Coeff:      0.877D-04-0.116D-03 0.432D-04 0.189D-03 0.907D-02 0.415D-01
 Coeff:      0.231D+00 0.719D+00
 Gap=     0.176 Goal=   None    Shift=    0.000
 RMSDP=2.21D-06 MaxDP=5.88D-05 DE=-4.56D-07 OVMax= 4.60D-05

 Cycle   9  Pass 1  IDiag  1:
 E= -592.994891223601     Delta-E=       -0.000000014485 Rises=F Damp=F
 DIIS: error= 2.93D-06 at cycle   9 NSaved=   9.
 NSaved= 9 IEnMin= 9 EnMin= -592.994891223601     IErMin= 9 ErrMin= 2.93D-06
 ErrMax= 2.93D-06  0.00D+00 EMaxC= 1.00D-01 BMatC= 1.43D-09 BMatP= 1.37D-08
 IDIUse=1 WtCom= 1.00D+00 WtEn= 0.00D+00
 Coeff-Com: -0.753D-05 0.817D-05-0.144D-03 0.102D-03 0.133D-02 0.523D-02
 Coeff-Com:  0.402D-01 0.281D+00 0.672D+00
 Coeff:     -0.753D-05 0.817D-05-0.144D-03 0.102D-03 0.133D-02 0.523D-02
 Coeff:      0.402D-01 0.281D+00 0.672D+00
 Gap=     0.176 Goal=   None    Shift=    0.000
 RMSDP=6.66D-07 MaxDP=1.92D-05 DE=-1.45D-08 OVMax= 1.13D-05

 Cycle  10  Pass 1  IDiag  1:
 E= -592.994891225162     Delta-E=       -0.000000001560 Rises=F Damp=F
 DIIS: error= 4.45D-07 at cycle  10 NSaved=  10.
 NSaved=10 IEnMin=10 EnMin= -592.994891225162     IErMin=10 ErrMin= 4.45D-07
 ErrMax= 4.45D-07  0.00D+00 EMaxC= 1.00D-01 BMatC= 2.51D-11 BMatP= 1.43D-09
 IDIUse=1 WtCom= 1.00D+00 WtEn= 0.00D+00
 Coeff-Com: -0.742D-05 0.641D-05-0.133D-04 0.419D-04 0.116D-04-0.525D-03
 Coeff-Com: -0.142D-02 0.249D-01 0.150D+00 0.827D+00
 Coeff:     -0.742D-05 0.641D-05-0.133D-04 0.419D-04 0.116D-04-0.525D-03
 Coeff:     -0.142D-02 0.249D-01 0.150D+00 0.827D+00
 Gap=     0.176 Goal=   None    Shift=    0.000
 RMSDP=1.51D-07 MaxDP=3.36D-06 DE=-1.56D-09 OVMax= 1.91D-06

 Cycle  11  Pass 1  IDiag  1:
 E= -592.994891225194     Delta-E=       -0.000000000032 Rises=F Damp=F
 DIIS: error= 4.71D-08 at cycle  11 NSaved=  11.
 NSaved=11 IEnMin=11 EnMin= -592.994891225194     IErMin=11 ErrMin= 4.71D-08
 ErrMax= 4.71D-08  0.00D+00 EMaxC= 1.00D-01 BMatC= 2.42D-13 BMatP= 2.51D-11
 IDIUse=1 WtCom= 1.00D+00 WtEn= 0.00D+00
 Coeff-Com: -0.107D-05 0.607D-06-0.747D-05-0.997D-05-0.476D-04-0.143D-03
 Coeff-Com: -0.234D-03-0.218D-02 0.488D-02 0.710D-01 0.927D+00
 Coeff:     -0.107D-05 0.607D-06-0.747D-05-0.997D-05-0.476D-04-0.143D-03
 Coeff:     -0.234D-03-0.218D-02 0.488D-02 0.710D-01 0.927D+00
 Gap=     0.176 Goal=   None    Shift=    0.000
 RMSDP=3.06D-08 MaxDP=5.70D-07 DE=-3.21D-11 OVMax= 3.50D-07

 Cycle  12  Pass 1  IDiag  1:
 E= -592.994891225193     Delta-E=        0.000000000000 Rises=F Damp=F
 DIIS: error= 6.04D-09 at cycle  12 NSaved=  12.
 NSaved=12 IEnMin=11 EnMin= -592.994891225194     IErMin=12 ErrMin= 6.04D-09
 ErrMax= 6.04D-09  0.00D+00 EMaxC= 1.00D-01 BMatC= 3.53D-15 BMatP= 2.42D-13
 IDIUse=1 WtCom= 1.00D+00 WtEn= 0.00D+00
 Coeff-Com: -0.566D-07 0.144D-07-0.922D-06-0.212D-05-0.871D-05-0.190D-04
 Coeff-Com: -0.383D-04-0.825D-03-0.207D-02-0.107D-02 0.116D+00 0.888D+00
 Coeff:     -0.566D-07 0.144D-07-0.922D-06-0.212D-05-0.871D-05-0.190D-04
 Coeff:     -0.383D-04-0.825D-03-0.207D-02-0.107D-02 0.116D+00 0.888D+00
 Gap=     0.176 Goal=   None    Shift=    0.000
 RMSDP=1.83D-09 MaxDP=3.39D-08 DE= 2.27D-13 OVMax= 3.90D-08

 SCF Done:  E(RB3LYP) =  -592.994891225     A.U. after   12 cycles
            NFock= 12  Conv=0.18D-08     -V/T= 2.0046
 KE= 5.902996882993D+02 PE=-1.627974241375D+03 EE= 3.354755593318D+02
 Leave Link  502 at Sun Oct 13 09:52:09 2024, MaxMem=  2684354560 cpu:              34.0 elap:               1.6
 (Enter /usr/local/g16_AVX//g16/l801.exe)
 DoSCS=F DFT=T ScalE2(SS,OS)=  1.000000  1.000000
 Range of M.O.s used for correlation:     1    98
 NBasis=    98 NAE=    20 NBE=    20 NFC=     0 NFV=     0
 NROrb=     98 NOA=    20 NOB=    20 NVA=    78 NVB=    78

 **** Warning!!: The largest alpha MO coefficient is  0.31159246D+02

 Leave Link  801 at Sun Oct 13 09:52:09 2024, MaxMem=  2684354560 cpu:               0.7 elap:               0.1
 (Enter /usr/local/g16_AVX//g16/l1101.exe)
 Using compressed storage, NAtomX=     7.
 Will process      8 centers per pass.
 Leave Link 1101 at Sun Oct 13 09:52:09 2024, MaxMem=  2684354560 cpu:               3.7 elap:               0.2
 (Enter /usr/local/g16_AVX//g16/l1102.exe)
 Symmetrizing basis deriv contribution to polar:
 IMax=3 JMax=2 DiffMx= 0.00D+00
 Leave Link 1102 at Sun Oct 13 09:52:09 2024, MaxMem=  2684354560 cpu:               0.7 elap:               0.1
 (Enter /usr/local/g16_AVX//g16/l1110.exe)
 Forming Gx(P) for the SCF density, NAtomX=     7.
 Integral derivatives from FoFJK, PRISM(SPDF).
 Do as many integral derivatives as possible in FoFJK.
 G2DrvN: MDV=    2684353864.
 G2DrvN: will do     8 centers at a time, making    1 passes.
 Calling FoFCou, ICntrl=  3107 FMM=F I1Cent=   0 AccDes= 0.00D+00.
 FoFJK:  IHMeth= 1 ICntrl=    3107 DoSepK=F KAlg= 0 I1Cent=           0 FoldK=F
 IRaf=         0 NMat=       1 IRICut=       1 DoRegI=T DoRafI=F ISym2E= 0 IDoP0=0 IntGTp=1.
 FoFCou: FMM=F IPFlag=           0 FMFlag=      100000 FMFlg1=           0
         NFxFlg=           0 DoJE=F BraDBF=F KetDBF=F FulRan=T
         wScrn=  0.000000 ICntrl=      3107 IOpCl=  0 I1Cent=           0 NGrid=           0
         NMat0=    1 NMatS0=      1 NMatT0=    0 NMatD0=    1 NMtDS0=    0 NMtDT0=    0
 Symmetry not used in FoFCou.
 End of G2Drv F.D. properties file   721 does not exist.
 End of G2Drv F.D. properties file   722 does not exist.
 End of G2Drv F.D. properties file   788 does not exist.
 Leave Link 1110 at Sun Oct 13 09:52:11 2024, MaxMem=  2684354560 cpu:              37.1 elap:               1.5
 (Enter /usr/local/g16_AVX//g16/l1002.exe)
 Minotr:  Closed shell wavefunction.
          IDoAtm=1111111
          Direct CPHF calculation.
          Differentiating once with respect to electric field.
                with respect to dipole field.
          Differentiating once with respect to nuclear coordinates.
          Requested convergence is 1.0D-08 RMS, and 1.0D-07 maximum.
          Secondary convergence is 1.0D-12 RMS, and 1.0D-12 maximum.
          NewPWx=T KeepS1=F KeepF1=F KeepIn=T MapXYZ=F SortEE=F KeepMc=T.
         2136 words used for storage of precomputed grid.
 Keep R1 ints in memory in canonical form, NReq=35668397.
 FoFCou: FMM=F IPFlag=           0 FMFlag=           0 FMFlg1=           0
         NFxFlg=           0 DoJE=F BraDBF=F KetDBF=F FulRan=T
         wScrn=  0.000000 ICntrl=       600 IOpCl=  0 I1Cent=           0 NGrid=           0
         NMat0=    1 NMatS0=   4851 NMatT0=    0 NMatD0=    1 NMtDS0=    0 NMtDT0=    0
 Symmetry not used in FoFCou.
 Two-electron integral symmetry not used.
          MDV=    2684354560 using IRadAn=       1.
          Solving linear equations simultaneously, MaxMat=       0.
          There are    24 degrees of freedom in the 1st order CPHF.  IDoFFX=6 NUNeed=     3.
     21 vectors produced by pass  0 Test12= 6.50D-15 4.17D-09 XBig12= 7.98D+01 4.29D+00.
 AX will form    21 AO Fock derivatives at one time.
     21 vectors produced by pass  1 Test12= 6.50D-15 4.17D-09 XBig12= 4.68D+01 2.18D+00.
     21 vectors produced by pass  2 Test12= 6.50D-15 4.17D-09 XBig12= 1.49D+00 3.27D-01.
     21 vectors produced by pass  3 Test12= 6.50D-15 4.17D-09 XBig12= 3.45D-02 5.75D-02.
     21 vectors produced by pass  4 Test12= 6.50D-15 4.17D-09 XBig12= 8.81D-05 2.42D-03.
     16 vectors produced by pass  5 Test12= 6.50D-15 4.17D-09 XBig12= 1.80D-07 9.29D-05.
      6 vectors produced by pass  6 Test12= 6.50D-15 4.17D-09 XBig12= 2.01D-10 3.32D-06.
      1 vectors produced by pass  7 Test12= 6.50D-15 4.17D-09 XBig12= 2.53D-13 1.43D-07.
      1 vectors produced by pass  8 Test12= 6.50D-15 4.17D-09 XBig12= 4.05D-16 5.09D-09.
 InvSVY:  IOpt=1 It=  1 EMax= 1.07D-14
 Solved reduced A of dimension   129 with    24 vectors.
 FullF1:  Do perturbations      1 to       3.
 Isotropic polarizability for W=    0.000000       55.91 Bohr**3.
 End of Minotr F.D. properties file   721 does not exist.
 End of Minotr F.D. properties file   722 does not exist.
 End of Minotr F.D. properties file   788 does not exist.
 Leave Link 1002 at Sun Oct 13 09:52:13 2024, MaxMem=  2684354560 cpu:              50.4 elap:               2.0
 (Enter /usr/local/g16_AVX//g16/l601.exe)
 Copying SCF densities to generalized density rwf, IOpCl= 0 IROHF=0.

 **********************************************************************

            Population analysis using the SCF Density.

 **********************************************************************

 Alpha  occ. eigenvalues -- -101.41368 -14.09397 -10.10319  -9.95965  -9.32987
 Alpha  occ. eigenvalues --   -7.09294  -7.08449  -7.08449  -0.71925  -0.64688
 Alpha  occ. eigenvalues --   -0.54183  -0.30994  -0.30975  -0.27983  -0.18215
 Alpha  occ. eigenvalues --   -0.17800  -0.17798  -0.09602  -0.09602  -0.06847
 Alpha virt. eigenvalues --    0.10785   0.12557   0.14391   0.14396   0.17318
 Alpha virt. eigenvalues --    0.20116   0.20188   0.20188   0.21992   0.22009
 Alpha virt. eigenvalues --    0.23937   0.24831   0.24842   0.26959   0.27651
 Alpha virt. eigenvalues --    0.27664   0.31287   0.33189   0.33196   0.36000
 Alpha virt. eigenvalues --    0.38541   0.38554   0.38856   0.46352   0.47831
 Alpha virt. eigenvalues --    0.64180   0.72620   0.74229   0.74231   0.77095
 Alpha virt. eigenvalues --    0.77103   0.87330   0.89687   0.89688   0.97184
 Alpha virt. eigenvalues --    0.99118   0.99123   1.04200   1.04209   1.08004
 Alpha virt. eigenvalues --    1.09223   1.09234   1.12355   1.18935   1.18943
 Alpha virt. eigenvalues --    1.21433   1.26595   1.37252   1.46107   1.59874
 Alpha virt. eigenvalues --    1.59888   1.73201   1.78287   1.78287   1.80476
 Alpha virt. eigenvalues --    1.80479   2.15473   2.20238   2.20242   2.21428
 Alpha virt. eigenvalues --    2.21437   2.29311   2.48491   2.48527   2.67855
 Alpha virt. eigenvalues --    2.81362   2.83546   2.83548   2.95060   2.95087
 Alpha virt. eigenvalues --    3.25565   3.37908   3.55301   3.55315   4.20701
 Alpha virt. eigenvalues --    4.40895   4.45371   4.56895
          Condensed to atoms (all electrons):
               1          2          3          4          5          6
     1  C    5.342777  -0.014000   0.410138   0.410103   0.410122  -0.118907
     2  Cl  -0.014000  17.303599  -0.047202  -0.047981  -0.047968   0.047528
     3  H    0.410138  -0.047202   0.505921  -0.022903  -0.022926  -0.038886
     4  H    0.410103  -0.047981  -0.022903   0.506432  -0.022890  -0.037731
     5  H    0.410122  -0.047968  -0.022926  -0.022890   0.506410  -0.037745
     6  C   -0.118907   0.047528  -0.038886  -0.037731  -0.037745   6.045456
     7  N   -0.001691  -0.001580   0.000854   0.000789   0.000788   0.656843
               7
     1  C   -0.001691
     2  Cl  -0.001580
     3  H    0.000854
     4  H    0.000789
     5  H    0.000788
     6  C    0.656843
     7  N    6.839896
 Mulliken charges:
               1
     1  C   -0.438541
     2  Cl  -0.192396
     3  H    0.215004
     4  H    0.214181
     5  H    0.214209
     6  C   -0.516557
     7  N   -0.495899
 Sum of Mulliken charges =  -1.00000
 Mulliken charges with hydrogens summed into heavy atoms:
               1
     1  C    0.204852
     2  Cl  -0.192396
     6  C   -0.516557
     7  N   -0.495899
 APT charges:
               1
     1  C    0.570661
     2  Cl  -0.613301
     3  H    0.017860
     4  H    0.017215
     5  H    0.017262
     6  C   -0.393437
     7  N   -0.616261
 Sum of APT charges =  -1.00000
 APT charges with hydrogens summed into heavy atoms:
               1
     1  C    0.622999
     2  Cl  -0.613301
     6  C   -0.393437
     7  N   -0.616261
 Electronic spatial extent (au):  <R**2>=            924.4138
 Charge=             -1.0000 electrons
 Dipole moment (field-independent basis, Debye):
    X=            -10.5560    Y=             -0.0001    Z=              0.0066  Tot=             10.5560
 Quadrupole moment (field-independent basis, Debye-Ang):
   XX=            -92.6015   YY=            -35.4611   ZZ=            -35.4620
   XY=             -0.0005   XZ=              0.0042   YZ=              0.0001
 Traceless Quadrupole moment (field-independent basis, Debye-Ang):
   XX=            -38.0933   YY=             19.0471   ZZ=             19.0462
   XY=             -0.0005   XZ=              0.0042   YZ=              0.0001
 Octapole moment (field-independent basis, Debye-Ang**2):
  XXX=           -201.2685  YYY=             -0.0060  ZZZ=             -0.8593  XYY=            -12.5840
  XXY=              0.0013  XXZ=             -0.0088  XZZ=            -12.5797  YZZ=              0.0060
  YYZ=              0.8857  XYZ=             -0.0002
 Hexadecapole moment (field-independent basis, Debye-Ang**3):
 XXXX=          -2046.0327 YYYY=            -56.2109 ZZZZ=            -56.2150 XXXY=              0.0016
 XXXZ=              0.0478 YYYX=             -0.0014 YYYZ=              0.0002 ZZZX=              0.1120
 ZZZY=              0.0005 XXYY=           -239.2844 XXZZ=           -239.2827 YYZZ=            -18.7339
 XXYZ=             -0.0000 YYXZ=              0.0559 ZZXY=             -0.0003
 N-N= 1.092041025191D+02 E-N=-1.627974241219D+03  KE= 5.902996882993D+02
  Exact polarizability:  87.463  -0.002  40.141   0.025  -0.000  40.137
 Approx polarizability: 107.876  -0.004  49.873   0.062  -0.000  49.869
 No NMR shielding tensors so no spin-rotation constants.
 Leave Link  601 at Sun Oct 13 09:52:13 2024, MaxMem=  2684354560 cpu:               2.8 elap:               0.2
 (Enter /usr/local/g16_AVX//g16/l701.exe)
 ... and contract with generalized density number  0.
 Compute integral second derivatives.
 Leave Link  701 at Sun Oct 13 09:52:13 2024, MaxMem=  2684354560 cpu:               4.5 elap:               0.2
 (Enter /usr/local/g16_AVX//g16/l702.exe)
 L702 exits ... SP integral derivatives will be done elsewhere.
 Leave Link  702 at Sun Oct 13 09:52:13 2024, MaxMem=  2684354560 cpu:               0.6 elap:               0.1
 (Enter /usr/local/g16_AVX//g16/l703.exe)
 Integral derivatives from FoFJK, PRISM(SPDF).
 Compute integral second derivatives, UseDBF=F ICtDFT=           0.
 Calling FoFJK, ICntrl=    100127 FMM=F ISym2X=0 I1Cent= 0 IOpClX= 0 NMat=1 NMatS=1 NMatT=0.
 FoFJK:  IHMeth= 1 ICntrl=  100127 DoSepK=F KAlg= 0 I1Cent=           0 FoldK=F
 IRaf=         0 NMat=       1 IRICut=       1 DoRegI=T DoRafI=F ISym2E= 0 IDoP0=0 IntGTp=1.
 FoFCou: FMM=F IPFlag=           0 FMFlag=      100000 FMFlg1=         800
         NFxFlg=           0 DoJE=F BraDBF=F KetDBF=F FulRan=T
         wScrn=  0.000000 ICntrl=    100127 IOpCl=  0 I1Cent=           0 NGrid=           0
         NMat0=    1 NMatS0=      1 NMatT0=    0 NMatD0=    1 NMtDS0=    0 NMtDT0=    0
 Symmetry not used in FoFCou.
 Leave Link  703 at Sun Oct 13 09:52:16 2024, MaxMem=  2684354560 cpu:              65.2 elap:               2.6
 (Enter /usr/local/g16_AVX//g16/l716.exe)
 Dipole        =-4.15306647D+00-4.21969550D-05 2.60762479D-03
 Polarizability= 8.74625847D+01-2.31714347D-03 4.01409970D+01
                 2.46780512D-02-3.14121985D-04 4.01374983D+01
 Full mass-weighted force constant matrix:
 Low frequencies ---  -64.9298  -64.8510  -33.8776  -33.8214   -0.0022    0.0031
 Low frequencies ---    0.0043   86.2905   86.3863
 ******    2 imaginary frequencies (negative Signs) ****** 
 Diagonal vibrational polarizability:
       95.3583765      45.8015741      45.7495416
 Harmonic frequencies (cm**-1), IR intensities (KM/Mole), Raman scattering
 activities (A**4/AMU), depolarization ratios for plane and unpolarized
 incident light, reduced masses (AMU), force constants (mDyne/A),
 and normal coordinates:
                      1                      2                      3
                      A                      A                      A
 Frequencies --    -64.1404               -64.0812                84.6822
 Red. masses --      8.0740                 8.1005                 3.8874
 Frc consts  --      0.0196                 0.0196                 0.0164
 IR Inten    --      0.1549                 0.1495                11.9215
  Atom  AN      X      Y      Z        X      Y      Z        X      Y      Z
     1   6    -0.00   0.25   0.10    -0.00  -0.10   0.25    -0.00   0.31   0.23
     2  17    -0.00  -0.11  -0.04    -0.00   0.04  -0.11    -0.00  -0.08  -0.06
     3   1     0.08   0.32   0.13     0.20  -0.13   0.32     0.16   0.37   0.28
     4   1    -0.21   0.32   0.12    -0.03  -0.13   0.32    -0.27   0.38   0.29
     5   1     0.13   0.32   0.13    -0.17  -0.13   0.32     0.11   0.37   0.26
     6   6    -0.00   0.48   0.19    -0.00  -0.19   0.49     0.00  -0.23  -0.17
     7   7     0.00  -0.43  -0.17     0.00   0.17  -0.43     0.00   0.05   0.03
                      4                      5                      6
                      A                      A                      A
 Frequencies --     84.8023               130.2910               623.3734
 Red. masses --      3.8834                11.8289                 9.0020
 Frc consts  --      0.0165                 0.1183                 2.0610
 IR Inten    --     11.9261                50.3920               217.3899
  Atom  AN      X      Y      Z        X      Y      Z        X      Y      Z
     1   6    -0.00  -0.23   0.31    -0.31  -0.00  -0.01     0.70  -0.00   0.00
     2  17    -0.00   0.06  -0.08    -0.28   0.00   0.00    -0.28   0.00  -0.00
     3   1     0.22  -0.27   0.38    -0.28  -0.00  -0.00     0.37   0.00  -0.09
     4   1     0.03  -0.27   0.36    -0.28  -0.00  -0.01     0.37   0.08   0.05
     5   1    -0.25  -0.29   0.38    -0.28   0.00  -0.01     0.37  -0.08   0.05
     6   6     0.00   0.17  -0.23     0.54   0.00   0.00     0.01   0.00  -0.00
     7   7     0.00  -0.04   0.05     0.55  -0.00   0.00     0.01   0.00   0.00
                      7                      8                      9
                      A                      A                      A
 Frequencies --   1008.6185              1008.9706              1322.8126
 Red. masses --      1.1529                 1.1526                 1.0990
 Frc consts  --      0.6910                 0.6913                 1.1330
 IR Inten    --      0.2763                 0.2721                17.0104
  Atom  AN      X      Y      Z        X      Y      Z        X      Y      Z
     1   6     0.00  -0.01  -0.11    -0.00  -0.11   0.01    -0.09  -0.00  -0.00
     2  17     0.00   0.00   0.02     0.00   0.02  -0.00    -0.02   0.00  -0.00
     3   1     0.76   0.03   0.13    -0.10   0.23  -0.02     0.55  -0.00   0.18
     4   1    -0.46  -0.02   0.20    -0.61   0.16  -0.07     0.55  -0.16  -0.09
     5   1    -0.30   0.06   0.21     0.71   0.15   0.02     0.55   0.16  -0.09
     6   6    -0.00   0.00   0.00     0.00   0.00  -0.00    -0.00  -0.00   0.00
     7   7    -0.00  -0.00  -0.00     0.00  -0.00   0.00    -0.00  -0.00  -0.00
                     10                     11                     12
                      A                      A                      A
 Frequencies --   1461.8691              1462.4528              2148.0706
 Red. masses --      1.0608                 1.0609                12.8359
 Frc consts  --      1.3357                 1.3369                34.8959
 IR Inten    --      7.7245                 7.7378                17.4603
  Atom  AN      X      Y      Z        X      Y      Z        X      Y      Z
     1   6     0.00   0.01  -0.07     0.00  -0.07  -0.01    -0.00   0.00   0.00
     2  17    -0.00   0.00  -0.00    -0.00  -0.00  -0.00     0.00  -0.00   0.00
     3   1    -0.28  -0.12  -0.13    -0.04   0.74  -0.02    -0.01   0.00  -0.00
     4   1     0.10  -0.39   0.59     0.26   0.03  -0.29    -0.01   0.00   0.00
     5   1     0.18   0.36   0.46    -0.22   0.15   0.46    -0.01  -0.00   0.00
     6   6    -0.00   0.00  -0.00    -0.00  -0.00  -0.00     0.76  -0.00   0.00
     7   7     0.00  -0.00   0.00     0.00   0.00   0.00    -0.65   0.00  -0.00
                     13                     14                     15
                      A                      A                      A
 Frequencies --   3127.3018              3250.5431              3252.3842
 Red. masses --      1.0251                 1.1113                 1.1114
 Frc consts  --      5.9066                 6.9185                 6.9268
 IR Inten    --     12.7944                 0.3039                 0.3136
  Atom  AN      X      Y      Z        X      Y      Z        X      Y      Z
     1   6     0.04  -0.00  -0.00    -0.00   0.03  -0.09    -0.00  -0.09  -0.03
     2  17    -0.00   0.00   0.00    -0.00  -0.00   0.00     0.00   0.00   0.00
     3   1    -0.16  -0.00   0.56    -0.23   0.00   0.75    -0.06  -0.02   0.20
     4   1    -0.16  -0.47  -0.28     0.06   0.19   0.09     0.23   0.65   0.38
     5   1    -0.16   0.48  -0.28     0.17  -0.49   0.26    -0.17   0.47  -0.28
     6   6     0.00   0.00   0.00     0.00  -0.00   0.00    -0.00   0.00   0.00
     7   7     0.00  -0.00   0.00    -0.00   0.00  -0.00    -0.00  -0.00  -0.00

 -------------------
 - Thermochemistry -
 -------------------
 Temperature   298.150 Kelvin.  Pressure   1.00000 Atm.
 Atom     1 has atomic number  6 and mass  12.00000
 Atom     2 has atomic number 17 and mass  34.96885
 Atom     3 has atomic number  1 and mass   1.00783
 Atom     4 has atomic number  1 and mass   1.00783
 Atom     5 has atomic number  1 and mass   1.00783
 Atom     6 has atomic number  6 and mass  12.00000
 Atom     7 has atomic number  7 and mass  14.00307
 Molecular mass:    75.99540 amu.
 Principal axes and moments of inertia in atomic units:
                           1         2         3
     Eigenvalues --    11.514441605.840821605.84401
           X            1.00000   0.00000   0.00014
           Y            0.00000   0.99998  -0.00687
           Z           -0.00014   0.00687   0.99998
 This molecule is an asymmetric top.
 Rotational symmetry number  1.
 Rotational temperatures (Kelvin)      7.52220     0.05394     0.05394
 Rotational constants (GHZ):         156.73723     1.12386     1.12386
    2 imaginary frequencies ignored.
 Zero-point vibrational energy     113442.9 (Joules/Mol)
                                   27.11350 (Kcal/Mol)
 Warning -- explicit consideration of   3 degrees of freedom as
           vibrations may cause significant error
 Vibrational temperatures:    121.84   122.01   187.46   896.90  1451.18
          (Kelvin)           1451.68  1903.23  2103.30  2104.14  3090.59
                             4499.49  4676.81  4679.46
 
 Zero-point correction=                           0.043208 (Hartree/Particle)
 Thermal correction to Energy=                    0.048488
 Thermal correction to Enthalpy=                  0.049432
 Thermal correction to Gibbs Free Energy=         0.013825
 Sum of electronic and zero-point Energies=           -592.951683
 Sum of electronic and thermal Energies=              -592.946403
 Sum of electronic and thermal Enthalpies=            -592.945459
 Sum of electronic and thermal Free Energies=         -592.981066
 
                     E (Thermal)             CV                S
                      KCal/Mol        Cal/Mol-Kelvin    Cal/Mol-Kelvin
 Total                   30.427             13.837             74.942
 Electronic               0.000              0.000              0.000
 Translational            0.889              2.981             38.900
 Rotational               0.889              2.981             24.899
 Vibrational             28.649              7.876             11.143
 Vibration     1          0.601              1.960              3.779
 Vibration     2          0.601              1.960              3.777
 Vibration     3          0.612              1.923              2.942
                       Q            Log10(Q)             Ln(Q)
 Total Bot       0.437348D-06         -6.359173        -14.642537
 Total V=0       0.327465D+14         13.515165         31.119816
 Vib (Bot)       0.272284D-18        -18.564978        -42.747442
 Vib (Bot)    1  0.243014D+01          0.385632          0.887950
 Vib (Bot)    2  0.242665D+01          0.385008          0.886513
 Vib (Bot)    3  0.156458D+01          0.194397          0.447615
 Vib (V=0)       0.203873D+02          1.309360          3.014912
 Vib (V=0)    1  0.298105D+01          0.474369          1.092274
 Vib (V=0)    2  0.297763D+01          0.473871          1.091127
 Vib (V=0)    3  0.214253D+01          0.330927          0.761986
 Electronic      0.100000D+01          0.000000          0.000000
 Translational   0.260396D+08          7.415635         17.075130
 Rotational      0.616836D+05          4.790170         11.029774
 
                                                       RxCoord=4.09750 DE=45.46
                                                             IR Spectrum
 
     33   3                                      2                         1     1           1                                       
     22   1                                      1                         4     3           0              6                  1     
     55   2                                      4                         6     2           0              2                  3 8   
     21   7                                      8                         2     3           9              3                  0 5   
 
     XX   X                                      X                         X     X           X              X                  X X   
                                                 X                               X                          X                  X X   
                                                                                                            X                  X     
                                                                                                            X                  X     
                                                                                                            X                  X     
                                                                                                            X                        
                                                                                                            X                        
                                                                                                            X                        
                                                                                                            X                        
                                                                                                            X                        
                                                                                                            X                        
                                                                                                            X                        
                                                                                                            X                        
                                                                                                            X                        
                                                                                                            X                        
                                                                                                            X                        
                                                                                                            X                        
                                                                                                            X                        
                                                                                                            X                        
                                                                                                            X                        
 
 -------------------------------------------------------------------
 Center     Atomic                   Forces (Hartrees/Bohr)
 Number     Number              X              Y              Z
 -------------------------------------------------------------------
      1        6           0.005161620   -0.000078758   -0.000180505
      2       17          -0.011376574   -0.000012040   -0.000034649
      3        1           0.001133070    0.000006077    0.001044450
      4        1           0.001307960   -0.000751504   -0.000402474
      5        1           0.001248849    0.000836341   -0.000437075
      6        6          -0.000162740   -0.000000098    0.000007585
      7        7           0.002687814   -0.000000018    0.000002669
 -------------------------------------------------------------------
 Cartesian Forces:  Max     0.011376574 RMS     0.002850415
 Z-matrix is all fixed cartesians, so copy forces.
 Force constants in Cartesian coordinates: 
                1             2             3             4             5 
      1  0.261036D+00
      2  0.407536D-04  0.599322D+00
      3 -0.335806D-03  0.186434D-03  0.598493D+00
      4 -0.962815D-01 -0.804507D-05 -0.949405D-04  0.181196D+00
      5 -0.178087D-05 -0.334804D-01  0.000000D+00  0.107732D-04  0.184325D-01
      6 -0.787733D-04  0.000000D+00 -0.334902D-01  0.201397D-03  0.197405D-05
      7 -0.567432D-01 -0.192797D-03  0.847475D-01 -0.246993D-01 -0.449203D-04
      8 -0.189065D-03 -0.497365D-01  0.617405D-03  0.118001D-04  0.607206D-03
      9  0.836319D-01  0.612499D-03 -0.324851D+00 -0.593274D-02 -0.174918D-04
     10 -0.563284D-01 -0.728698D-01 -0.423172D-01 -0.247562D-01 -0.172825D-01
     11 -0.719393D-01 -0.256250D+00 -0.119925D+00  0.507204D-02  0.641227D-02
     12 -0.417600D-01 -0.119925D+00 -0.119255D+00  0.291292D-02  0.333606D-02
     13 -0.563873D-01  0.730304D-01 -0.419692D-01 -0.247316D-01  0.173177D-01
     14  0.720906D-01 -0.257086D+00  0.119121D+00 -0.508635D-02  0.644518D-02
     15 -0.414110D-01  0.119126D+00 -0.118104D+00  0.288869D-02 -0.331981D-02
     16 -0.676388D-03  0.000000D+00 -0.204548D-04 -0.493795D-02  0.000000D+00
     17 -0.104980D-05 -0.353658D-02  0.000000D+00  0.000000D+00  0.189167D-02
     18 -0.747829D-04  0.000000D+00 -0.357148D-02  0.499867D-04  0.000000D+00
     19  0.538119D-02  0.000000D+00 -0.989352D-05 -0.578951D-02  0.000000D+00
     20  0.000000D+00  0.768052D-03  0.000000D+00  0.000000D+00 -0.308377D-03
     21  0.285455D-04  0.000000D+00  0.777913D-03 -0.253140D-04  0.000000D+00
                6             7             8             9            10 
      6  0.184164D-01
      7  0.198938D-01  0.744236D-01
      8 -0.154934D-04  0.194892D-03  0.461533D-01
      9  0.840128D-02 -0.874887D-01 -0.655554D-03  0.337137D+00
     10 -0.100566D-01  0.439621D-02  0.743212D-02  0.433237D-02  0.740334D-01
     11  0.336509D-02  0.000000D+00  0.210980D-02  0.239368D-02  0.752619D-01
     12  0.255828D-02 -0.854561D-02 -0.251014D-01 -0.111538D-01  0.437057D-01
     13 -0.997200D-02  0.439715D-02 -0.744640D-02  0.429850D-02  0.438374D-02
     14 -0.335086D-02  0.415195D-04  0.199907D-02 -0.232709D-02  0.740527D-02
     15  0.252523D-02 -0.854774D-02  0.251612D-01 -0.110551D-01  0.430158D-02
     16  0.876922D-05 -0.201578D-02 -0.168568D-05  0.492868D-03 -0.196264D-02
     17  0.000000D+00  0.000000D+00 -0.141713D-02 -0.756915D-05 -0.325905D-04
     18  0.189878D-02  0.408112D-04 -0.782537D-05  0.194007D-02 -0.161487D-04
     19  0.341235D-05  0.241226D-03 -0.165579D-05  0.665781D-03  0.233851D-03
     20  0.000000D+00  0.000000D+00  0.284264D-03  0.152312D-05  0.856175D-04
     21 -0.309748D-03 -0.100096D-03  0.160820D-05 -0.418656D-03  0.502528D-04
               11            12            13            14            15 
     11  0.264508D+00
     12  0.126833D+00  0.119654D+00
     13 -0.741825D-02  0.426552D-02  0.740678D-01
     14 -0.176351D-01  0.137053D-01 -0.754305D-01  0.265411D+00
     15 -0.138185D-01  0.864760D-02  0.433431D-01 -0.126003D+00  0.118448D+00
     16 -0.415052D-03 -0.245366D-03 -0.196411D-02  0.415579D-03 -0.243785D-03
     17  0.109869D-02  0.145829D-02  0.330124D-04  0.111191D-02 -0.145119D-02
     18  0.145876D-02 -0.551250D-03 -0.157434D-04 -0.145139D-02 -0.564585D-03
     19 -0.562225D-03 -0.333164D-03  0.234380D-03  0.563824D-03 -0.330830D-03
     20 -0.243275D-03 -0.305821D-03 -0.859993D-04 -0.246194D-03  0.304395D-03
     21 -0.307165D-03  0.100085D-03  0.498257D-04  0.305651D-03  0.102885D-03
               16            17            18            19            20 
     16  0.113663D+01
     17 -0.651136D-04  0.244119D-03
     18  0.285047D-02  0.000000D+00  0.245424D-03
     19 -0.112507D+01  0.661678D-04 -0.283459D-02  0.112477D+01
     20  0.662919D-04  0.607325D-03  0.000000D+00 -0.663821D-04 -0.861794D-03
     21 -0.284250D-02  0.000000D+00  0.603047D-03  0.283929D-02  0.000000D+00
               21 
     21 -0.855526D-03
 Leave Link  716 at Sun Oct 13 09:52:16 2024, MaxMem=  2684354560 cpu:               0.8 elap:               0.1
 (Enter /usr/local/g16_AVX//g16/l103.exe)

 GradGradGradGradGradGradGradGradGradGradGradGradGradGradGradGradGradGrad
 Berny optimization.
 Search for a local minimum.
 Step number   1 out of a maximum of    2
 All quantities printed in internal units (Hartrees-Bohrs-Radians)
 Second derivative matrix not updated -- analytic derivatives used.
 ITU=  0
     Eigenvalues ---   -0.00167  -0.00167   0.00138   0.00138   0.00738
     Eigenvalues ---    0.06242   0.06244   0.10947   0.10956   0.11598
     Eigenvalues ---    0.21897   0.49752   0.88509   0.88633   2.25479
 Eigenvalue     1 is  -1.67D-03 should be greater than     0.000000 Eigenvector:
                          Z6        Z7        Y6        Y7        Z2
   1                    0.53788  -0.52517   0.30735  -0.30060  -0.18850
                          Z5        Z4        Z3        X4        X3
   1                    0.18155   0.17911   0.17829  -0.16293   0.16131
 Eigenvalue     2 is  -1.67D-03 should be greater than     0.000000 Eigenvector:
                          Y6        Y7        Z6        Z7        Y2
   1                    0.53702  -0.52496  -0.30828   0.30084  -0.18880
                          X5        Y3        Y4        Y5        Y1
   1                    0.18779   0.18119   0.18054   0.17898   0.12706
 Angle between quadratic step and forces=  69.43 degrees.
 Linear search not attempted -- first point.
 B after Tr=     0.002895   -0.000080    0.001332
         Rot=    1.000000    0.000000   -0.000050   -0.000007 Ang=   0.01 deg.
 Variable       Old X    -DE/DX   Delta X   Delta X   Delta X     New X
                                 (Linear)    (Quad)   (Total)
    X1       -0.75111   0.00516   0.00000  -0.05042  -0.04753  -0.79864
    Y1       -0.00004  -0.00008   0.00000   0.00011   0.00002  -0.00002
    Z1        0.00330  -0.00018   0.00000  -0.00341  -0.00199   0.00130
    X2       -4.20751  -0.01138   0.00000  -0.09950  -0.09661  -4.30412
    Y2        0.00000  -0.00001   0.00000  -0.00014  -0.00028  -0.00028
    Z2       -0.00014  -0.00003   0.00000   0.00210   0.00386   0.00373
    X3       -0.11811   0.00113   0.00000  -0.04832  -0.04562  -0.16374
    Y3        0.00433   0.00001   0.00000   0.00020   0.00012   0.00445
    Z3       -1.94738   0.00104   0.00000  -0.00179  -0.00044  -1.94781
    X4       -0.12360   0.00131   0.00000  -0.04126  -0.03830  -0.16190
    Y4        1.68797  -0.00075   0.00000  -0.00256  -0.00264   1.68533
    Z4        0.98318  -0.00040   0.00000  -0.00545  -0.00410   0.97908
    X5       -0.12291   0.00125   0.00000  -0.04173  -0.03871  -0.16162
    Y5       -1.69258   0.00084   0.00000   0.00299   0.00290  -1.68968
    Z5        0.97551  -0.00044   0.00000  -0.00544  -0.00409   0.97142
    X6        4.81758  -0.00016   0.00000   0.12939   0.13228   4.94986
    Y6        0.00009  -0.00000   0.00000  -0.00015  -0.00015  -0.00006
    Z6       -0.00481   0.00001   0.00000   0.00868   0.00951   0.00470
    X7        7.04856   0.00269   0.00000   0.13159   0.13449   7.18305
    Y7       -0.00004  -0.00000   0.00000   0.00002   0.00004   0.00000
    Z7        0.00083   0.00000   0.00000  -0.00336  -0.00275  -0.00192
         Item               Value     Threshold  Converged?
 Maximum Force            0.011377     0.000450     NO 
 RMS     Force            0.002850     0.000300     NO 
 Maximum Displacement     0.134487     0.001800     NO 
 RMS     Displacement     0.049948     0.001200     NO 
 Predicted change in Energy=-5.256617D-04
 GradGradGradGradGradGradGradGradGradGradGradGradGradGradGradGradGradGrad

 Leave Link  103 at Sun Oct 13 09:52:16 2024, MaxMem=  2684354560 cpu:               0.6 elap:               0.1
 (Enter /usr/local/g16_AVX//g16/l9999.exe)

 ----------------------------------------------------------------------

 Electric dipole moment (input orientation):
 (Debye = 10**-18 statcoulomb cm , SI units = C m)
                  (au)            (Debye)         (10**-30 SI)
   Tot        0.415307D+01      0.105560D+02      0.352112D+02
   x         -0.415307D+01     -0.105560D+02     -0.352112D+02
   y         -0.421970D-04     -0.107254D-03     -0.357761D-03
   z          0.260762D-02      0.662792D-02      0.221084D-01

 Dipole polarizability, Alpha (input orientation).
 (esu units = cm**3 , SI units = C**2 m**2 J**-1)
 Alpha(0;0):
               (au)            (10**-24 esu)      (10**-40 SI)
   iso        0.559137D+02      0.828555D+01      0.921892D+01
   aniso      0.473234D+02      0.701260D+01      0.780257D+01
   xx         0.874626D+02      0.129606D+02      0.144206D+02
   yx        -0.231714D-02     -0.343365D-03     -0.382045D-03
   yy         0.401410D+02      0.594828D+01      0.661836D+01
   zx         0.246781D-01      0.365691D-02      0.406886D-02
   zy        -0.314122D-03     -0.465481D-04     -0.517917D-04
   zz         0.401375D+02      0.594776D+01      0.661778D+01

 ----------------------------------------------------------------------

 Dipole orientation:
     6          0.00282408         -0.00003013          0.75111136
    17         -0.00277787          0.00004650          4.20750643
     1         -1.94744982          0.00430700          0.11688888
     1          0.98308988          1.68798265          0.12420146
     1          0.97545235         -1.69257118          0.12353746
     6         -0.00178827          0.00004552         -4.81758293
     7          0.00525146         -0.00010936         -7.04855937

 Electric dipole moment (dipole orientation):
 (Debye = 10**-18 statcoulomb cm , SI units = C m)
                  (au)            (Debye)         (10**-30 SI)
   Tot        0.415307D+01      0.105560D+02      0.352112D+02
   x          0.000000D+00      0.000000D+00      0.000000D+00
   y          0.000000D+00      0.000000D+00      0.000000D+00
   z          0.415307D+01      0.105560D+02      0.352112D+02

 Dipole polarizability, Alpha (dipole orientation).
 (esu units = cm**3 , SI units = C**2 m**2 J**-1)
 Alpha(0;0):
               (au)            (10**-24 esu)      (10**-40 SI)
   iso        0.559137D+02      0.828555D+01      0.921892D+01
   aniso      0.473234D+02      0.701260D+01      0.780257D+01
   xx         0.401375D+02      0.594777D+01      0.661779D+01
   yx        -0.316164D-03     -0.468507D-04     -0.521285D-04
   yy         0.401410D+02      0.594828D+01      0.661836D+01
   zx        -0.543925D-01     -0.806014D-02     -0.896811D-02
   zy         0.279720D-02      0.414502D-03      0.461196D-03
   zz         0.874625D+02      0.129606D+02      0.144206D+02

 ----------------------------------------------------------------------
 1\1\GINC-NODO6\Freq\RB3LYP\6-31++G(d,p)\C2H3Cl1N1(1-)\ALANQF\13-Oct-20
 24\0\\#p b3lyp 6-31++g(d,p) scf=verytight NoSymm freq=noraman int=ultr
 afine\\RxCoord=4.09750 DE=45.46\\-1,1\C,-0.39747,-0.00002,0.001744\Cl,
 -2.226517,0.000002,-0.000072\H,-0.062502,0.002289,-1.030507\H,-0.06540
 7,0.893236,0.520279\H,-0.06504,-0.895676,0.516219\C,2.549354,0.00005,-
 0.002547\N,3.729938,-0.00002,0.000437\\Version=ES64L-G16RevB.01\HF=-59
 2.9948912\RMSD=1.834e-09\RMSF=2.850e-03\ZeroPoint=0.0432081\Thermal=0.
 0484882\Dipole=-4.10572,-0.0000459,0.0027534\DipoleDeriv=1.5845343,-0.
 0000648,0.0003175,0.0000103,0.0639971,-0.0000445,0.0013041,-0.0000446,
 0.0634527,-1.2823862,0.0000018,-0.0001146,0.0000501,-0.2787775,-0.0000
 056,-0.0005186,-0.0000056,-0.2787379,-0.0231374,-0.0000053,0.0029792,-
 0.000068,0.0837193,0.0002216,0.0247345,0.0002175,-0.0070006,-0.0245191
 ,-0.0026523,-0.001756,-0.0218463,0.0154706,-0.0396038,-0.013092,-0.039
 5737,0.060694,-0.0243531,0.0027229,-0.0017785,0.0218914,0.0150906,0.03
 94368,-0.0129985,0.039411,0.0610473,-0.2240875,-0.0000247,0.0009656,-0
 .000085,-0.478158,-0.0000053,0.0023882,-0.0000054,-0.4780666,-1.006051
 1,0.0000224,-0.0006134,0.0000475,-0.4213422,0.0000008,-0.0018178,0.000
 0008,-0.421389\Polar=87.4625847,-0.0023171,40.140997,0.0246781,-0.0003
 141,40.1374983\Quadrupole=-28.3214466,14.1610519,14.1603947,-0.0003448
 ,0.0031243,0.0001082\PG=C01 [X(C2H3Cl1N1)]\NImag=2\\0.26103567,0.00004
 075,0.59932154,-0.00033581,0.00018643,0.59849313,-0.09628153,-0.000008
 05,-0.00009494,0.18119602,-0.00000178,-0.03348041,-0.00000060,0.000010
 77,0.01843246,-0.00007877,-0.00000057,-0.03349022,0.00020140,0.0000019
 7,0.01841639,-0.05674322,-0.00019280,0.08474748,-0.02469925,-0.0000449
 2,0.01989381,0.07442365,-0.00018907,-0.04973652,0.00061741,0.00001180,
 0.00060721,-0.00001549,0.00019489,0.04615330,0.08363188,0.00061250,-0.
 32485113,-0.00593274,-0.00001749,0.00840128,-0.08748865,-0.00065555,0.
 33713737,-0.05632838,-0.07286982,-0.04231718,-0.02475620,-0.01728252,-
 0.01005661,0.00439621,0.00743212,0.00433237,0.07403341,-0.07193930,-0.
 25625038,-0.11992466,0.00507204,0.00641227,0.00336509,0.00000087,0.002
 10980,0.00239368,0.07526192,0.26450796,-0.04176003,-0.11992527,-0.1192
 5454,0.00291292,0.00333606,0.00255828,-0.00854561,-0.02510138,-0.01115
 380,0.04370573,0.12683281,0.11965363,-0.05638735,0.07303042,-0.0419692
 1,-0.02473159,0.01731769,-0.00997200,0.00439715,-0.00744640,0.00429850
 ,0.00438374,-0.00741825,0.00426552,0.07406777,0.07209061,-0.25708570,0
 .11912099,-0.00508635,0.00644518,-0.00335086,0.00004152,0.00199907,-0.
 00232709,0.00740527,-0.01763507,0.01370530,-0.07543046,0.26541079,-0.0
 4141103,0.11912648,-0.11810366,0.00288869,-0.00331981,0.00252523,-0.00
 854774,0.02516124,-0.01105513,0.00430158,-0.01381851,0.00864760,0.0433
 4311,-0.12600260,0.11844767,-0.00067639,-0.00000047,-0.00002045,-0.004
 93795,0.00000045,0.00000877,-0.00201578,-0.00000169,0.00049287,-0.0019
 6264,-0.00041505,-0.00024537,-0.00196411,0.00041558,-0.00024379,1.1366
 3156,-0.00000105,-0.00353658,0.00000055,-0.00000075,0.00189167,-0.0000
 0017,0.00000033,-0.00141713,-0.00000757,-0.00003259,0.00109869,0.00145
 829,0.00003301,0.00111191,-0.00145119,-0.00006511,0.00024412,-0.000074
 78,0.00000055,-0.00357148,0.00004999,-0.00000018,0.00189878,0.00004081
 ,-0.00000783,0.00194007,-0.00001615,0.00145876,-0.00055125,-0.00001574
 ,-0.00145139,-0.00056459,0.00285047,-0.00000006,0.00024542,0.00538119,
 -0.00000004,-0.00000989,-0.00578951,0.00000031,0.00000341,0.00024123,-
 0.00000166,0.00066578,0.00023385,-0.00056223,-0.00033316,0.00023438,0.
 00056382,-0.00033083,-1.12507470,0.00006617,-0.00283459,1.12477356,-0.
 00000017,0.00076805,-0.00000012,0.00000053,-0.00030838,0.00000004,0.00
 000011,0.00028426,0.00000152,0.00008562,-0.00024327,-0.00030582,-0.000
 08600,-0.00024619,0.00030440,0.00006629,0.00060732,0.00000015,-0.00006
 638,-0.00086179,0.00002855,-0.00000011,0.00077791,-0.00002531,0.000000
 04,-0.00030975,-0.00010010,0.00000161,-0.00041866,0.00005025,-0.000307
 16,0.00010009,0.00004983,0.00030565,0.00010288,-0.00284250,0.00000015,
 0.00060305,0.00283929,-0.00000017,-0.00085553\\-0.00516162,0.00007876,
 0.00018051,0.01137657,0.00001204,0.00003465,-0.00113307,-0.00000608,-0
 .00104445,-0.00130796,0.00075150,0.00040247,-0.00124885,-0.00083634,0.
 00043708,0.00016274,0.00000010,-0.00000758,-0.00268781,0.00000002,-0.0
 0000267\\\@


 OLD HORSE! OLD HORSE! WHAT BROUGHT YOU HERE?
 FROM SACARAP' TO PORTLAND PIER
 I'VE CARTED STONE THIS MANY A YEAR;
 TILL, KILLED BY BLOWS AND SORE ABUSE,
 THEY SALTED ME DOWN FOR SAILORS' USE.
 THE SAILORS THEY DO ME DESPISE;
 THEY TURN ME OVER AND DAMN MY EYES;
 CUT OFF MY MEAT, AND SCRAPE MY BONES,
 AND PITCH ME OVER TO DAVY JONES.

    SAILORS' COMPLAINT ABOUT THE BEEF
    SERVED ON SHIPBOARD, CIRCA 1835.
 Job cpu time:       0 days  0 hours  3 minutes 38.9 seconds.
 Elapsed time:       0 days  0 hours  0 minutes  9.5 seconds.
 File lengths (MBytes):  RWF=     88 Int=      0 D2E=      0 Chk=      2 Scr=      2
 Normal termination of Gaussian 16 at Sun Oct 13 09:52:16 2024.
