RxCoord=4.09750 DE=45.46                                                
Freq      RB3LYP                                                      6-31++G(d,p)        
Number of atoms                            I                7
Info1-9                                    I   N=           9
          16          16           0           0           0         100
           6          18        -502
Full Title                                 C   N=           2
RxCoord=4.09750 DE=45.46
Route                                      C   N=           6
#p b3lyp 6-31++g(d,p) scf=verytight NoSymm freq=noraman int=
ultrafine   
Charge                                     I               -1
Multiplicity                               I                1
Number of electrons                        I               40
Number of alpha electrons                  I               20
Number of beta electrons                   I               20
Number of basis functions                  I               98
Number of independent functions            I               98
Number of point charges in /Mol/           I                0
Number of translation vectors              I                0
Atomic numbers                             I   N=           7
           6          17           1           1           1           6
           7
Nuclear charges                            R   N=           7
  6.00000000E+00  1.70000000E+01  1.00000000E+00  1.00000000E+00  1.00000000E+00
  6.00000000E+00  7.00000000E+00
Current cartesian coordinates              R   N=          21
 -7.51109443E-01 -3.77945225E-05  3.29568236E-03 -4.20750734E+00  3.77945225E-06
 -1.36060281E-04 -1.18111662E-01  4.32558310E-03 -1.94737600E+00 -1.23601317E-01
  1.68797140E+00  9.83184818E-01 -1.22907787E-01 -1.69258234E+00  9.75512530E-01
  4.81758085E+00  9.44863062E-05 -4.81313244E-03  7.04856128E+00 -3.77945225E-05
  8.25810316E-04
Number of symbols in /Mol/                 I                0
Force Field                                I                0
Atom Types                                 C   N=           7
                                                            
                        
Int Atom Types                             I   N=           7
           0           0           0           0           0           0
           0
MM charges                                 R   N=           7
  0.00000000E+00  0.00000000E+00  0.00000000E+00  0.00000000E+00  0.00000000E+00
  0.00000000E+00  0.00000000E+00
Integer atomic weights                     I   N=           7
          12          35           1           1           1          12
          14
Real atomic weights                        R   N=           7
  1.20000000E+01  3.49688527E+01  1.00782504E+00  1.00782504E+00  1.00782504E+00
  1.20000000E+01  1.40030740E+01
Atom fragment info                         I   N=           7
           0           0           0           0           0           0
           0
Atom residue num                           I   N=           7
           0           0           0           0           0           0
           0
Nuclear spins                              I   N=           7
           0           3           1           1           1           0
           2
Nuclear ZEff                               R   N=           7
 -3.60000000E+00 -1.42400000E+01 -1.00000000E+00 -1.00000000E+00 -1.00000000E+00
 -3.60000000E+00 -4.55000000E+00
Nuclear ZNuc                               R   N=           7
  6.00000000E+00  1.70000000E+01  1.00000000E+00  1.00000000E+00  1.00000000E+00
  6.00000000E+00  7.00000000E+00
Nuclear QMom                               R   N=           7
  0.00000000E+00 -8.16500000E+00  0.00000000E+00  0.00000000E+00  0.00000000E+00
  0.00000000E+00  2.04400000E+00
Nuclear GFac                               R   N=           7
  0.00000000E+00  8.21874000E-01  2.79284600E+00  2.79284600E+00  2.79284600E+00
  0.00000000E+00  4.03761000E-01
MicOpt                                     I   N=           7
          -1          -1          -1          -1          -1          -1
          -1
Number of residues                         I                0
Number of secondary structures             I                0
Number of contracted shells                I               33
Number of primitive shells                 I               72
Pure/Cartesian d shells                    I                1
Pure/Cartesian f shells                    I                0
Highest angular momentum                   I                2
Largest degree of contraction              I                6
Shell types                                I   N=          33
           0          -1          -1          -1           2           0
          -1          -1          -1          -1           2           0
           0           0           1           0           0           0
           1           0           0           0           1           0
          -1          -1          -1           2           0          -1
          -1          -1           2
Number of primitives per shell             I   N=          33
           6           3           1           1           1           6
           6           3           1           1           1           3
           1           1           1           3           1           1
           1           3           1           1           1           6
           3           1           1           1           6           3
           1           1           1
Shell to atom map                          I   N=          33
           1           1           1           1           1           2
           2           2           2           2           2           3
           3           3           3           4           4           4
           4           5           5           5           5           6
           6           6           6           6           7           7
           7           7           7
Primitive exponents                        R   N=          72
  3.04752488E+03  4.57369518E+02  1.03948685E+02  2.92101553E+01  9.28666296E+00
  3.16392696E+00  7.86827235E+00  1.88128854E+00  5.44249258E-01  1.68714478E-01
  4.38000000E-02  8.00000000E-01  2.51801000E+04  3.78035000E+03  8.60474000E+02
  2.42145000E+02  7.73349000E+01  2.62470000E+01  4.91765000E+02  1.16984000E+02
  3.74153000E+01  1.37834000E+01  5.45215000E+00  2.22588000E+00  3.18649000E+00
  1.14427000E+00  4.20377000E-01  1.42657000E-01  4.83000000E-02  7.50000000E-01
  1.87311370E+01  2.82539436E+00  6.40121692E-01  1.61277759E-01  3.60000000E-02
  1.10000000E+00  1.87311370E+01  2.82539436E+00  6.40121692E-01  1.61277759E-01
  3.60000000E-02  1.10000000E+00  1.87311370E+01  2.82539436E+00  6.40121692E-01
  1.61277759E-01  3.60000000E-02  1.10000000E+00  3.04752488E+03  4.57369518E+02
  1.03948685E+02  2.92101553E+01  9.28666296E+00  3.16392696E+00  7.86827235E+00
  1.88128854E+00  5.44249258E-01  1.68714478E-01  4.38000000E-02  8.00000000E-01
  4.17351146E+03  6.27457911E+02  1.42902093E+02  4.02343293E+01  1.28202129E+01
  4.39043701E+00  1.16263619E+01  2.71627981E+00  7.72218397E-01  2.12031498E-01
  6.39000000E-02  8.00000000E-01
Contraction coefficients                   R   N=          72
  1.83473713E-03  1.40373228E-02  6.88426223E-02  2.32184443E-01  4.67941348E-01
  3.62311985E-01 -1.19332420E-01 -1.60854152E-01  1.14345644E+00  1.00000000E+00
  1.00000000E+00  1.00000000E+00  1.83295985E-03  1.40341988E-02  6.90973943E-02
  2.37451980E-01  4.83033960E-01  3.39855972E-01 -2.29739142E-03 -3.07137189E-02
 -1.12528069E-01  4.50163278E-02  5.89353363E-01  4.65206287E-01 -2.51828028E-01
  6.15892514E-02  1.06018433E+00  1.00000000E+00  1.00000000E+00  1.00000000E+00
  3.34946043E-02  2.34726953E-01  8.13757326E-01  1.00000000E+00  1.00000000E+00
  1.00000000E+00  3.34946043E-02  2.34726953E-01  8.13757326E-01  1.00000000E+00
  1.00000000E+00  1.00000000E+00  3.34946043E-02  2.34726953E-01  8.13757326E-01
  1.00000000E+00  1.00000000E+00  1.00000000E+00  1.83473713E-03  1.40373228E-02
  6.88426223E-02  2.32184443E-01  4.67941348E-01  3.62311985E-01 -1.19332420E-01
 -1.60854152E-01  1.14345644E+00  1.00000000E+00  1.00000000E+00  1.00000000E+00
  1.83477216E-03  1.39946270E-02  6.85865518E-02  2.32240873E-01  4.69069948E-01
  3.60455199E-01 -1.14961182E-01 -1.69117479E-01  1.14585195E+00  1.00000000E+00
  1.00000000E+00  1.00000000E+00
P(S=P) Contraction coefficients            R   N=          72
  0.00000000E+00  0.00000000E+00  0.00000000E+00  0.00000000E+00  0.00000000E+00
  0.00000000E+00  6.89990666E-02  3.16423961E-01  7.44308291E-01  1.00000000E+00
  1.00000000E+00  0.00000000E+00  0.00000000E+00  0.00000000E+00  0.00000000E+00
  0.00000000E+00  0.00000000E+00  0.00000000E+00  3.98940088E-03  3.03177067E-02
  1.29880029E-01  3.27951072E-01  4.53527100E-01  2.52154056E-01 -1.42993147E-02
  3.23572333E-01  7.43507765E-01  1.00000000E+00  1.00000000E+00  0.00000000E+00
  0.00000000E+00  0.00000000E+00  0.00000000E+00  0.00000000E+00  0.00000000E+00
  0.00000000E+00  0.00000000E+00  0.00000000E+00  0.00000000E+00  0.00000000E+00
  0.00000000E+00  0.00000000E+00  0.00000000E+00  0.00000000E+00  0.00000000E+00
  0.00000000E+00  0.00000000E+00  0.00000000E+00  0.00000000E+00  0.00000000E+00
  0.00000000E+00  0.00000000E+00  0.00000000E+00  0.00000000E+00  6.89990666E-02
  3.16423961E-01  7.44308291E-01  1.00000000E+00  1.00000000E+00  0.00000000E+00
  0.00000000E+00  0.00000000E+00  0.00000000E+00  0.00000000E+00  0.00000000E+00
  0.00000000E+00  6.75797439E-02  3.23907296E-01  7.40895140E-01  1.00000000E+00
  1.00000000E+00  0.00000000E+00
Coordinates of each shell                  R   N=          99
 -7.51109443E-01 -3.77945225E-05  3.29568236E-03 -7.51109443E-01 -3.77945225E-05
  3.29568236E-03 -7.51109443E-01 -3.77945225E-05  3.29568236E-03 -7.51109443E-01
 -3.77945225E-05  3.29568236E-03 -7.51109443E-01 -3.77945225E-05  3.29568236E-03
 -4.20750734E+00  3.77945225E-06 -1.36060281E-04 -4.20750734E+00  3.77945225E-06
 -1.36060281E-04 -4.20750734E+00  3.77945225E-06 -1.36060281E-04 -4.20750734E+00
  3.77945225E-06 -1.36060281E-04 -4.20750734E+00  3.77945225E-06 -1.36060281E-04
 -4.20750734E+00  3.77945225E-06 -1.36060281E-04 -1.18111662E-01  4.32558310E-03
 -1.94737600E+00 -1.18111662E-01  4.32558310E-03 -1.94737600E+00 -1.18111662E-01
  4.32558310E-03 -1.94737600E+00 -1.18111662E-01  4.32558310E-03 -1.94737600E+00
 -1.23601317E-01  1.68797140E+00  9.83184818E-01 -1.23601317E-01  1.68797140E+00
  9.83184818E-01 -1.23601317E-01  1.68797140E+00  9.83184818E-01 -1.23601317E-01
  1.68797140E+00  9.83184818E-01 -1.22907787E-01 -1.69258234E+00  9.75512530E-01
 -1.22907787E-01 -1.69258234E+00  9.75512530E-01 -1.22907787E-01 -1.69258234E+00
  9.75512530E-01 -1.22907787E-01 -1.69258234E+00  9.75512530E-01  4.81758085E+00
  9.44863062E-05 -4.81313244E-03  4.81758085E+00  9.44863062E-05 -4.81313244E-03
  4.81758085E+00  9.44863062E-05 -4.81313244E-03  4.81758085E+00  9.44863062E-05
 -4.81313244E-03  4.81758085E+00  9.44863062E-05 -4.81313244E-03  7.04856128E+00
 -3.77945225E-05  8.25810316E-04  7.04856128E+00 -3.77945225E-05  8.25810316E-04
  7.04856128E+00 -3.77945225E-05  8.25810316E-04  7.04856128E+00 -3.77945225E-05
  8.25810316E-04  7.04856128E+00 -3.77945225E-05  8.25810316E-04
Num ILSW                                   I              100
ILSW                                       I   N=         100
           0           1           0           0           2           0
           0           0           0           0         402          -1
           5           0           0           0           2           0
           0           0           0           0           1           0
           1           1           0           0           0           0
           0           0      100000           0          -1           0
           0           0           0           0           0           0
           0           0           0           1           0           0
           0 -2000000000           1           0           0           0
           0           0           4          52           0           0
           0           0           5           0           0           0
           0           0           0           7           0           1
           0           0           0           0           0           0
           0           0           0           0           0           0
           0           0           0           0           0           0
           0           0           0           0           0           0
           0           0           0           0
Num RLSW                                   I               52
RLSW                                       R   N=          52
  8.00000000E-01  7.20000000E-01  1.00000000E+00  8.10000000E-01  2.00000000E-01
  0.00000000E+00  0.00000000E+00  1.00000000E+00  0.00000000E+00  0.00000000E+00
  0.00000000E+00  0.00000000E+00  1.00000000E+00  0.00000000E+00  0.00000000E+00
  0.00000000E+00  0.00000000E+00  1.00000000E+00  0.00000000E+00  0.00000000E+00
  0.00000000E+00  0.00000000E+00  1.00000000E+00  0.00000000E+00  0.00000000E+00
  0.00000000E+00  0.00000000E+00  1.00000000E+00  0.00000000E+00  0.00000000E+00
  0.00000000E+00  0.00000000E+00  1.00000000E+00  0.00000000E+00  0.00000000E+00
  0.00000000E+00  0.00000000E+00  0.00000000E+00  1.00000000E+00  1.00000000E+00
  0.00000000E+00  1.00000000E+00  0.00000000E+00  0.00000000E+00  0.00000000E+00
  0.00000000E+00  0.00000000E+00  0.00000000E+00  0.00000000E+00  0.00000000E+00
  0.00000000E+00  0.00000000E+00
MxBond                                     I                4
NBond                                      I   N=           7
           4           1           1           1           1           1
           1
IBond                                      I   N=          28
           2           3           4           5           1           0
           0           0           1           0           0           0
           1           0           0           0           1           0
           0           0           7           0           0           0
           6           0           0           0
RBond                                      R   N=          28
  1.00000000E+00  1.00000000E+00  1.00000000E+00  1.00000000E+00  1.00000000E+00
  0.00000000E+00  0.00000000E+00  0.00000000E+00  1.00000000E+00  0.00000000E+00
  0.00000000E+00  0.00000000E+00  1.00000000E+00  0.00000000E+00  0.00000000E+00
  0.00000000E+00  1.00000000E+00  0.00000000E+00  0.00000000E+00  0.00000000E+00
  2.00000000E+00  0.00000000E+00  0.00000000E+00  0.00000000E+00  2.00000000E+00
  0.00000000E+00  0.00000000E+00  0.00000000E+00
Virial Ratio                               R      2.004565821360506E+00
SCF Energy                                 R     -5.929948912251934E+02
Total Energy                               R     -5.929948912251934E+02
RMS Force                                  R      2.850414988031062E-03
RMS Density                                R      1.834467475185055E-09
NImag                                      I                2
Job Status                                 I                1
Nuclear derivative order                   I                2
External E-field                           R   N=          35
  0.00000000E+00  0.00000000E+00  0.00000000E+00  0.00000000E+00  0.00000000E+00
  0.00000000E+00  0.00000000E+00  0.00000000E+00  0.00000000E+00  0.00000000E+00
  0.00000000E+00  0.00000000E+00  0.00000000E+00  0.00000000E+00  0.00000000E+00
  0.00000000E+00  0.00000000E+00  0.00000000E+00  0.00000000E+00  0.00000000E+00
  0.00000000E+00  0.00000000E+00  0.00000000E+00  0.00000000E+00  0.00000000E+00
  0.00000000E+00  0.00000000E+00  0.00000000E+00  0.00000000E+00  0.00000000E+00
  0.00000000E+00  0.00000000E+00  0.00000000E+00  0.00000000E+00  0.00000000E+00
IOpCl                                      I                0
IROHF                                      I                0
Alpha Orbital Energies                     R   N=          98
 -1.01413676E+02 -1.40939724E+01 -1.01031852E+01 -9.95964879E+00 -9.32986725E+00
 -7.09293764E+00 -7.08448796E+00 -7.08448774E+00 -7.19251568E-01 -6.46879918E-01
 -5.41827910E-01 -3.09938317E-01 -3.09748492E-01 -2.79828270E-01 -1.82147546E-01
 -1.77998009E-01 -1.77976567E-01 -9.60239317E-02 -9.60235290E-02 -6.84747977E-02
  1.07848330E-01  1.25567585E-01  1.43909569E-01  1.43961433E-01  1.73183854E-01
  2.01160605E-01  2.01881953E-01  2.01884171E-01  2.19916627E-01  2.20085328E-01
  2.39370008E-01  2.48312006E-01  2.48417412E-01  2.69591802E-01  2.76510603E-01
  2.76635333E-01  3.12871418E-01  3.31894793E-01  3.31957270E-01  3.59997888E-01
  3.85412569E-01  3.85538535E-01  3.88563051E-01  4.63518302E-01  4.78313565E-01
  6.41801680E-01  7.26196920E-01  7.42291260E-01  7.42305103E-01  7.70947574E-01
  7.71028710E-01  8.73304629E-01  8.96867583E-01  8.96877261E-01  9.71840171E-01
  9.91175143E-01  9.91226908E-01  1.04200320E+00  1.04208926E+00  1.08004475E+00
  1.09222672E+00  1.09234418E+00  1.12355051E+00  1.18935173E+00  1.18943382E+00
  1.21433385E+00  1.26594539E+00  1.37251920E+00  1.46106850E+00  1.59874144E+00
  1.59887924E+00  1.73200869E+00  1.78287016E+00  1.78287238E+00  1.80476280E+00
  1.80478975E+00  2.15472736E+00  2.20238474E+00  2.20241591E+00  2.21427658E+00
  2.21436598E+00  2.29310900E+00  2.48491140E+00  2.48526932E+00  2.67854764E+00
  2.81361737E+00  2.83545520E+00  2.83548360E+00  2.95059765E+00  2.95087444E+00
  3.25565359E+00  3.37907778E+00  3.55301445E+00  3.55314887E+00  4.20700735E+00
  4.40895071E+00  4.45370585E+00  4.56894841E+00
Alpha MO coefficients                      R   N=        9604
 -6.56197520E-06  2.58185840E-05 -5.36304498E-05  5.09089487E-09 -5.72633398E-08
  1.16629250E-04 -2.80857997E-05  8.59923831E-09 -6.50433076E-08 -4.03166891E-05
 -6.47263146E-05 -1.64831313E-08  6.43217518E-08 -2.16999394E-05  1.20371895E-05
  1.20016524E-05 -4.38585753E-09 -5.94884754E-08  6.92085543E-09  9.95996914E-01
  1.51505768E-02  4.05760942E-05 -2.58189239E-09  3.98440106E-08 -2.10654037E-02
 -1.77334173E-05 -1.19920448E-10 -1.27509078E-08  1.88784530E-03 -4.61351248E-05
  1.91668948E-09 -5.69640542E-08 -3.93394753E-04 -1.97628271E-05  1.65844763E-09
 -4.23155923E-08  7.50322405E-03  7.52451013E-03  7.52451109E-03 -3.13036611E-10
 -2.72235341E-08  9.73581501E-11 -2.76187802E-05 -3.35853395E-05  4.39998671E-05
  2.35417640E-05  2.76601992E-08 -1.23026237E-05 -2.77356270E-05 -3.33525342E-05
  4.37745112E-05  2.34610496E-05  1.06504935E-05  6.20954577E-06 -2.77075902E-05
 -3.33564757E-05  4.37328013E-05  2.34815124E-05 -1.06760101E-05  6.15947092E-06
 -1.65896389E-07  1.94021523E-06 -1.74089914E-07  8.91511460E-10 -2.53561989E-08
 -1.01632405E-04 -7.75121807E-05  1.57169068E-09 -1.19859786E-07 -2.96454925E-05
 -6.66050466E-05 -2.53107786E-09  1.17281595E-07 -9.05282141E-06  1.20307295E-06
  1.20527347E-06  9.12490231E-10 -2.93845772E-08 -9.91181751E-11 -1.66583071E-06
 -6.59730322E-06 -7.37009631E-07 -9.29092615E-11 -2.61452086E-09  9.91469339E-05
 -5.57555610E-05  3.91917127E-09 -1.41656809E-07  9.48914384E-05  6.74474517E-06
  4.70635408E-09 -1.83373212E-07  3.55255578E-06 -5.08711316E-06 -5.08750000E-06
 -8.79434956E-10  3.41830907E-08 -1.62592141E-12  3.94007750E-06  1.48885015E-05
  5.10210985E-06  4.15701287E-10 -3.28970083E-08 -3.74955439E-05 -4.05762028E-05
  8.99401650E-09  9.48553842E-08  9.90690528E-04  1.12605482E-04  1.40069228E-10
 -1.32910253E-06  3.88144766E-06  9.81738640E-06  9.80065505E-06 -5.09723872E-10
  5.88745139E-09  1.33004749E-09  1.47916915E-07  2.57941761E-06 -1.18081274E-07
  2.39486951E-10 -2.54861098E-09  6.76437280E-06  1.27850449E-06 -1.35361600E-09
  1.55048842E-08 -6.53704954E-05 -3.13103763E-05  4.26823326E-09 -9.29334594E-08
 -1.34511335E-04 -6.32884231E-05 -7.61001303E-09  5.91761493E-07  2.60789018E-06
  5.05744288E-06  5.05601655E-06  7.41634618E-11  1.46690929E-10  2.51435853E-10
  1.04017234E-05 -4.34610824E-05 -1.64360923E-04  1.93043303E-06  4.92679181E-09
 -2.38914893E-06  1.03370926E-05 -4.32942745E-05 -1.64849613E-04  2.01010107E-06
  2.04660707E-06  1.18215478E-06  1.03379774E-05 -4.32750893E-05 -1.64950117E-04
  2.00636796E-06 -2.04920815E-06  1.17073295E-06  8.33837684E-05  2.09675941E-04
 -2.80357655E-04  1.62569706E-08 -6.87433884E-07 -2.41218131E-04 -4.20899574E-04
  2.80273647E-08 -1.17948672E-06  1.45613102E-03  9.98968270E-04 -7.31389844E-08
  2.13577855E-06 -7.57551386E-04 -1.37712585E-05 -1.37733277E-05  5.12635080E-08
 -2.17136659E-06 -9.88139648E-12  9.92699111E-01  3.44401504E-02 -1.39594874E-03
  8.28320378E-08 -3.52764440E-06  5.20316004E-03  1.10273685E-04 -8.24869220E-09
  2.76110694E-07 -2.99308108E-03  6.10538745E-05  2.95704010E-09  3.93807820E-07
 -7.70733906E-03 -8.42043332E-03 -8.42042987E-03 -4.85035801E-08  2.07048979E-06
 -1.74525444E-10  9.92989332E-01  4.96279776E-02 -7.33639152E-04  7.16731763E-08
  1.08069172E-06 -1.64545956E-02  9.42254560E-04 -4.49433859E-07 -5.39488570E-07
  6.90047657E-03 -3.47058569E-03  2.44773824E-07 -1.12766076E-06 -9.27955776E-03
 -8.86798049E-03 -8.86915204E-03 -2.52149756E-08 -3.61686934E-07  1.10336240E-07
 -9.39267648E-06 -5.11592752E-05 -2.65110783E-06 -8.23693423E-09 -3.70257367E-08
 -2.12170487E-05  1.89320735E-04  4.97959267E-08  4.08924675E-07  3.28173842E-03
  1.87447550E-03 -1.96717210E-07  1.17269958E-06 -5.98955826E-03 -1.96404458E-03
  1.09967937E-07 -2.37991388E-06 -1.39271107E-04 -1.80492777E-04 -1.80353679E-04
 -2.88035684E-08 -1.02833449E-07 -2.04403515E-08 -1.58629380E-04  3.01806367E-03
 -9.61937664E-04  2.72208309E-05  2.75769439E-07 -9.55731407E-05 -1.59824670E-04
  3.02137525E-03 -9.68186037E-04  2.76930362E-05  8.29570783E-05  4.83356884E-05
 -1.59716918E-04  3.02036445E-03 -9.66816933E-04  2.76634312E-05 -8.32502984E-05
  4.80699932E-05 -1.99445932E-05 -4.31089805E-05  4.15661927E-05 -1.81496015E-08
 -6.50217843E-07 -3.76621301E-04 -7.57498173E-04  8.32972278E-08  1.32597518E-06
  2.00903282E-03  2.97369144E-04  2.61664937E-07  5.18926325E-06 -5.84723888E-05
 -3.25922333E-05 -3.27260879E-05 -1.11895928E-09 -3.31980579E-07  3.62619282E-09
 -2.79390053E-05 -1.00287988E-04 -1.19382608E-05 -2.05347314E-09  2.50138486E-07
  1.09043991E-03 -3.20430235E-04  3.62269860E-08 -2.21953051E-06 -1.05530936E-03
 -6.75224951E-05 -2.31124829E-07 -1.37844038E-06 -2.25881174E-05 -6.94357663E-05
 -6.94234811E-05  3.00151142E-09  3.04098150E-07  3.30511747E-11 -1.54494845E-05
 -7.30275145E-05 -7.95506754E-05  2.09674767E-10 -3.19280048E-08  5.02893934E-04
  4.36032614E-04  5.27048279E-08  1.41229686E-06 -1.02014905E-03  2.34547536E-03
 -1.03732355E-07  7.65761511E-07 -3.84448087E-05 -2.80953494E-05 -2.82528550E-05
 -1.86600029E-10 -1.57634288E-08  4.66843427E-09  1.24410074E-07  6.03083918E-06
  3.45783255E-06  1.51484500E-09  1.78789034E-08  1.34930159E-05 -2.43566750E-05
 -9.29301470E-09 -1.03278876E-07 -1.49464230E-04  2.25747626E-04  3.01720615E-08
  3.21946173E-07  3.31595611E-03  8.00126224E-04 -1.64868467E-08  1.10843355E-06
  3.54577899E-05  1.98319634E-07  1.67130010E-07  4.05801182E-09  5.60183493E-08
  2.95266323E-09 -2.57134591E-05 -4.68088440E-04 -2.68926912E-04 -3.63629072E-05
  3.93900070E-08 -1.90291884E-05 -2.52897680E-05 -4.70591187E-04 -2.62720696E-04
 -3.68702391E-05  1.68091195E-05  9.67598158E-06 -2.53340395E-05 -4.70437288E-04
 -2.63062416E-04 -3.68362230E-05 -1.68470737E-05  9.59193242E-06  9.92845249E-01
  4.92715766E-02  1.87919980E-03 -1.16338785E-07  5.08694352E-06 -1.12361231E-02
 -1.06866321E-03  8.49165205E-08 -4.19731231E-06 -5.37450739E-03 -1.32766612E-03
  6.54862033E-08 -8.68447606E-06 -8.46535198E-03 -9.69286457E-03 -9.69282456E-03
 -8.13410796E-08  3.59897883E-06 -1.07994871E-09 -4.95085402E-04  1.40684276E-05
  4.40891336E-04 -2.48289831E-08  1.07910019E-06 -6.80614713E-04  3.36954685E-04
 -3.33561774E-08  1.19704452E-06  8.88049076E-03 -3.05690852E-03  2.07789065E-07
 -5.36946605E-06 -2.73506552E-04  1.51928681E-04  1.51925874E-04  3.06529883E-08
 -1.35962670E-06  3.00366912E-11 -1.10502596E-04  1.26706469E-04  3.72582420E-04
 -1.02930978E-08  1.70818885E-07  3.01724991E-03 -1.60590037E-03 -2.53339221E-07
  5.40274697E-07 -3.76091064E-02  3.27745695E-02  1.69095257E-07  1.19069534E-05
 -7.70975768E-04 -1.27843245E-04 -1.27860489E-04  1.00439935E-08 -6.94302990E-07
 -5.88532696E-08 -2.84605129E-01  1.02274187E+00  4.97003996E-03 -3.24123524E-07
  5.22306566E-06  7.60162262E-02  6.19501189E-04 -7.96412720E-09  4.35428866E-07
 -2.64360472E-02 -1.77835817E-03  7.42513519E-08 -1.28963182E-06  6.05957212E-02
  1.69439255E-02 -3.22338312E-07  2.41406928E-05 -1.51900357E-02 -1.55823185E-02
 -1.55823811E-02 -4.26161098E-10  6.14988083E-07  1.64995075E-09 -4.25072517E-05
 -7.05960770E-04  8.32308602E-04 -7.09763585E-05 -2.22212313E-08  1.37180673E-05
 -4.18039908E-05 -7.10228433E-04  8.38542440E-04 -7.20624350E-05 -1.14991777E-05
 -6.94723664E-06 -4.19111491E-05 -7.10612154E-04  8.39673096E-04 -7.18371463E-05
  1.15011177E-05 -6.86774411E-06  1.21158529E-05  5.52067516E-05  4.43486491E-05
 -1.03208446E-08  1.34096078E-06  4.07988381E-04  5.90464041E-04 -5.89320529E-09
 -3.06838043E-06 -1.58374011E-02  8.99674862E-03  8.28977240E-07 -4.64759522E-05
  7.78217358E-05  2.36919314E-06  2.38934683E-06 -7.62947699E-09  3.97862398E-07
 -6.70180478E-10  1.09709504E-05  5.86987715E-05 -1.74579301E-05 -1.83271081E-08
  7.72262540E-07 -7.87237692E-04  5.72382816E-04  5.45543806E-08 -2.04276987E-06
  4.56543827E-04 -2.51962022E-03 -4.55424010E-07  2.65102860E-05 -4.53492195E-05
  2.90576234E-05  2.90533820E-05  6.74208144E-09 -5.74231815E-07  5.53575931E-10
  7.38772909E-05  1.61384623E-03  4.13178095E-04  7.69484901E-10  1.00262398E-06
 -7.96432362E-04  1.45448237E-03 -6.09381964E-07 -5.46705956E-06  4.83957044E-02
 -5.02957028E-02  4.25805458E-07 -1.12518863E-05 -1.96294165E-03  2.12933838E-04
  2.14281136E-04  8.95604086E-08 -2.43161627E-06 -1.22730292E-07  1.46473819E-03
 -5.57476664E-03  9.90325681E-01 -5.91089989E-05  9.04077823E-04 -4.03824294E-04
  3.14888944E-02 -1.77802731E-06  2.91228281E-05  4.96740978E-03 -1.29363482E-02
  6.81859799E-07 -1.14513249E-05 -6.93936244E-02 -1.35676006E-02  2.73360861E-07
 -2.96796039E-05  7.64000748E-04 -4.58088552E-04 -4.58000529E-04 -5.52904095E-09
  1.38177732E-06 -5.47137444E-09 -1.54024792E-04  1.36555622E-03 -5.21873377E-03
 -3.11522540E-04  1.00638169E-07 -3.06945359E-05 -1.51853698E-04  1.37281098E-03
 -5.21881859E-03 -3.12556595E-04  2.56814539E-05  1.50493444E-05 -1.52319533E-04
  1.37213043E-03 -5.21752531E-03 -3.12243991E-04 -2.57251716E-05  1.49550076E-05
 -2.26083763E-05 -1.52278081E-04 -9.17863369E-05  1.93441312E-08 -1.73778792E-06
  2.07165302E-03  1.18608738E-03 -1.31591755E-07  8.90647254E-06  3.53287348E-02
 -1.53571996E-02 -1.57183779E-06  8.40953000E-05  1.14235154E-04 -3.83356611E-05
 -3.83444796E-05 -9.93564148E-09  1.93452459E-07  7.71234642E-10 -1.94286080E-05
 -5.84882149E-05  3.83454376E-05  2.72836354E-08 -1.25559748E-06 -3.34188925E-04
  5.65424287E-04 -1.66763913E-07  7.48140744E-06 -7.39837796E-03  5.58016830E-03
  7.23560358E-07 -4.18473224E-05 -1.26346250E-04 -2.07661143E-05 -2.07520791E-05
  2.67741047E-09  1.47138347E-07 -3.24592723E-10  2.00052304E-07  1.09867359E-06
  8.76384514E-07  2.02796131E-05 -8.03528696E-05 -6.71847587E-06 -5.23617945E-06
 -7.92543880E-05  3.15650982E-04  1.60540273E-05 -6.83084116E-05 -1.11477977E-04
  4.47457303E-04  9.36394027E-08 -8.08803868E-05  8.10299206E-05 -3.62119211E-05
  1.43372844E-04  2.28924731E-05  1.89554531E-07 -8.51667865E-07 -8.91742017E-04
 -2.42251383E-01  9.60775256E-01 -1.82658695E-07 -2.61236745E-05 -7.23483019E-03
  2.86938531E-02  3.57549970E-06  7.73141395E-06  2.84403279E-03 -1.12809995E-02
 -7.69759688E-05 -2.23536870E-05 -1.26438958E-03  5.01789097E-03 -9.64672727E-07
  4.71052519E-06 -4.46990948E-06 -8.00895074E-05  3.17614822E-04 -1.47945308E-06
  5.91558293E-05 -5.39647202E-04  4.55201507E-03  2.58697210E-04  6.39565400E-06
 -4.70204545E-05 -1.63707819E-05  1.60712771E-04 -1.29502136E-03 -7.33362622E-05
  4.24585617E-07 -2.84550217E-05 -4.16943933E-05  3.97596194E-04 -3.25290605E-03
 -1.85301862E-04  2.07431435E-05 -3.35349352E-05 -4.97473216E-08 -9.10123690E-08
 -2.93988920E-07 -9.56271669E-06  3.80648366E-05 -1.69605779E-05 -1.36404492E-05
  3.67538668E-05 -1.47089956E-04  4.40683892E-05 -3.10555797E-05 -2.41071872E-04
  9.69002839E-04 -1.03502016E-06  3.69370021E-06 -3.32579149E-06  1.64999295E-06
 -6.69020183E-06 -9.83457552E-07 -4.44792025E-07 -1.76363917E-06  1.21898982E-07
  4.42011251E-06 -1.79490384E-05  2.10096149E-05 -1.05624685E-05 -2.72141085E-05
  1.10239271E-04  1.05859291E-06  1.01966446E-05  1.03617248E-04 -4.19650382E-04
  2.31457436E-07  3.30187565E-07 -2.69605928E-06  2.59754427E-06 -1.03725129E-05
 -4.29036416E-07  9.54827771E-08  5.74062503E-07  2.25238055E-07 -8.05214964E-05
 -2.02834977E-05 -3.31726745E-06 -1.21468958E-06  3.12966296E-04  7.92461466E-05
  5.59606555E-06 -2.16858386E-05  4.43696927E-04  1.13219043E-04  2.87967924E-08
 -1.99021352E-05  1.99060994E-05  1.43653568E-04  3.61591440E-05 -9.38312421E-05
  4.51400690E-08 -2.23796764E-07 -1.63904055E-04  9.60775706E-01  2.42251316E-01
 -7.49096146E-08 -4.65107915E-06  2.86936217E-02  7.23493261E-03  1.51493336E-06
  1.37119426E-06 -1.12796061E-02 -2.84443140E-03 -2.42370475E-05 -6.62836548E-06
  5.01502072E-03  1.26531965E-03 -1.57405826E-07  1.09394685E-06 -1.12923150E-06
  3.17712473E-04  8.01029513E-05  5.98105781E-06  1.47254841E-05 -1.34150890E-04
  1.13766414E-03  6.46022354E-05 -2.51366213E-05 -1.17863126E-05 -5.73652156E-05
  5.45816269E-04 -4.49165144E-03 -2.56866853E-04 -4.48806134E-05 -1.81559174E-05
  4.31529390E-05 -4.04427502E-04  3.35483997E-03  1.92032107E-04 -3.97082830E-05
  2.35283928E-06 -2.08726376E-08 -5.55847327E-08 -6.88030609E-08  3.79424557E-05