 Entering Gaussian System, Link 0=g16
 Initial command:
 /usr/local/g16_AVX//g16/l1.exe "/scratch/alanqf/0143-54585.ixchel.mda.cinvestav.mx/Gau-47029.inp" -scrdir="/scratch/alanqf/0143-54585.ixchel.mda.cinvestav.mx/"
 Entering Link 1 = /usr/local/g16_AVX//g16/l1.exe PID=     47030.
  
 Copyright (c) 1988-2017, Gaussian, Inc.  All Rights Reserved.
  
 This is part of the Gaussian(R) 16 program.  It is based on
 the Gaussian(R) 09 system (copyright 2009, Gaussian, Inc.),
 the Gaussian(R) 03 system (copyright 2003, Gaussian, Inc.),
 the Gaussian(R) 98 system (copyright 1998, Gaussian, Inc.),
 the Gaussian(R) 94 system (copyright 1995, Gaussian, Inc.),
 the Gaussian 92(TM) system (copyright 1992, Gaussian, Inc.),
 the Gaussian 90(TM) system (copyright 1990, Gaussian, Inc.),
 the Gaussian 88(TM) system (copyright 1988, Gaussian, Inc.),
 the Gaussian 86(TM) system (copyright 1986, Carnegie Mellon
 University), and the Gaussian 82(TM) system (copyright 1983,
 Carnegie Mellon University). Gaussian is a federally registered
 trademark of Gaussian, Inc.
  
 This software contains proprietary and confidential information,
 including trade secrets, belonging to Gaussian, Inc.
  
 This software is provided under written license and may be
 used, copied, transmitted, or stored only in accord with that
 written license.
  
 The following legend is applicable only to US Government
 contracts under FAR:
  
                    RESTRICTED RIGHTS LEGEND
  
 Use, reproduction and disclosure by the US Government is
 subject to restrictions as set forth in subparagraphs (a)
 and (c) of the Commercial Computer Software - Restricted
 Rights clause in FAR 52.227-19.
  
 Gaussian, Inc.
 340 Quinnipiac St., Bldg. 40, Wallingford CT 06492
  
  
 ---------------------------------------------------------------
 Warning -- This program may not be used in any manner that
 competes with the business of Gaussian, Inc. or will provide
 assistance to any competitor of Gaussian, Inc.  The licensee
 of this program is prohibited from giving any competitor of
 Gaussian, Inc. access to this program.  By using this program,
 the user acknowledges that Gaussian, Inc. is engaged in the
 business of creating and licensing software in the field of
 computational chemistry and represents and warrants to the
 licensee that it is not a competitor of Gaussian, Inc. and that
 it will not use this program in any manner prohibited above.
 ---------------------------------------------------------------
  

 Cite this work as:
 Gaussian 16, Revision B.01,
 M. J. Frisch, G. W. Trucks, H. B. Schlegel, G. E. Scuseria, 
 M. A. Robb, J. R. Cheeseman, G. Scalmani, V. Barone, 
 G. A. Petersson, H. Nakatsuji, X. Li, M. Caricato, A. V. Marenich, 
 J. Bloino, B. G. Janesko, R. Gomperts, B. Mennucci, H. P. Hratchian, 
 J. V. Ortiz, A. F. Izmaylov, J. L. Sonnenberg, D. Williams-Young, 
 F. Ding, F. Lipparini, F. Egidi, J. Goings, B. Peng, A. Petrone, 
 T. Henderson, D. Ranasinghe, V. G. Zakrzewski, J. Gao, N. Rega, 
 G. Zheng, W. Liang, M. Hada, M. Ehara, K. Toyota, R. Fukuda, 
 J. Hasegawa, M. Ishida, T. Nakajima, Y. Honda, O. Kitao, H. Nakai, 
 T. Vreven, K. Throssell, J. A. Montgomery, Jr., J. E. Peralta, 
 F. Ogliaro, M. J. Bearpark, J. J. Heyd, E. N. Brothers, K. N. Kudin, 
 V. N. Staroverov, T. A. Keith, R. Kobayashi, J. Normand, 
 K. Raghavachari, A. P. Rendell, J. C. Burant, S. S. Iyengar, 
 J. Tomasi, M. Cossi, J. M. Millam, M. Klene, C. Adamo, R. Cammi, 
 J. W. Ochterski, R. L. Martin, K. Morokuma, O. Farkas, 
 J. B. Foresman, and D. J. Fox, Gaussian, Inc., Wallingford CT, 2016.
 
 ******************************************
 Gaussian 16:  ES64L-G16RevB.01 20-Dec-2017
                13-Oct-2024 
 ******************************************
 %NProcShared=26
 Will use up to   26 processors via shared memory.
 %MEM=20GB
 %chk=CHKfiles/0143.chk
 ---------------------------------------------------------------------
 #p b3lyp 6-31++g(d,p) scf=verytight NoSymm freq=noraman int=ultrafine
 ---------------------------------------------------------------------
 1/10=4,30=1,38=1/1,3;
 2/12=2,15=1,17=6,18=5,40=1/2;
 3/5=1,6=6,7=1111,11=2,25=1,30=1,71=2,74=-5,75=-5,140=1/1,2,3;
 4//1;
 5/5=2,17=3,38=5,98=1/2;
 8/6=4,10=90,11=11/1;
 11/6=1,8=1,9=11,15=111,16=1,31=1/1,2,10;
 10/6=1,31=1/2;
 6/7=2,8=2,9=2,10=2,28=1/1;
 7/8=1,10=1,25=1,30=1/1,2,3,16;
 1/10=4,30=1/3;
 99//99;
 Leave Link    1 at Sun Oct 13 09:52:12 2024, MaxMem=  2684354560 cpu:               1.3 elap:               0.1
 (Enter /usr/local/g16_AVX//g16/l101.exe)
 ------------------------
 RxCoord=4.19746 DE=45.37
 ------------------------
 Symbolic Z-matrix:
 Charge = -1 Multiplicity = 1
 C                    -0.40196   0.00001   0.00176 
 Cl                   -2.23086  -0.00001  -0.00011 
 H                    -0.06803   0.0024   -1.03033 
 H                    -0.06855   0.89334   0.52045 
 H                    -0.06924  -0.89556   0.5164 
 C                     2.55773   0.00002  -0.00255 
 N                     3.73837  0.         0.00048 
 
 ITRead=  0  0  0  0  0  0  0
 MicOpt= -1 -1 -1 -1 -1 -1 -1
 NAtoms=      7 NQM=        7 NQMF=       0 NMMI=      0 NMMIF=      0
                NMic=       0 NMicF=      0.
                    Isotopes and Nuclear Properties:
 (Nuclear quadrupole moments (NQMom) in fm**2, nuclear magnetic moments (NMagM)
  in nuclear magnetons)

  Atom         1           2           3           4           5           6           7
 IAtWgt=          12          35           1           1           1          12          14
 AtmWgt=  12.0000000  34.9688527   1.0078250   1.0078250   1.0078250  12.0000000  14.0030740
 NucSpn=           0           3           1           1           1           0           2
 AtZEff=  -0.0000000  -0.0000000  -0.0000000  -0.0000000  -0.0000000  -0.0000000  -0.0000000
 NQMom=    0.0000000  -8.1650000   0.0000000   0.0000000   0.0000000   0.0000000   2.0440000
 NMagM=    0.0000000   0.8218740   2.7928460   2.7928460   2.7928460   0.0000000   0.4037610
 AtZNuc=   6.0000000  17.0000000   1.0000000   1.0000000   1.0000000   6.0000000   7.0000000
 Leave Link  101 at Sun Oct 13 09:52:12 2024, MaxMem=  2684354560 cpu:               1.8 elap:               0.1
 (Enter /usr/local/g16_AVX//g16/l103.exe)

 GradGradGradGradGradGradGradGradGradGradGradGradGradGradGradGradGradGrad
 Berny optimization.
 Initialization pass.
 Trust Radius=3.00D-01 FncErr=1.00D-07 GrdErr=1.00D-07 EigMax=2.50D+02 EigMin=1.00D-04
 Number of steps in this run=      2 maximum allowed number of steps=      2.
 GradGradGradGradGradGradGradGradGradGradGradGradGradGradGradGradGradGrad

 Leave Link  103 at Sun Oct 13 09:52:12 2024, MaxMem=  2684354560 cpu:               0.3 elap:               0.0
 (Enter /usr/local/g16_AVX//g16/l202.exe)
                          Input orientation:                          
 ---------------------------------------------------------------------
 Center     Atomic      Atomic             Coordinates (Angstroms)
 Number     Number       Type             X           Y           Z
 ---------------------------------------------------------------------
      1          6           0       -0.401963    0.000010    0.001763
      2         17           0       -2.230857   -0.000013   -0.000109
      3          1           0       -0.068034    0.002396   -1.030327
      4          1           0       -0.068553    0.893339    0.520446
      5          1           0       -0.069235   -0.895563    0.516398
      6          6           0        2.557731    0.000017   -0.002554
      7          7           0        3.738373   -0.000003    0.000481
 ---------------------------------------------------------------------
                    Distance matrix (angstroms):
                    1          2          3          4          5
     1  C    0.000000
     2  Cl   1.828895   0.000000
     3  H    1.084769   2.395654   0.000000
     4  H    1.085463   2.396792   1.788484   0.000000
     5  H    1.085177   2.396122   1.788488   1.788907   0.000000
     6  C    2.959697   4.788589   2.819746   2.822928   2.823531
     7  N    4.140336   5.969230   3.943514   3.944757   3.945387
                    6          7
     6  C    0.000000
     7  N    1.180646   0.000000
 Symmetry turned off by external request.
 Stoichiometry    C2H3ClN(1-)
 Framework group  C1[X(C2H3ClN)]
 Deg. of freedom    15
 Full point group                 C1      NOp   1
 Rotational constants (GHZ):         156.7385277           1.1185950           1.1185928
 Leave Link  202 at Sun Oct 13 09:52:12 2024, MaxMem=  2684354560 cpu:               0.2 elap:               0.0
 (Enter /usr/local/g16_AVX//g16/l301.exe)
 Standard basis: 6-31++G(d,p) (6D, 7F)
 Ernie: Thresh=  0.10000D-02 Tol=  0.10000D-05 Strict=F.
    98 basis functions,   176 primitive gaussians,    98 cartesian basis functions
    20 alpha electrons       20 beta electrons
       nuclear repulsion energy       109.0844782500 Hartrees.
 IExCor=  402 DFT=T Ex+Corr=B3LYP ExCW=0 ScaHFX=  0.200000
 ScaDFX=  0.800000  0.720000  1.000000  0.810000 ScalE2=  1.000000  1.000000
 IRadAn=      5 IRanWt=     -1 IRanGd=            0 ICorTp=0 IEmpDi=  4
 NAtoms=    7 NActive=    7 NUniq=    7 SFac= 1.00D+00 NAtFMM=   60 NAOKFM=F Big=F
 Integral buffers will be    131072 words long.
 Raffenetti 2 integral format.
 Two-electron integral symmetry is turned off.
 Leave Link  301 at Sun Oct 13 09:52:13 2024, MaxMem=  2684354560 cpu:               0.9 elap:               0.1
 (Enter /usr/local/g16_AVX//g16/l302.exe)
 NPDir=0 NMtPBC=     1 NCelOv=     1 NCel=       1 NClECP=     1 NCelD=      1
         NCelK=      1 NCelE2=     1 NClLst=     1 CellRange=     0.0.
 One-electron integrals computed using PRISM.
 NBasis=    98 RedAO= T EigKep=  1.48D-04  NBF=    98
 NBsUse=    98 1.00D-06 EigRej= -1.00D+00 NBFU=    98
 Precomputing XC quadrature grid using
 IXCGrd= 4 IRadAn=           5 IRanWt=          -1 IRanGd=           0 AccXCQ= 0.00D+00.
 Generated NRdTot=       0 NPtTot=           0 NUsed=           0 NTot=          32
 NSgBfM=    98    98    98    98    98 MxSgAt=     7 MxSgA2=     7.
 Leave Link  302 at Sun Oct 13 09:52:13 2024, MaxMem=  2684354560 cpu:               3.9 elap:               0.2
 (Enter /usr/local/g16_AVX//g16/l303.exe)
 DipDrv:  MaxL=1.
 Leave Link  303 at Sun Oct 13 09:52:13 2024, MaxMem=  2684354560 cpu:               0.5 elap:               0.0
 (Enter /usr/local/g16_AVX//g16/l401.exe)
 ExpMin= 3.60D-02 ExpMax= 2.52D+04 ExpMxC= 3.78D+03 IAcc=3 IRadAn=         5 AccDes= 0.00D+00
 Harris functional with IExCor=  402 and IRadAn=       5 diagonalized for initial guess.
 HarFok:  IExCor=  402 AccDes= 0.00D+00 IRadAn=         5 IDoV= 1 UseB2=F ITyADJ=14
 ICtDFT=  3500011 ScaDFX=  1.000000  1.000000  1.000000  1.000000
 FoFCou: FMM=F IPFlag=           0 FMFlag=      100000 FMFlg1=           0
         NFxFlg=           0 DoJE=T BraDBF=F KetDBF=T FulRan=T
         wScrn=  0.000000 ICntrl=       500 IOpCl=  0 I1Cent=   200000004 NGrid=           0
         NMat0=    1 NMatS0=      1 NMatT0=    0 NMatD0=    1 NMtDS0=    0 NMtDT0=    0
 Symmetry not used in FoFCou.
 Harris En= -593.079123775261    
 JPrj=0 DoOrth=F DoCkMO=F.
 Leave Link  401 at Sun Oct 13 09:52:13 2024, MaxMem=  2684354560 cpu:               5.5 elap:               0.3
 (Enter /usr/local/g16_AVX//g16/l502.exe)
 Keep R1 ints in memory in canonical form, NReq=35752935.
 FoFCou: FMM=F IPFlag=           0 FMFlag=           0 FMFlg1=           0
         NFxFlg=           0 DoJE=F BraDBF=F KetDBF=F FulRan=T
         wScrn=  0.000000 ICntrl=       600 IOpCl=  0 I1Cent=           0 NGrid=           0
         NMat0=    1 NMatS0=   4851 NMatT0=    0 NMatD0=    1 NMtDS0=    0 NMtDT0=    0
 Symmetry not used in FoFCou.
 Two-electron integral symmetry not used.
 Closed shell SCF:
 Using DIIS extrapolation, IDIIS=  1040.
 NGot=  2684354560 LenX=  2672563405 LenY=  2672553360
 Requested convergence on RMS density matrix=1.00D-08 within 128 cycles.
 Requested convergence on MAX density matrix=1.00D-06.
 Requested convergence on             energy=1.00D-06.
 No special actions if energy rises.

 Cycle   1  Pass 1  IDiag  1:
 E= -592.842550809809    
 DIIS: error= 3.49D-02 at cycle   1 NSaved=   1.
 NSaved= 1 IEnMin= 1 EnMin= -592.842550809809     IErMin= 1 ErrMin= 3.49D-02
 ErrMax= 3.49D-02  0.00D+00 EMaxC= 1.00D-01 BMatC= 1.32D-01 BMatP= 1.32D-01
 IDIUse=3 WtCom= 6.51D-01 WtEn= 3.49D-01
 Coeff-Com:  0.100D+01
 Coeff-En:   0.100D+01
 Coeff:      0.100D+01
 Gap=     0.632 Goal=   None    Shift=    0.000
 GapD=    0.632 DampG=2.000 DampE=0.500 DampFc=1.0000 IDamp=-1.
 RMSDP=7.17D-02 MaxDP=2.47D+00              OVMax= 3.81D-01

 Cycle   2  Pass 1  IDiag  1:
 E= -592.638222382027     Delta-E=        0.204328427783 Rises=F Damp=F
 DIIS: error= 5.00D-02 at cycle   2 NSaved=   2.
 NSaved= 2 IEnMin= 1 EnMin= -592.842550809809     IErMin= 1 ErrMin= 3.49D-02
 ErrMax= 5.00D-02  0.00D+00 EMaxC= 1.00D-01 BMatC= 3.01D-01 BMatP= 1.32D-01
 IDIUse=2 WtCom= 0.00D+00 WtEn= 1.00D+00
 Coeff-En:   0.687D+00 0.313D+00
 Coeff:      0.687D+00 0.313D+00
 Gap=     0.152 Goal=   None    Shift=    0.000
 RMSDP=7.03D-02 MaxDP=2.46D+00 DE= 2.04D-01 OVMax= 2.42D-01

 Cycle   3  Pass 1  IDiag  1:
 E= -592.983390332129     Delta-E=       -0.345167950102 Rises=F Damp=F
 DIIS: error= 8.03D-03 at cycle   3 NSaved=   3.
 NSaved= 3 IEnMin= 3 EnMin= -592.983390332129     IErMin= 3 ErrMin= 8.03D-03
 ErrMax= 8.03D-03  0.00D+00 EMaxC= 1.00D-01 BMatC= 1.06D-02 BMatP= 1.32D-01
 IDIUse=3 WtCom= 9.20D-01 WtEn= 8.03D-02
 Coeff-Com:  0.274D+00 0.110D+00 0.616D+00
 Coeff-En:   0.000D+00 0.000D+00 0.100D+01
 Coeff:      0.252D+00 0.101D+00 0.647D+00
 Gap=     0.183 Goal=   None    Shift=    0.000
 RMSDP=2.49D-03 MaxDP=4.22D-02 DE=-3.45D-01 OVMax= 5.10D-02

 Cycle   4  Pass 1  IDiag  1:
 E= -592.988318242059     Delta-E=       -0.004927909930 Rises=F Damp=F
 DIIS: error= 1.22D-02 at cycle   4 NSaved=   4.
 NSaved= 4 IEnMin= 4 EnMin= -592.988318242059     IErMin= 3 ErrMin= 8.03D-03
 ErrMax= 1.22D-02  0.00D+00 EMaxC= 1.00D-01 BMatC= 7.05D-03 BMatP= 1.06D-02
 IDIUse=3 WtCom= 8.78D-01 WtEn= 1.22D-01
 Coeff-Com:  0.509D-01-0.231D-01 0.486D+00 0.486D+00
 Coeff-En:   0.000D+00 0.000D+00 0.378D+00 0.622D+00
 Coeff:      0.447D-01-0.203D-01 0.473D+00 0.502D+00
 Gap=     0.173 Goal=   None    Shift=    0.000
 RMSDP=9.14D-04 MaxDP=1.51D-02 DE=-4.93D-03 OVMax= 2.95D-02

 Cycle   5  Pass 1  IDiag  1:
 E= -592.994680083067     Delta-E=       -0.006361841009 Rises=F Damp=F
 DIIS: error= 2.49D-03 at cycle   5 NSaved=   5.
 NSaved= 5 IEnMin= 5 EnMin= -592.994680083067     IErMin= 5 ErrMin= 2.49D-03
 ErrMax= 2.49D-03  0.00D+00 EMaxC= 1.00D-01 BMatC= 2.69D-04 BMatP= 7.05D-03
 IDIUse=3 WtCom= 9.75D-01 WtEn= 2.49D-02
 Coeff-Com:  0.162D-01-0.112D-01 0.218D+00 0.274D+00 0.503D+00
 Coeff-En:   0.000D+00 0.000D+00 0.000D+00 0.000D+00 0.100D+01
 Coeff:      0.158D-01-0.109D-01 0.213D+00 0.267D+00 0.515D+00
 Gap=     0.176 Goal=   None    Shift=    0.000
 RMSDP=2.56D-04 MaxDP=4.01D-03 DE=-6.36D-03 OVMax= 6.50D-03

 Cycle   6  Pass 1  IDiag  1:
 E= -592.994920044050     Delta-E=       -0.000239960983 Rises=F Damp=F
 DIIS: error= 8.35D-04 at cycle   6 NSaved=   6.
 NSaved= 6 IEnMin= 6 EnMin= -592.994920044050     IErMin= 6 ErrMin= 8.35D-04
 ErrMax= 8.35D-04  0.00D+00 EMaxC= 1.00D-01 BMatC= 2.84D-05 BMatP= 2.69D-04
 IDIUse=3 WtCom= 9.92D-01 WtEn= 8.35D-03
 Coeff-Com:  0.295D-02-0.567D-02 0.591D-01 0.752D-01 0.269D+00 0.600D+00
 Coeff-En:   0.000D+00 0.000D+00 0.000D+00 0.000D+00 0.823D-01 0.918D+00
 Coeff:      0.292D-02-0.562D-02 0.586D-01 0.746D-01 0.267D+00 0.602D+00
 Gap=     0.176 Goal=   None    Shift=    0.000
 RMSDP=6.87D-05 MaxDP=1.21D-03 DE=-2.40D-04 OVMax= 1.61D-03

 Cycle   7  Pass 1  IDiag  1:
 E= -592.994947369875     Delta-E=       -0.000027325825 Rises=F Damp=F
 DIIS: error= 6.36D-05 at cycle   7 NSaved=   7.
 NSaved= 7 IEnMin= 7 EnMin= -592.994947369875     IErMin= 7 ErrMin= 6.36D-05
 ErrMax= 6.36D-05  0.00D+00 EMaxC= 1.00D-01 BMatC= 3.87D-07 BMatP= 2.84D-05
 IDIUse=1 WtCom= 1.00D+00 WtEn= 0.00D+00
 Coeff-Com:  0.336D-03-0.822D-03 0.278D-02 0.220D-02 0.426D-01 0.179D+00
 Coeff-Com:  0.774D+00
 Coeff:      0.336D-03-0.822D-03 0.278D-02 0.220D-02 0.426D-01 0.179D+00
 Coeff:      0.774D+00
 Gap=     0.176 Goal=   None    Shift=    0.000
 RMSDP=1.29D-05 MaxDP=2.22D-04 DE=-2.73D-05 OVMax= 2.57D-04

 Cycle   8  Pass 1  IDiag  1:
 E= -592.994947824751     Delta-E=       -0.000000454876 Rises=F Damp=F
 DIIS: error= 8.87D-06 at cycle   8 NSaved=   8.
 NSaved= 8 IEnMin= 8 EnMin= -592.994947824751     IErMin= 8 ErrMin= 8.87D-06
 ErrMax= 8.87D-06  0.00D+00 EMaxC= 1.00D-01 BMatC= 1.35D-08 BMatP= 3.87D-07
 IDIUse=1 WtCom= 1.00D+00 WtEn= 0.00D+00
 Coeff-Com:  0.873D-04-0.115D-03 0.395D-04 0.185D-03 0.898D-02 0.412D-01
 Coeff-Com:  0.230D+00 0.720D+00
 Coeff:      0.873D-04-0.115D-03 0.395D-04 0.185D-03 0.898D-02 0.412D-01
 Coeff:      0.230D+00 0.720D+00
 Gap=     0.176 Goal=   None    Shift=    0.000
 RMSDP=2.20D-06 MaxDP=5.80D-05 DE=-4.55D-07 OVMax= 4.59D-05

 Cycle   9  Pass 1  IDiag  1:
 E= -592.994947839061     Delta-E=       -0.000000014310 Rises=F Damp=F
 DIIS: error= 2.91D-06 at cycle   9 NSaved=   9.
 NSaved= 9 IEnMin= 9 EnMin= -592.994947839061     IErMin= 9 ErrMin= 2.91D-06
 ErrMax= 2.91D-06  0.00D+00 EMaxC= 1.00D-01 BMatC= 1.41D-09 BMatP= 1.35D-08
 IDIUse=1 WtCom= 1.00D+00 WtEn= 0.00D+00
 Coeff-Com: -0.728D-05 0.776D-05-0.143D-03 0.997D-04 0.132D-02 0.525D-02
 Coeff-Com:  0.404D-01 0.282D+00 0.671D+00
 Coeff:     -0.728D-05 0.776D-05-0.143D-03 0.997D-04 0.132D-02 0.525D-02
 Coeff:      0.404D-01 0.282D+00 0.671D+00
 Gap=     0.176 Goal=   None    Shift=    0.000
 RMSDP=6.58D-07 MaxDP=1.91D-05 DE=-1.43D-08 OVMax= 1.13D-05

 Cycle  10  Pass 1  IDiag  1:
 E= -592.994947840595     Delta-E=       -0.000000001534 Rises=F Damp=F
 DIIS: error= 4.48D-07 at cycle  10 NSaved=  10.
 NSaved=10 IEnMin=10 EnMin= -592.994947840595     IErMin=10 ErrMin= 4.48D-07
 ErrMax= 4.48D-07  0.00D+00 EMaxC= 1.00D-01 BMatC= 2.52D-11 BMatP= 1.41D-09
 IDIUse=1 WtCom= 1.00D+00 WtEn= 0.00D+00
 Coeff-Com: -0.735D-05 0.637D-05-0.130D-04 0.424D-04 0.146D-04-0.517D-03
 Coeff-Com: -0.139D-02 0.252D-01 0.151D+00 0.826D+00
 Coeff:     -0.735D-05 0.637D-05-0.130D-04 0.424D-04 0.146D-04-0.517D-03
 Coeff:     -0.139D-02 0.252D-01 0.151D+00 0.826D+00
 Gap=     0.176 Goal=   None    Shift=    0.000
 RMSDP=1.51D-07 MaxDP=3.33D-06 DE=-1.53D-09 OVMax= 1.89D-06

 Cycle  11  Pass 1  IDiag  1:
 E= -592.994947840628     Delta-E=       -0.000000000033 Rises=F Damp=F
 DIIS: error= 4.65D-08 at cycle  11 NSaved=  11.
 NSaved=11 IEnMin=11 EnMin= -592.994947840628     IErMin=11 ErrMin= 4.65D-08
 ErrMax= 4.65D-08  0.00D+00 EMaxC= 1.00D-01 BMatC= 2.37D-13 BMatP= 2.52D-11
 IDIUse=1 WtCom= 1.00D+00 WtEn= 0.00D+00
 Coeff-Com: -0.106D-05 0.603D-06-0.740D-05-0.989D-05-0.473D-04-0.143D-03
 Coeff-Com: -0.236D-03-0.218D-02 0.488D-02 0.699D-01 0.928D+00
 Coeff:     -0.106D-05 0.603D-06-0.740D-05-0.989D-05-0.473D-04-0.143D-03
 Coeff:     -0.236D-03-0.218D-02 0.488D-02 0.699D-01 0.928D+00
 Gap=     0.176 Goal=   None    Shift=    0.000
 RMSDP=3.01D-08 MaxDP=5.62D-07 DE=-3.30D-11 OVMax= 3.46D-07

 Cycle  12  Pass 1  IDiag  1:
 E= -592.994947840627     Delta-E=        0.000000000001 Rises=F Damp=F
 DIIS: error= 6.04D-09 at cycle  12 NSaved=  12.
 NSaved=12 IEnMin=11 EnMin= -592.994947840628     IErMin=12 ErrMin= 6.04D-09
 ErrMax= 6.04D-09  0.00D+00 EMaxC= 1.00D-01 BMatC= 3.48D-15 BMatP= 2.37D-13
 IDIUse=1 WtCom= 1.00D+00 WtEn= 0.00D+00
 Coeff-Com: -0.564D-07 0.145D-07-0.915D-06-0.210D-05-0.866D-05-0.188D-04
 Coeff-Com: -0.384D-04-0.824D-03-0.207D-02-0.117D-02 0.116D+00 0.888D+00
 Coeff:     -0.564D-07 0.145D-07-0.915D-06-0.210D-05-0.866D-05-0.188D-04
 Coeff:     -0.384D-04-0.824D-03-0.207D-02-0.117D-02 0.116D+00 0.888D+00
 Gap=     0.176 Goal=   None    Shift=    0.000
 RMSDP=1.82D-09 MaxDP=3.33D-08 DE= 6.82D-13 OVMax= 3.87D-08

 SCF Done:  E(RB3LYP) =  -592.994947841     A.U. after   12 cycles
            NFock= 12  Conv=0.18D-08     -V/T= 2.0046
 KE= 5.902972974043D+02 PE=-1.627722318906D+03 EE= 3.353455954115D+02
 Leave Link  502 at Sun Oct 13 09:52:15 2024, MaxMem=  2684354560 cpu:              40.1 elap:               1.8
 (Enter /usr/local/g16_AVX//g16/l801.exe)
 DoSCS=F DFT=T ScalE2(SS,OS)=  1.000000  1.000000
 Range of M.O.s used for correlation:     1    98
 NBasis=    98 NAE=    20 NBE=    20 NFC=     0 NFV=     0
 NROrb=     98 NOA=    20 NOB=    20 NVA=    78 NVB=    78

 **** Warning!!: The largest alpha MO coefficient is  0.30847642D+02

 Leave Link  801 at Sun Oct 13 09:52:15 2024, MaxMem=  2684354560 cpu:               0.5 elap:               0.0
 (Enter /usr/local/g16_AVX//g16/l1101.exe)
 Using compressed storage, NAtomX=     7.
 Will process      8 centers per pass.
 Leave Link 1101 at Sun Oct 13 09:52:15 2024, MaxMem=  2684354560 cpu:               3.6 elap:               0.2
 (Enter /usr/local/g16_AVX//g16/l1102.exe)
 Symmetrizing basis deriv contribution to polar:
 IMax=3 JMax=2 DiffMx= 0.00D+00
 Leave Link 1102 at Sun Oct 13 09:52:15 2024, MaxMem=  2684354560 cpu:               0.4 elap:               0.0
 (Enter /usr/local/g16_AVX//g16/l1110.exe)
 Forming Gx(P) for the SCF density, NAtomX=     7.
 Integral derivatives from FoFJK, PRISM(SPDF).
 Do as many integral derivatives as possible in FoFJK.
 G2DrvN: MDV=    2684353864.
 G2DrvN: will do     8 centers at a time, making    1 passes.
 Calling FoFCou, ICntrl=  3107 FMM=F I1Cent=   0 AccDes= 0.00D+00.
 FoFJK:  IHMeth= 1 ICntrl=    3107 DoSepK=F KAlg= 0 I1Cent=           0 FoldK=F
 IRaf=         0 NMat=       1 IRICut=       1 DoRegI=T DoRafI=F ISym2E= 0 IDoP0=0 IntGTp=1.
 FoFCou: FMM=F IPFlag=           0 FMFlag=      100000 FMFlg1=           0
         NFxFlg=           0 DoJE=F BraDBF=F KetDBF=F FulRan=T
         wScrn=  0.000000 ICntrl=      3107 IOpCl=  0 I1Cent=           0 NGrid=           0
         NMat0=    1 NMatS0=      1 NMatT0=    0 NMatD0=    1 NMtDS0=    0 NMtDT0=    0
 Symmetry not used in FoFCou.
 End of G2Drv F.D. properties file   721 does not exist.
 End of G2Drv F.D. properties file   722 does not exist.
 End of G2Drv F.D. properties file   788 does not exist.
 Leave Link 1110 at Sun Oct 13 09:52:17 2024, MaxMem=  2684354560 cpu:              46.0 elap:               1.8
 (Enter /usr/local/g16_AVX//g16/l1002.exe)
 Minotr:  Closed shell wavefunction.
          IDoAtm=1111111
          Direct CPHF calculation.
          Differentiating once with respect to electric field.
                with respect to dipole field.
          Differentiating once with respect to nuclear coordinates.
          Requested convergence is 1.0D-08 RMS, and 1.0D-07 maximum.
          Secondary convergence is 1.0D-12 RMS, and 1.0D-12 maximum.
          NewPWx=T KeepS1=F KeepF1=F KeepIn=T MapXYZ=F SortEE=F KeepMc=T.
         2136 words used for storage of precomputed grid.
 Keep R1 ints in memory in canonical form, NReq=35668397.
 FoFCou: FMM=F IPFlag=           0 FMFlag=           0 FMFlg1=           0
         NFxFlg=           0 DoJE=F BraDBF=F KetDBF=F FulRan=T
         wScrn=  0.000000 ICntrl=       600 IOpCl=  0 I1Cent=           0 NGrid=           0
         NMat0=    1 NMatS0=   4851 NMatT0=    0 NMatD0=    1 NMtDS0=    0 NMtDT0=    0
 Symmetry not used in FoFCou.
 Two-electron integral symmetry not used.
          MDV=    2684354560 using IRadAn=       1.
          Solving linear equations simultaneously, MaxMat=       0.
          There are    24 degrees of freedom in the 1st order CPHF.  IDoFFX=6 NUNeed=     3.
     21 vectors produced by pass  0 Test12= 6.50D-15 4.17D-09 XBig12= 7.96D+01 4.29D+00.
 AX will form    21 AO Fock derivatives at one time.
     21 vectors produced by pass  1 Test12= 6.50D-15 4.17D-09 XBig12= 4.69D+01 2.20D+00.
     21 vectors produced by pass  2 Test12= 6.50D-15 4.17D-09 XBig12= 1.49D+00 3.28D-01.
     21 vectors produced by pass  3 Test12= 6.50D-15 4.17D-09 XBig12= 3.47D-02 5.81D-02.
     21 vectors produced by pass  4 Test12= 6.50D-15 4.17D-09 XBig12= 8.79D-05 2.43D-03.
     16 vectors produced by pass  5 Test12= 6.50D-15 4.17D-09 XBig12= 1.78D-07 9.26D-05.
      6 vectors produced by pass  6 Test12= 6.50D-15 4.17D-09 XBig12= 1.97D-10 3.32D-06.
      1 vectors produced by pass  7 Test12= 6.50D-15 4.17D-09 XBig12= 2.49D-13 1.42D-07.
      1 vectors produced by pass  8 Test12= 6.50D-15 4.17D-09 XBig12= 4.00D-16 5.08D-09.
 InvSVY:  IOpt=1 It=  1 EMax= 1.24D-14
 Solved reduced A of dimension   129 with    24 vectors.
 FullF1:  Do perturbations      1 to       3.
 Isotropic polarizability for W=    0.000000       55.89 Bohr**3.
 End of Minotr F.D. properties file   721 does not exist.
 End of Minotr F.D. properties file   722 does not exist.
 End of Minotr F.D. properties file   788 does not exist.
 Leave Link 1002 at Sun Oct 13 09:52:20 2024, MaxMem=  2684354560 cpu:              67.1 elap:               2.7
 (Enter /usr/local/g16_AVX//g16/l601.exe)
 Copying SCF densities to generalized density rwf, IOpCl= 0 IROHF=0.

 **********************************************************************

            Population analysis using the SCF Density.

 **********************************************************************

 Alpha  occ. eigenvalues -- -101.41419 -14.09386 -10.10366  -9.95961  -9.33037
 Alpha  occ. eigenvalues --   -7.09345  -7.08499  -7.08499  -0.71974  -0.64674
 Alpha  occ. eigenvalues --   -0.54226  -0.31032  -0.31023  -0.28025  -0.18207
 Alpha  occ. eigenvalues --   -0.17841  -0.17841  -0.09589  -0.09589  -0.06838
 Alpha virt. eigenvalues --    0.10766   0.12522   0.14376   0.14380   0.17318
 Alpha virt. eigenvalues --    0.20080   0.20169   0.20169   0.21980   0.21996
 Alpha virt. eigenvalues --    0.23907   0.24814   0.24824   0.26940   0.27664
 Alpha virt. eigenvalues --    0.27673   0.31270   0.33137   0.33161   0.35975
 Alpha virt. eigenvalues --    0.38533   0.38546   0.38875   0.46326   0.47796
 Alpha virt. eigenvalues --    0.64066   0.72561   0.74193   0.74197   0.77049
 Alpha virt. eigenvalues --    0.77067   0.87247   0.89687   0.89691   0.97092
 Alpha virt. eigenvalues --    0.99075   0.99079   1.04159   1.04166   1.07944
 Alpha virt. eigenvalues --    1.09175   1.09185   1.12333   1.18922   1.18930
 Alpha virt. eigenvalues --    1.21113   1.26571   1.37285   1.45984   1.59821
 Alpha virt. eigenvalues --    1.59828   1.72875   1.78300   1.78301   1.80484
 Alpha virt. eigenvalues --    1.80486   2.15430   2.20246   2.20251   2.21342
 Alpha virt. eigenvalues --    2.21399   2.29274   2.48428   2.48460   2.67905
 Alpha virt. eigenvalues --    2.81149   2.83554   2.83557   2.94991   2.95027
 Alpha virt. eigenvalues --    3.25507   3.37836   3.55210   3.55292   4.20642
 Alpha virt. eigenvalues --    4.40827   4.45318   4.56847
          Condensed to atoms (all electrons):
               1          2          3          4          5          6
     1  C    5.335578  -0.008855   0.409441   0.409536   0.409500  -0.114379
     2  Cl  -0.008855  17.299347  -0.047083  -0.047739  -0.047772   0.045974
     3  H    0.409441  -0.047083   0.505896  -0.022847  -0.022807  -0.038464
     4  H    0.409536  -0.047739  -0.022847   0.506249  -0.022911  -0.037490
     5  H    0.409500  -0.047772  -0.022807  -0.022911   0.506298  -0.037443
     6  C   -0.114379   0.045974  -0.038464  -0.037490  -0.037443   6.042491
     7  N   -0.001715  -0.001511   0.000883   0.000822   0.000821   0.656465
               7
     1  C   -0.001715
     2  Cl  -0.001511
     3  H    0.000883
     4  H    0.000822
     5  H    0.000821
     6  C    0.656465
     7  N    6.839290
 Mulliken charges:
               1
     1  C   -0.439105
     2  Cl  -0.192362
     3  H    0.214981
     4  H    0.214381
     5  H    0.214315
     6  C   -0.517154
     7  N   -0.495057
 Sum of Mulliken charges =  -1.00000
 Mulliken charges with hydrogens summed into heavy atoms:
               1
     1  C    0.204572
     2  Cl  -0.192362
     6  C   -0.517154
     7  N   -0.495057
 APT charges:
               1
     1  C    0.566377
     2  Cl  -0.609757
     3  H    0.017810
     4  H    0.017507
     5  H    0.017411
     6  C   -0.393512
     7  N   -0.615836
 Sum of APT charges =  -1.00000
 APT charges with hydrogens summed into heavy atoms:
               1
     1  C    0.619105
     2  Cl  -0.609757
     6  C   -0.393512
     7  N   -0.615836
 Electronic spatial extent (au):  <R**2>=            928.3485
 Charge=             -1.0000 electrons
 Dipole moment (field-independent basis, Debye):
    X=            -10.6117    Y=              0.0000    Z=              0.0067  Tot=             10.6117
 Quadrupole moment (field-independent basis, Debye-Ang):
   XX=            -92.8478   YY=            -35.4638   ZZ=            -35.4632
   XY=              0.0008   XZ=              0.0064   YZ=             -0.0002
 Traceless Quadrupole moment (field-independent basis, Debye-Ang):
   XX=            -38.2562   YY=             19.1278   ZZ=             19.1284
   XY=              0.0008   XZ=              0.0064   YZ=             -0.0002
 Octapole moment (field-independent basis, Debye-Ang**2):
  XXX=           -202.6673  YYY=             -0.0068  ZZZ=             -0.8617  XYY=            -12.6417
  XXY=             -0.0012  XXZ=             -0.0145  XZZ=            -12.6400  YZZ=              0.0057
  YYZ=              0.8853  XYZ=              0.0004
 Hexadecapole moment (field-independent basis, Debye-Ang**3):
 XXXX=          -2058.4832 YYYY=            -56.2254 ZZZZ=            -56.2221 XXXY=              0.0004
 XXXZ=              0.0384 YYYX=             -0.0022 YYYZ=             -0.0004 ZZZX=              0.1100
 ZZZY=             -0.0007 XXYY=           -240.3511 XXZZ=           -240.3500 YYZZ=            -18.7368
 XXYZ=              0.0001 YYXZ=              0.0495 ZZXY=             -0.0006
 N-N= 1.090844782500D+02 E-N=-1.627722318751D+03  KE= 5.902972974043D+02
  Exact polarizability:  87.316   0.003  40.174   0.035   0.001  40.167
 Approx polarizability: 107.698   0.005  49.891   0.079   0.001  49.882
 No NMR shielding tensors so no spin-rotation constants.
 Leave Link  601 at Sun Oct 13 09:52:20 2024, MaxMem=  2684354560 cpu:               2.8 elap:               0.1
 (Enter /usr/local/g16_AVX//g16/l701.exe)
 ... and contract with generalized density number  0.
 Compute integral second derivatives.
 Leave Link  701 at Sun Oct 13 09:52:20 2024, MaxMem=  2684354560 cpu:               4.6 elap:               0.2
 (Enter /usr/local/g16_AVX//g16/l702.exe)
 L702 exits ... SP integral derivatives will be done elsewhere.
 Leave Link  702 at Sun Oct 13 09:52:20 2024, MaxMem=  2684354560 cpu:               0.4 elap:               0.0
 (Enter /usr/local/g16_AVX//g16/l703.exe)
 Integral derivatives from FoFJK, PRISM(SPDF).
 Compute integral second derivatives, UseDBF=F ICtDFT=           0.
 Calling FoFJK, ICntrl=    100127 FMM=F ISym2X=0 I1Cent= 0 IOpClX= 0 NMat=1 NMatS=1 NMatT=0.
 FoFJK:  IHMeth= 1 ICntrl=  100127 DoSepK=F KAlg= 0 I1Cent=           0 FoldK=F
 IRaf=         0 NMat=       1 IRICut=       1 DoRegI=T DoRafI=F ISym2E= 0 IDoP0=0 IntGTp=1.
 FoFCou: FMM=F IPFlag=           0 FMFlag=      100000 FMFlg1=         800
         NFxFlg=           0 DoJE=F BraDBF=F KetDBF=F FulRan=T
         wScrn=  0.000000 ICntrl=    100127 IOpCl=  0 I1Cent=           0 NGrid=           0
         NMat0=    1 NMatS0=      1 NMatT0=    0 NMatD0=    1 NMtDS0=    0 NMtDT0=    0
 Symmetry not used in FoFCou.
 Leave Link  703 at Sun Oct 13 09:52:24 2024, MaxMem=  2684354560 cpu:              93.8 elap:               3.7
 (Enter /usr/local/g16_AVX//g16/l716.exe)
 Dipole        =-4.17496046D+00 3.96737333D-06 2.63555030D-03
 Polarizability= 8.73158295D+01 2.95969122D-03 4.01741750D+01
                 3.52676157D-02 5.60060039D-04 4.01671236D+01
 Full mass-weighted force constant matrix:
 Low frequencies ---  -63.3459  -63.0595  -33.3578  -33.1106    0.0040    0.0040
 Low frequencies ---    0.0052   84.3544   84.8976
 ******    2 imaginary frequencies (negative Signs) ****** 
 Diagonal vibrational polarizability:
       97.6553025      47.6981012      48.4091984
 Harmonic frequencies (cm**-1), IR intensities (KM/Mole), Raman scattering
 activities (A**4/AMU), depolarization ratios for plane and unpolarized
 incident light, reduced masses (AMU), force constants (mDyne/A),
 and normal coordinates:
                      1                      2                      3
                      A                      A                      A
 Frequencies --    -62.4405               -62.2148                82.5951
 Red. masses --      7.9341                 7.9810                 3.9140
 Frc consts  --      0.0182                 0.0182                 0.0157
 IR Inten    --      0.1831                 0.1715                11.9342
  Atom  AN      X      Y      Z        X      Y      Z        X      Y      Z
     1   6    -0.00  -0.05   0.27    -0.00   0.27   0.05    -0.00  -0.06   0.37
     2  17    -0.00   0.02  -0.12    -0.00  -0.12  -0.02    -0.00   0.02  -0.09
     3   1     0.21  -0.06   0.34     0.04   0.34   0.06     0.27  -0.08   0.47
     4   1    -0.08  -0.06   0.34    -0.20   0.34   0.06    -0.10  -0.07   0.45
     5   1    -0.14  -0.06   0.34     0.17   0.34   0.06    -0.18  -0.09   0.45
     6   6    -0.00  -0.09   0.50    -0.00   0.51   0.09     0.00   0.05  -0.29
     7   7     0.00   0.08  -0.45     0.00  -0.45  -0.08     0.00  -0.01   0.06
                      4                      5                      6
                      A                      A                      A
 Frequencies --     83.2324               127.6010               624.5097
 Red. masses --      3.9062                11.8123                 8.9658
 Frc consts  --      0.0159                 0.1133                 2.0602
 IR Inten    --     11.9390                49.9146               213.6762
  Atom  AN      X      Y      Z        X      Y      Z        X      Y      Z
     1   6    -0.00   0.37   0.06    -0.31   0.00  -0.00     0.70   0.00   0.00
     2  17     0.00  -0.09  -0.02    -0.28  -0.00   0.00    -0.28  -0.00  -0.00
     3   1     0.05   0.45   0.08    -0.28   0.00  -0.00     0.37   0.00  -0.09
     4   1    -0.26   0.46   0.09    -0.28  -0.00  -0.01     0.37   0.08   0.05
     5   1     0.21   0.46   0.06    -0.28   0.00  -0.01     0.37  -0.08   0.05
     6   6     0.00  -0.29  -0.05     0.54  -0.00   0.00     0.01   0.00  -0.00
     7   7    -0.00   0.06   0.01     0.55   0.00   0.00     0.01  -0.00   0.00
                      7                      8                      9
                      A                      A                      A
 Frequencies --   1007.9314              1008.7482              1323.8961
 Red. masses --      1.1535                 1.1533                 1.0996
 Frc consts  --      0.6905                 0.6914                 1.1355
 IR Inten    --      0.2783                 0.2813                16.7585
  Atom  AN      X      Y      Z        X      Y      Z        X      Y      Z
     1   6     0.00   0.01  -0.11    -0.00   0.11   0.01    -0.09   0.00   0.00
     2  17    -0.00  -0.00   0.02     0.00  -0.02  -0.00    -0.02  -0.00  -0.00
     3   1     0.77  -0.02   0.13    -0.07  -0.23  -0.01     0.55  -0.00   0.18
     4   1    -0.32  -0.06   0.21     0.69  -0.15   0.02     0.55  -0.16  -0.09
     5   1    -0.44   0.03   0.20    -0.63  -0.16  -0.06     0.55   0.16  -0.09
     6   6    -0.00  -0.00   0.00     0.00  -0.00  -0.00    -0.00   0.00   0.00
     7   7    -0.00   0.00  -0.00     0.00   0.00   0.00    -0.00   0.00   0.00
                     10                     11                     12
                      A                      A                      A
 Frequencies --   1462.1696              1462.7827              2147.5351
 Red. masses --      1.0608                 1.0608                12.8366
 Frc consts  --      1.3362                 1.3374                34.8803
 IR Inten    --      7.7312                 7.7784                17.5477
  Atom  AN      X      Y      Z        X      Y      Z        X      Y      Z
     1   6    -0.00  -0.07  -0.02    -0.00   0.02  -0.07    -0.00  -0.00   0.00
     2  17    -0.00  -0.00  -0.00    -0.00   0.00  -0.00     0.00   0.00   0.00
     3   1    -0.08   0.72  -0.04    -0.27  -0.21  -0.13    -0.01   0.00  -0.00
     4   1     0.27  -0.02  -0.22     0.07  -0.40   0.62    -0.01   0.00   0.00
     5   1    -0.19   0.19   0.52     0.20   0.34   0.40    -0.01  -0.00   0.00
     6   6     0.00  -0.00  -0.00    -0.00   0.00  -0.00     0.76  -0.00   0.00
     7   7    -0.00   0.00   0.00    -0.00  -0.00   0.00    -0.65   0.00  -0.00
                     13                     14                     15
                      A                      A                      A
 Frequencies --   3126.8354              3248.8069              3252.8531
 Red. masses --      1.0251                 1.1113                 1.1113
 Frc consts  --      5.9052                 6.9109                 6.9283
 IR Inten    --     12.8154                 0.3317                 0.3050
  Atom  AN      X      Y      Z        X      Y      Z        X      Y      Z
     1   6     0.04   0.00   0.00     0.00  -0.09  -0.02     0.00   0.02  -0.09
     2  17    -0.00  -0.00  -0.00    -0.00   0.00   0.00    -0.00  -0.00   0.00
     3   1    -0.15  -0.00   0.54    -0.05  -0.02   0.16    -0.24   0.00   0.77
     4   1    -0.16  -0.49  -0.28     0.22   0.63   0.37     0.07   0.21   0.10
     5   1    -0.16   0.48  -0.28    -0.18   0.50  -0.30     0.15  -0.45   0.24
     6   6     0.00  -0.00  -0.00     0.00   0.00   0.00     0.00  -0.00   0.00
     7   7     0.00   0.00   0.00     0.00  -0.00  -0.00     0.00   0.00  -0.00

 -------------------
 - Thermochemistry -
 -------------------
 Temperature   298.150 Kelvin.  Pressure   1.00000 Atm.
 Atom     1 has atomic number  6 and mass  12.00000
 Atom     2 has atomic number 17 and mass  34.96885
 Atom     3 has atomic number  1 and mass   1.00783
 Atom     4 has atomic number  1 and mass   1.00783
 Atom     5 has atomic number  1 and mass   1.00783
 Atom     6 has atomic number  6 and mass  12.00000
 Atom     7 has atomic number  7 and mass  14.00307
 Molecular mass:    75.99540 amu.
 Principal axes and moments of inertia in atomic units:
                           1         2         3
     Eigenvalues --    11.514341613.400031613.40319
           X            1.00000  -0.00000   0.00012
           Y            0.00000   1.00000   0.00107
           Z           -0.00012  -0.00107   1.00000
 This molecule is an asymmetric top.
 Rotational symmetry number  1.
 Rotational temperatures (Kelvin)      7.52226     0.05368     0.05368
 Rotational constants (GHZ):         156.73853     1.11859     1.11859
    2 imaginary frequencies ignored.
 Zero-point vibrational energy     113403.0 (Joules/Mol)
                                   27.10396 (Kcal/Mol)
 Warning -- explicit consideration of   3 degrees of freedom as
           vibrations may cause significant error
 Vibrational temperatures:    118.84   119.75   183.59   898.53  1450.19
          (Kelvin)           1451.36  1904.79  2103.74  2104.62  3089.82
                             4498.82  4674.31  4680.13
 
 Zero-point correction=                           0.043193 (Hartree/Particle)
 Thermal correction to Energy=                    0.048485
 Thermal correction to Enthalpy=                  0.049429
 Thermal correction to Gibbs Free Energy=         0.013758
 Sum of electronic and zero-point Energies=           -592.951755
 Sum of electronic and thermal Energies=              -592.946463
 Sum of electronic and thermal Enthalpies=            -592.945519
 Sum of electronic and thermal Free Energies=         -592.981190
 
                     E (Thermal)             CV                S
                      KCal/Mol        Cal/Mol-Kelvin    Cal/Mol-Kelvin
 Total                   30.425             13.840             75.075
 Electronic               0.000              0.000              0.000
 Translational            0.889              2.981             38.900
 Rotational               0.889              2.981             24.909
 Vibrational             28.647              7.879             11.267
 Vibration     1          0.600              1.961              3.828
 Vibration     2          0.600              1.961              3.813
 Vibration     3          0.611              1.926              2.982
                       Q            Log10(Q)             Ln(Q)
 Total Bot       0.469523D-06         -6.328343        -14.571549
 Total V=0       0.345939D+14         13.538999         31.174698
 Vib (Bot)       0.290947D-18        -18.536186        -42.681145
 Vib (Bot)    1  0.249239D+01          0.396616          0.913243
 Vib (Bot)    2  0.247305D+01          0.393234          0.905454
 Vib (Bot)    3  0.159863D+01          0.203748          0.469146
 Vib (V=0)       0.214366D+02          1.331157          3.065102
 Vib (V=0)    1  0.304205D+01          0.483166          1.112531
 Vib (V=0)    2  0.302309D+01          0.480452          1.106281
 Vib (V=0)    3  0.217500D+01          0.337459          0.777027
 Electronic      0.100000D+01          0.000000          0.000000
 Translational   0.260396D+08          7.415635         17.075130
 Rotational      0.619737D+05          4.792208         11.034466
 
                                                       RxCoord=4.19746 DE=45.37
                                                             IR Spectrum
 
     33   3                                      2                         1     1           1                                       
     22   1                                      1                         4     3           0              6                   1    
     54   2                                      4                         6     2           0              2                   28   
     39   7                                      8                         2     4           8              5                   83   
 
     XX   X                                      X                         X     X           X              X                   XX   
                                                 X                               X                          X                   XX   
                                                                                                            X                   X    
                                                                                                            X                   X    
                                                                                                            X                   X    
                                                                                                            X                        
                                                                                                            X                        
                                                                                                            X                        
                                                                                                            X                        
                                                                                                            X                        
                                                                                                            X                        
                                                                                                            X                        
                                                                                                            X                        
                                                                                                            X                        
                                                                                                            X                        
                                                                                                            X                        
                                                                                                            X                        
                                                                                                            X                        
                                                                                                            X                        
                                                                                                            X                        
 
 -------------------------------------------------------------------
 Center     Atomic                   Forces (Hartrees/Bohr)
 Number     Number              X              Y              Z
 -------------------------------------------------------------------
      1        6           0.005136661    0.000141906    0.000279906
      2       17          -0.011141838    0.000021990    0.000033517
      3        1           0.001348200   -0.000016017    0.000737521
      4        1           0.001143651   -0.000981214   -0.000567610
      5        1           0.001251429    0.000833343   -0.000493248
      6        6          -0.000311246    0.000000133    0.000007747
      7        7           0.002573143   -0.000000141    0.000002167
 -------------------------------------------------------------------
 Cartesian Forces:  Max     0.011141838 RMS     0.002801381
 Z-matrix is all fixed cartesians, so copy forces.
 Force constants in Cartesian coordinates: 
                1             2             3             4             5 
      1  0.262114D+00
      2 -0.704165D-04  0.597978D+00
      3 -0.572936D-03 -0.335205D-03  0.599266D+00
      4 -0.967666D-01  0.156319D-04 -0.450691D-04  0.181420D+00
      5  0.407843D-05 -0.334793D-01  0.000000D+00 -0.214500D-04  0.184775D-01
      6 -0.663507D-04  0.000000D+00 -0.334945D-01  0.133536D-03 -0.363586D-05
      7 -0.567336D-01 -0.190094D-03  0.848257D-01 -0.247713D-01 -0.455179D-04
      8 -0.189912D-03 -0.496293D-01  0.635902D-03  0.165036D-04  0.617449D-03
      9  0.837602D-01  0.644854D-03 -0.325858D+00 -0.590608D-02 -0.177394D-04
     10 -0.566913D-01 -0.727498D-01 -0.422428D-01 -0.246724D-01 -0.172792D-01
     11 -0.718133D-01 -0.255313D+00 -0.119330D+00  0.505022D-02  0.640489D-02
     12 -0.416872D-01 -0.119313D+00 -0.119070D+00  0.290763D-02  0.334648D-02
     13 -0.565839D-01  0.729929D-01 -0.419406D-01 -0.247172D-01  0.173439D-01
     14  0.720662D-01 -0.256843D+00  0.119029D+00 -0.506053D-02  0.643018D-02
     15 -0.413990D-01  0.119003D+00 -0.118111D+00  0.288669D-02 -0.332626D-02
     16 -0.619592D-03  0.129629D-05 -0.159201D-04 -0.479357D-02 -0.102288D-05
     17  0.410561D-05 -0.346206D-02 -0.113661D-05  0.000000D+00  0.184965D-02
     18 -0.607795D-04 -0.113289D-05 -0.348872D-02  0.483502D-04  0.000000D+00
     19  0.528052D-02  0.000000D+00 -0.836197D-05 -0.569896D-02  0.000000D+00
     20  0.000000D+00  0.748180D-03  0.000000D+00  0.000000D+00 -0.300388D-03
     21  0.260275D-04  0.000000D+00  0.756154D-03 -0.250536D-04  0.000000D+00
                6             7             8             9            10 
      6  0.184833D-01
      7  0.199692D-01  0.743244D-01
      8 -0.214483D-04  0.204021D-03  0.460239D-01
      9  0.837784D-02 -0.876024D-01 -0.668715D-03  0.338152D+00
     10 -0.100548D-01  0.443093D-02  0.744055D-02  0.431391D-02  0.741531D-01
     11  0.336799D-02  0.139397D-04  0.209796D-02  0.238016D-02  0.751631D-01
     12  0.255273D-02 -0.858855D-02 -0.251142D-01 -0.111369D-01  0.436605D-01
     13 -0.998796D-02  0.442916D-02 -0.746994D-02  0.428040D-02  0.442153D-02
     14 -0.334410D-02  0.181628D-04  0.200807D-02 -0.233277D-02  0.740709D-02
     15  0.252743D-02 -0.858459D-02  0.251739D-01 -0.110260D-01  0.431076D-02
     16  0.531005D-05 -0.192638D-02  0.000000D+00  0.494934D-03 -0.188543D-02
     17  0.000000D+00  0.000000D+00 -0.139678D-02 -0.731254D-05 -0.714173D-04
     18  0.185445D-02  0.849595D-04 -0.693446D-05  0.190054D-02 -0.406891D-04
     19  0.109524D-05  0.246718D-03 -0.104888D-05  0.659023D-03  0.243483D-03
     20  0.000000D+00  0.000000D+00  0.278601D-03  0.153112D-05  0.897537D-04
     21 -0.301299D-03 -0.104273D-03  0.145881D-05 -0.408827D-03  0.530938D-04
               11            12            13            14            15 
     11  0.263637D+00
     12  0.126263D+00  0.119464D+00
     13 -0.743859D-02  0.428174D-02  0.740902D-01
     14 -0.176641D-01  0.136842D-01 -0.754094D-01  0.265221D+00
     15 -0.138141D-01  0.864075D-02  0.433545D-01 -0.125910D+00  0.118429D+00
     16 -0.416545D-03 -0.243950D-03 -0.188198D-02  0.418469D-03 -0.241461D-03
     17  0.107433D-02  0.143317D-02  0.708244D-04  0.108787D-02 -0.142494D-02
     18  0.143441D-02 -0.549220D-03 -0.407818D-04 -0.142658D-02 -0.561697D-03
     19 -0.558878D-03 -0.330181D-03  0.242290D-03  0.560005D-03 -0.326925D-03
     20 -0.237703D-03 -0.299565D-03 -0.897307D-04 -0.240452D-03  0.297806D-03
     21 -0.301080D-03  0.989506D-04  0.527089D-04  0.299396D-03  0.101566D-03
               16            17            18            19            20 
     16  0.113576D+01
     17 -0.216819D-04  0.289352D-03
     18  0.288872D-02  0.000000D+00  0.291896D-03
     19 -0.112465D+01  0.196552D-04 -0.287978D-02  0.112433D+01
     20  0.196567D-04  0.557632D-03  0.000000D+00 -0.194506D-04 -0.805870D-03
     21 -0.288763D-02  0.000000D+00  0.552753D-03  0.288513D-02  0.000000D+00
               21 
     21 -0.799297D-03
 Leave Link  716 at Sun Oct 13 09:52:24 2024, MaxMem=  2684354560 cpu:               0.5 elap:               0.0
 (Enter /usr/local/g16_AVX//g16/l103.exe)

 GradGradGradGradGradGradGradGradGradGradGradGradGradGradGradGradGradGrad
 Berny optimization.
 Search for a local minimum.
 Step number   1 out of a maximum of    2
 All quantities printed in internal units (Hartrees-Bohrs-Radians)
 Second derivative matrix not updated -- analytic derivatives used.
 ITU=  0
     Eigenvalues ---   -0.00157  -0.00156   0.00132   0.00134   0.00707
     Eigenvalues ---    0.06245   0.06249   0.10950   0.10959   0.11615
     Eigenvalues ---    0.21957   0.49806   0.88415   0.88638   2.25370
 Eigenvalue     1 is  -1.57D-03 should be greater than     0.000000 Eigenvector:
                          Z6        Z7        Z2        Z4        Z5
   1                    0.60491  -0.59682  -0.21837   0.21191   0.21136
                          Z3        X3        Z1        X5        Y6
   1                    0.20964   0.18963   0.14893  -0.11927  -0.08660
 Eigenvalue     2 is  -1.56D-03 should be greater than     0.000000 Eigenvector:
                          Y6        Y7        Y2        Y3        Y5
   1                    0.60608  -0.59713  -0.21796   0.21114   0.20996
                          Y4        X4        X5        Y1        Z6
   1                    0.20959  -0.17745   0.15074   0.14832   0.08718
 Angle between quadratic step and forces=  69.34 degrees.
 Linear search not attempted -- first point.
 B after Tr=     0.001992    0.000107    0.001723
         Rot=    1.000000   -0.000000   -0.000089    0.000011 Ang=  -0.01 deg.
 Variable       Old X    -DE/DX   Delta X   Delta X   Delta X     New X
                                 (Linear)    (Quad)   (Total)
    X1       -0.75960   0.00514   0.00000  -0.04488  -0.04289  -0.80249
    Y1        0.00002   0.00014   0.00000  -0.00011   0.00002   0.00003
    Z1        0.00333   0.00028   0.00000  -0.00388  -0.00202   0.00131
    X2       -4.21571  -0.01114   0.00000  -0.09388  -0.09189  -4.30760
    Y2       -0.00002   0.00002   0.00000   0.00020   0.00041   0.00038
    Z2       -0.00021   0.00003   0.00000   0.00279   0.00528   0.00507
    X3       -0.12857   0.00135   0.00000  -0.04145  -0.03980  -0.16837
    Y3        0.00453  -0.00002   0.00000  -0.00026  -0.00015   0.00438
    Z3       -1.94704   0.00074   0.00000  -0.00280  -0.00105  -1.94809
    X4       -0.12955   0.00114   0.00000  -0.03753  -0.03533  -0.16487
    Y4        1.68817  -0.00098   0.00000  -0.00305  -0.00294   1.68523
    Z4        0.98350  -0.00057   0.00000  -0.00644  -0.00469   0.97881
    X5       -0.13084   0.00125   0.00000  -0.03656  -0.03444  -0.16527
    Y5       -1.69237   0.00083   0.00000   0.00254   0.00265  -1.68972
    Z5        0.97585  -0.00049   0.00000  -0.00642  -0.00467   0.97118
    X6        4.83341  -0.00031   0.00000   0.11913   0.12112   4.95453
    Y6        0.00003   0.00000   0.00000  -0.00002  -0.00002   0.00001
    Z6       -0.00483   0.00001   0.00000   0.00928   0.01012   0.00530
    X7        7.06450   0.00257   0.00000   0.12124   0.12323   7.18773
    Y7       -0.00001  -0.00000   0.00000   0.00009   0.00004   0.00003
    Z7        0.00091   0.00000   0.00000  -0.00342  -0.00298  -0.00207
         Item               Value     Threshold  Converged?
 Maximum Force            0.011142     0.000450     NO 
 RMS     Force            0.002801     0.000300     NO 
 Maximum Displacement     0.123229     0.001800     NO 
 RMS     Displacement     0.045961     0.001200     NO 
 Predicted change in Energy=-4.773723D-04
 GradGradGradGradGradGradGradGradGradGradGradGradGradGradGradGradGradGrad

 Leave Link  103 at Sun Oct 13 09:52:24 2024, MaxMem=  2684354560 cpu:               0.5 elap:               0.1
 (Enter /usr/local/g16_AVX//g16/l9999.exe)

 ----------------------------------------------------------------------

 Electric dipole moment (input orientation):
 (Debye = 10**-18 statcoulomb cm , SI units = C m)
                  (au)            (Debye)         (10**-30 SI)
   Tot        0.417496D+01      0.106117D+02      0.353968D+02
   x         -0.417496D+01     -0.106117D+02     -0.353968D+02
   y          0.000000D+00      0.000000D+00      0.000000D+00
   z          0.263555D-02      0.669890D-02      0.223451D-01

 Dipole polarizability, Alpha (input orientation).
 (esu units = cm**3 , SI units = C**2 m**2 J**-1)
 Alpha(0;0):
               (au)            (10**-24 esu)      (10**-40 SI)
   iso        0.558857D+02      0.828141D+01      0.921431D+01
   aniso      0.471452D+02      0.698620D+01      0.777320D+01
   xx         0.873158D+02      0.129389D+02      0.143964D+02
   yx         0.295969D-02      0.438581D-03      0.487987D-03
   yy         0.401742D+02      0.595320D+01      0.662383D+01
   zx         0.352676D-01      0.522612D-02      0.581484D-02
   zy         0.560060D-03      0.829923D-04      0.923414D-04
   zz         0.401671D+02      0.595215D+01      0.662266D+01

 ----------------------------------------------------------------------

 Dipole orientation:
     6          0.00285207          0.00001817          0.75960193
    17         -0.00286725         -0.00002857          4.21570778
     1         -1.94711662          0.00452951          0.12733649
     1          0.98342003          1.68816499          0.13016883
     1          0.97576640         -1.69236985          0.13144958
     6         -0.00177515          0.00003672         -4.83341317
     7          0.00536860          0.00000104         -7.06449914

 Electric dipole moment (dipole orientation):
 (Debye = 10**-18 statcoulomb cm , SI units = C m)
                  (au)            (Debye)         (10**-30 SI)
   Tot        0.417496D+01      0.106117D+02      0.353968D+02
   x          0.000000D+00      0.000000D+00      0.000000D+00
   y          0.000000D+00      0.000000D+00      0.000000D+00
   z          0.417496D+01      0.106117D+02      0.353968D+02

 Dipole polarizability, Alpha (dipole orientation).
 (esu units = cm**3 , SI units = C**2 m**2 J**-1)
 Alpha(0;0):
               (au)            (10**-24 esu)      (10**-40 SI)
   iso        0.558857D+02      0.828141D+01      0.921431D+01
   aniso      0.471452D+02      0.698620D+01      0.777320D+01
   xx         0.401672D+02      0.595216D+01      0.662267D+01
   yx         0.561997D-03      0.832793D-04      0.926607D-04
   yy         0.401742D+02      0.595320D+01      0.662383D+01
   zx        -0.650314D-01     -0.963666D-02     -0.107222D-01
   zy        -0.300407D-02     -0.445158D-03     -0.495305D-03
   zz         0.873158D+02      0.129389D+02      0.143964D+02

 ----------------------------------------------------------------------
 1\1\GINC-NODO11\Freq\RB3LYP\6-31++G(d,p)\C2H3Cl1N1(1-)\ALANQF\13-Oct-2
 024\0\\#p b3lyp 6-31++g(d,p) scf=verytight NoSymm freq=noraman int=ult
 rafine\\RxCoord=4.19746 DE=45.37\\-1,1\C,-0.401963,0.00001,0.001763\Cl
 ,-2.230857,-0.000013,-0.000109\H,-0.068034,0.002396,-1.030327\H,-0.068
 553,0.893339,0.520446\H,-0.069235,-0.895563,0.516398\C,2.557731,0.0000
 17,-0.002554\N,3.738373,-0.000003,0.000481\\Version=ES64L-G16RevB.01\H
 F=-592.9949478\RMSD=1.817e-09\RMSF=2.801e-03\ZeroPoint=0.0431929\Therm
 al=0.0484846\Dipole=-4.1278225,0.0000084,0.0027947\DipoleDeriv=1.57100
 66,0.0001265,0.0007132,-0.0000251,0.0645741,0.0000787,0.0012206,0.0000
 787,0.0635496,-1.2732995,-0.0000096,-0.0001439,-0.0000911,-0.2779745,0
 .0000102,-0.0007935,0.0000102,-0.2779978,-0.0233943,-0.0000084,0.00295
 4,-0.0000303,0.0838266,0.0001757,0.0252308,0.0001844,-0.0070035,-0.023
 6305,-0.003002,-0.0019618,-0.0222101,0.0152789,-0.0398366,-0.0132405,-
 0.0397894,0.0608738,-0.0239505,0.0029026,-0.0018878,0.0223106,0.014945
 7,0.0395636,-0.0131323,0.0395077,0.0612381,-0.2217688,-0.0000051,0.000
 9921,0.0000443,-0.4793968,0.0000099,0.0025859,0.00001,-0.4793695,-1.00
 49628,-0.000004,-0.0006659,0.0000016,-0.421254,-0.0000015,-0.001871,-0
 .0000016,-0.4212907\Polar=87.3158295,0.0029597,40.174175,0.0352676,0.0
 005601,40.1671236\Quadrupole=-28.442519,14.2210467,14.2214723,0.000565
 8,0.0047261,-0.0001738\PG=C01 [X(C2H3Cl1N1)]\NImag=2\\0.26211447,-0.00
 007042,0.59797805,-0.00057294,-0.00033521,0.59926601,-0.09676665,0.000
 01563,-0.00004507,0.18142005,0.00000408,-0.03347932,0.00000089,-0.0000
 2145,0.01847753,-0.00006635,0.00000093,-0.03349449,0.00013354,-0.00000
 364,0.01848334,-0.05673355,-0.00019009,0.08482567,-0.02477127,-0.00004
 552,0.01996915,0.07432439,-0.00018991,-0.04962925,0.00063590,0.0000165
 0,0.00061745,-0.00002145,0.00020402,0.04602395,0.08376019,0.00064485,-
 0.32585815,-0.00590608,-0.00001774,0.00837784,-0.08760237,-0.00066871,
 0.33815156,-0.05669126,-0.07274984,-0.04224278,-0.02467239,-0.01727924
 ,-0.01005478,0.00443093,0.00744055,0.00431391,0.07415313,-0.07181325,-
 0.25531264,-0.11933012,0.00505022,0.00640489,0.00336799,0.00001394,0.0
 0209796,0.00238016,0.07516310,0.26363723,-0.04168717,-0.11931278,-0.11
 907015,0.00290763,0.00334648,0.00255273,-0.00858855,-0.02511421,-0.011
 13692,0.04366048,0.12626271,0.11946387,-0.05658394,0.07299295,-0.04194
 061,-0.02471722,0.01734391,-0.00998796,0.00442916,-0.00746994,0.004280
 40,0.00442153,-0.00743859,0.00428174,0.07409016,0.07206623,-0.25684296
 ,0.11902942,-0.00506053,0.00643018,-0.00334410,0.00001816,0.00200807,-
 0.00233277,0.00740709,-0.01766408,0.01368420,-0.07540942,0.26522137,-0
 .04139898,0.11900308,-0.11811065,0.00288669,-0.00332626,0.00252743,-0.
 00858459,0.02517395,-0.01102604,0.00431076,-0.01381407,0.00864075,0.04
 335450,-0.12590957,0.11842864,-0.00061959,0.00000130,-0.00001592,-0.00
 479357,-0.00000102,0.00000531,-0.00192638,-0.00000017,0.00049493,-0.00
 188543,-0.00041655,-0.00024395,-0.00188198,0.00041847,-0.00024146,1.13
 575517,0.00000411,-0.00346206,-0.00000114,-0.00000059,0.00184965,0.000
 00033,-0.00000090,-0.00139678,-0.00000731,-0.00007142,0.00107433,0.001
 43317,0.00007082,0.00108787,-0.00142494,-0.00002168,0.00028935,-0.0000
 6078,-0.00000113,-0.00348872,0.00004835,0.00000034,0.00185445,0.000084
 96,-0.00000693,0.00190054,-0.00004069,0.00143441,-0.00054922,-0.000040
 78,-0.00142658,-0.00056170,0.00288872,-0.00000021,0.00029190,0.0052805
 2,0.00000048,-0.00000836,-0.00569896,-0.00000076,0.00000110,0.00024672
 ,-0.00000105,0.00065902,0.00024348,-0.00055888,-0.00033018,0.00024229,
 0.00056001,-0.00032693,-1.12464822,0.00001966,-0.00287978,1.12433416,-
 0.00000083,0.00074818,0.00000025,0.00000021,-0.00030039,-0.00000007,0.
 00000039,0.00027860,0.00000153,0.00008975,-0.00023770,-0.00029957,-0.0
 0008973,-0.00024045,0.00029781,0.00001966,0.00055763,0.00000010,-0.000
 01945,-0.00080587,0.00002603,0.00000025,0.00075615,-0.00002505,-0.0000
 0007,-0.00030130,-0.00010427,0.00000146,-0.00040883,0.00005309,-0.0003
 0108,0.00009895,0.00005271,0.00029940,0.00010157,-0.00288763,0.0000001
 0,0.00055275,0.00288513,-0.00000006,-0.00079930\\-0.00513666,-0.000141
 91,-0.00027991,0.01114184,-0.00002199,-0.00003352,-0.00134820,0.000016
 02,-0.00073752,-0.00114365,0.00098121,0.00056761,-0.00125143,-0.000833
 34,0.00049325,0.00031125,-0.00000013,-0.00000775,-0.00257314,0.0000001
 4,-0.00000217\\\@


 STEINBACH'S GUIDELINES FOR SYSTEMS PROGRAMMING:
 NEVER TEST FOR AN ERROR CONDITION YOU DON'T KNOW HOW
 TO HANDLE.
 Job cpu time:       0 days  0 hours  4 minutes 35.9 seconds.
 Elapsed time:       0 days  0 hours  0 minutes 11.6 seconds.
 File lengths (MBytes):  RWF=     88 Int=      0 D2E=      0 Chk=      2 Scr=      2
 Normal termination of Gaussian 16 at Sun Oct 13 09:52:24 2024.
