RxCoord=4.19746 DE=45.37                                                
Freq      RB3LYP                                                      6-31++G(d,p)        
Number of atoms                            I                7
Info1-9                                    I   N=           9
          16          16           0           0           0         100
           6          18        -502
Full Title                                 C   N=           2
RxCoord=4.19746 DE=45.37
Route                                      C   N=           6
#p b3lyp 6-31++g(d,p) scf=verytight NoSymm freq=noraman int=
ultrafine   
Charge                                     I               -1
Multiplicity                               I                1
Number of electrons                        I               40
Number of alpha electrons                  I               20
Number of beta electrons                   I               20
Number of basis functions                  I               98
Number of independent functions            I               98
Number of point charges in /Mol/           I                0
Number of translation vectors              I                0
Atomic numbers                             I   N=           7
           6          17           1           1           1           6
           7
Nuclear charges                            R   N=           7
  6.00000000E+00  1.70000000E+01  1.00000000E+00  1.00000000E+00  1.00000000E+00
  6.00000000E+00  7.00000000E+00
Current cartesian coordinates              R   N=          21
 -7.59599982E-01  1.88972612E-05  3.33158716E-03 -4.21570875E+00 -2.45664396E-05
 -2.05980148E-04 -1.28565627E-01  4.52778379E-03 -1.94703585E+00 -1.29546395E-01
  1.68816605E+00  9.83500403E-01 -1.30835188E-01 -1.69236880E+00  9.75850791E-01
  4.83341109E+00  3.21253441E-05 -4.82636052E-03  7.06450112E+00 -5.66917837E-06
  9.08958266E-04
Number of symbols in /Mol/                 I                0
Force Field                                I                0
Atom Types                                 C   N=           7
                                                            
                        
Int Atom Types                             I   N=           7
           0           0           0           0           0           0
           0
MM charges                                 R   N=           7
  0.00000000E+00  0.00000000E+00  0.00000000E+00  0.00000000E+00  0.00000000E+00
  0.00000000E+00  0.00000000E+00
Integer atomic weights                     I   N=           7
          12          35           1           1           1          12
          14
Real atomic weights                        R   N=           7
  1.20000000E+01  3.49688527E+01  1.00782504E+00  1.00782504E+00  1.00782504E+00
  1.20000000E+01  1.40030740E+01
Atom fragment info                         I   N=           7
           0           0           0           0           0           0
           0
Atom residue num                           I   N=           7
           0           0           0           0           0           0
           0
Nuclear spins                              I   N=           7
           0           3           1           1           1           0
           2
Nuclear ZEff                               R   N=           7
 -3.60000000E+00 -1.42400000E+01 -1.00000000E+00 -1.00000000E+00 -1.00000000E+00
 -3.60000000E+00 -4.55000000E+00
Nuclear ZNuc                               R   N=           7
  6.00000000E+00  1.70000000E+01  1.00000000E+00  1.00000000E+00  1.00000000E+00
  6.00000000E+00  7.00000000E+00
Nuclear QMom                               R   N=           7
  0.00000000E+00 -8.16500000E+00  0.00000000E+00  0.00000000E+00  0.00000000E+00
  0.00000000E+00  2.04400000E+00
Nuclear GFac                               R   N=           7
  0.00000000E+00  8.21874000E-01  2.79284600E+00  2.79284600E+00  2.79284600E+00
  0.00000000E+00  4.03761000E-01
MicOpt                                     I   N=           7
          -1          -1          -1          -1          -1          -1
          -1
Number of residues                         I                0
Number of secondary structures             I                0
Number of contracted shells                I               33
Number of primitive shells                 I               72
Pure/Cartesian d shells                    I                1
Pure/Cartesian f shells                    I                0
Highest angular momentum                   I                2
Largest degree of contraction              I                6
Shell types                                I   N=          33
           0          -1          -1          -1           2           0
          -1          -1          -1          -1           2           0
           0           0           1           0           0           0
           1           0           0           0           1           0
          -1          -1          -1           2           0          -1
          -1          -1           2
Number of primitives per shell             I   N=          33
           6           3           1           1           1           6
           6           3           1           1           1           3
           1           1           1           3           1           1
           1           3           1           1           1           6
           3           1           1           1           6           3
           1           1           1
Shell to atom map                          I   N=          33
           1           1           1           1           1           2
           2           2           2           2           2           3
           3           3           3           4           4           4
           4           5           5           5           5           6
           6           6           6           6           7           7
           7           7           7
Primitive exponents                        R   N=          72
  3.04752488E+03  4.57369518E+02  1.03948685E+02  2.92101553E+01  9.28666296E+00
  3.16392696E+00  7.86827235E+00  1.88128854E+00  5.44249258E-01  1.68714478E-01
  4.38000000E-02  8.00000000E-01  2.51801000E+04  3.78035000E+03  8.60474000E+02
  2.42145000E+02  7.73349000E+01  2.62470000E+01  4.91765000E+02  1.16984000E+02
  3.74153000E+01  1.37834000E+01  5.45215000E+00  2.22588000E+00  3.18649000E+00
  1.14427000E+00  4.20377000E-01  1.42657000E-01  4.83000000E-02  7.50000000E-01
  1.87311370E+01  2.82539436E+00  6.40121692E-01  1.61277759E-01  3.60000000E-02
  1.10000000E+00  1.87311370E+01  2.82539436E+00  6.40121692E-01  1.61277759E-01
  3.60000000E-02  1.10000000E+00  1.87311370E+01  2.82539436E+00  6.40121692E-01
  1.61277759E-01  3.60000000E-02  1.10000000E+00  3.04752488E+03  4.57369518E+02
  1.03948685E+02  2.92101553E+01  9.28666296E+00  3.16392696E+00  7.86827235E+00
  1.88128854E+00  5.44249258E-01  1.68714478E-01  4.38000000E-02  8.00000000E-01
  4.17351146E+03  6.27457911E+02  1.42902093E+02  4.02343293E+01  1.28202129E+01
  4.39043701E+00  1.16263619E+01  2.71627981E+00  7.72218397E-01  2.12031498E-01
  6.39000000E-02  8.00000000E-01
Contraction coefficients                   R   N=          72
  1.83473713E-03  1.40373228E-02  6.88426223E-02  2.32184443E-01  4.67941348E-01
  3.62311985E-01 -1.19332420E-01 -1.60854152E-01  1.14345644E+00  1.00000000E+00
  1.00000000E+00  1.00000000E+00  1.83295985E-03  1.40341988E-02  6.90973943E-02
  2.37451980E-01  4.83033960E-01  3.39855972E-01 -2.29739142E-03 -3.07137189E-02
 -1.12528069E-01  4.50163278E-02  5.89353363E-01  4.65206287E-01 -2.51828028E-01
  6.15892514E-02  1.06018433E+00  1.00000000E+00  1.00000000E+00  1.00000000E+00
  3.34946043E-02  2.34726953E-01  8.13757326E-01  1.00000000E+00  1.00000000E+00
  1.00000000E+00  3.34946043E-02  2.34726953E-01  8.13757326E-01  1.00000000E+00
  1.00000000E+00  1.00000000E+00  3.34946043E-02  2.34726953E-01  8.13757326E-01
  1.00000000E+00  1.00000000E+00  1.00000000E+00  1.83473713E-03  1.40373228E-02
  6.88426223E-02  2.32184443E-01  4.67941348E-01  3.62311985E-01 -1.19332420E-01
 -1.60854152E-01  1.14345644E+00  1.00000000E+00  1.00000000E+00  1.00000000E+00
  1.83477216E-03  1.39946270E-02  6.85865518E-02  2.32240873E-01  4.69069948E-01
  3.60455199E-01 -1.14961182E-01 -1.69117479E-01  1.14585195E+00  1.00000000E+00
  1.00000000E+00  1.00000000E+00
P(S=P) Contraction coefficients            R   N=          72
  0.00000000E+00  0.00000000E+00  0.00000000E+00  0.00000000E+00  0.00000000E+00
  0.00000000E+00  6.89990666E-02  3.16423961E-01  7.44308291E-01  1.00000000E+00
  1.00000000E+00  0.00000000E+00  0.00000000E+00  0.00000000E+00  0.00000000E+00
  0.00000000E+00  0.00000000E+00  0.00000000E+00  3.98940088E-03  3.03177067E-02
  1.29880029E-01  3.27951072E-01  4.53527100E-01  2.52154056E-01 -1.42993147E-02
  3.23572333E-01  7.43507765E-01  1.00000000E+00  1.00000000E+00  0.00000000E+00
  0.00000000E+00  0.00000000E+00  0.00000000E+00  0.00000000E+00  0.00000000E+00
  0.00000000E+00  0.00000000E+00  0.00000000E+00  0.00000000E+00  0.00000000E+00
  0.00000000E+00  0.00000000E+00  0.00000000E+00  0.00000000E+00  0.00000000E+00
  0.00000000E+00  0.00000000E+00  0.00000000E+00  0.00000000E+00  0.00000000E+00
  0.00000000E+00  0.00000000E+00  0.00000000E+00  0.00000000E+00  6.89990666E-02
  3.16423961E-01  7.44308291E-01  1.00000000E+00  1.00000000E+00  0.00000000E+00
  0.00000000E+00  0.00000000E+00  0.00000000E+00  0.00000000E+00  0.00000000E+00
  0.00000000E+00  6.75797439E-02  3.23907296E-01  7.40895140E-01  1.00000000E+00
  1.00000000E+00  0.00000000E+00
Coordinates of each shell                  R   N=          99
 -7.59599982E-01  1.88972612E-05  3.33158716E-03 -7.59599982E-01  1.88972612E-05
  3.33158716E-03 -7.59599982E-01  1.88972612E-05  3.33158716E-03 -7.59599982E-01
  1.88972612E-05  3.33158716E-03 -7.59599982E-01  1.88972612E-05  3.33158716E-03
 -4.21570875E+00 -2.45664396E-05 -2.05980148E-04 -4.21570875E+00 -2.45664396E-05
 -2.05980148E-04 -4.21570875E+00 -2.45664396E-05 -2.05980148E-04 -4.21570875E+00
 -2.45664396E-05 -2.05980148E-04 -4.21570875E+00 -2.45664396E-05 -2.05980148E-04
 -4.21570875E+00 -2.45664396E-05 -2.05980148E-04 -1.28565627E-01  4.52778379E-03
 -1.94703585E+00 -1.28565627E-01  4.52778379E-03 -1.94703585E+00 -1.28565627E-01
  4.52778379E-03 -1.94703585E+00 -1.28565627E-01  4.52778379E-03 -1.94703585E+00
 -1.29546395E-01  1.68816605E+00  9.83500403E-01 -1.29546395E-01  1.68816605E+00
  9.83500403E-01 -1.29546395E-01  1.68816605E+00  9.83500403E-01 -1.29546395E-01
  1.68816605E+00  9.83500403E-01 -1.30835188E-01 -1.69236880E+00  9.75850791E-01
 -1.30835188E-01 -1.69236880E+00  9.75850791E-01 -1.30835188E-01 -1.69236880E+00
  9.75850791E-01 -1.30835188E-01 -1.69236880E+00  9.75850791E-01  4.83341109E+00
  3.21253441E-05 -4.82636052E-03  4.83341109E+00  3.21253441E-05 -4.82636052E-03
  4.83341109E+00  3.21253441E-05 -4.82636052E-03  4.83341109E+00  3.21253441E-05
 -4.82636052E-03  4.83341109E+00  3.21253441E-05 -4.82636052E-03  7.06450112E+00
 -5.66917837E-06  9.08958266E-04  7.06450112E+00 -5.66917837E-06  9.08958266E-04
  7.06450112E+00 -5.66917837E-06  9.08958266E-04  7.06450112E+00 -5.66917837E-06
  9.08958266E-04  7.06450112E+00 -5.66917837E-06  9.08958266E-04
Num ILSW                                   I              100
ILSW                                       I   N=         100
           0           1           0           0           2           0
           0           0           0           0         402          -1
           5           0           0           0           2           0
           0           0           0           0           1           0
           1           1           0           0           0           0
           0           0      100000           0          -1           0
           0           0           0           0           0           0
           0           0           0           1           0           0
           0 -2000000000           1           0           0           0
           0           0           4          52           0           0
           0           0           5           0           0           0
           0           0           0           7           0           1
           0           0           0           0           0           0
           0           0           0           0           0           0
           0           0           0           0           0           0
           0           0           0           0           0           0
           0           0           0           0
Num RLSW                                   I               52
RLSW                                       R   N=          52
  8.00000000E-01  7.20000000E-01  1.00000000E+00  8.10000000E-01  2.00000000E-01
  0.00000000E+00  0.00000000E+00  1.00000000E+00  0.00000000E+00  0.00000000E+00
  0.00000000E+00  0.00000000E+00  1.00000000E+00  0.00000000E+00  0.00000000E+00
  0.00000000E+00  0.00000000E+00  1.00000000E+00  0.00000000E+00  0.00000000E+00
  0.00000000E+00  0.00000000E+00  1.00000000E+00  0.00000000E+00  0.00000000E+00
  0.00000000E+00  0.00000000E+00  1.00000000E+00  0.00000000E+00  0.00000000E+00
  0.00000000E+00  0.00000000E+00  1.00000000E+00  0.00000000E+00  0.00000000E+00
  0.00000000E+00  0.00000000E+00  0.00000000E+00  1.00000000E+00  1.00000000E+00
  0.00000000E+00  1.00000000E+00  0.00000000E+00  0.00000000E+00  0.00000000E+00
  0.00000000E+00  0.00000000E+00  0.00000000E+00  0.00000000E+00  0.00000000E+00
  0.00000000E+00  0.00000000E+00
MxBond                                     I                4
NBond                                      I   N=           7
           4           1           1           1           1           1
           1
IBond                                      I   N=          28
           2           3           4           5           1           0
           0           0           1           0           0           0
           1           0           0           0           1           0
           0           0           7           0           0           0
           6           0           0           0
RBond                                      R   N=          28
  1.00000000E+00  1.00000000E+00  1.00000000E+00  1.00000000E+00  1.00000000E+00
  0.00000000E+00  0.00000000E+00  0.00000000E+00  1.00000000E+00  0.00000000E+00
  0.00000000E+00  0.00000000E+00  1.00000000E+00  0.00000000E+00  0.00000000E+00
  0.00000000E+00  1.00000000E+00  0.00000000E+00  0.00000000E+00  0.00000000E+00
  2.00000000E+00  0.00000000E+00  0.00000000E+00  0.00000000E+00  2.00000000E+00
  0.00000000E+00  0.00000000E+00  0.00000000E+00
Virial Ratio                               R      2.004569986087055E+00
SCF Energy                                 R     -5.929949478406272E+02
Total Energy                               R     -5.929949478406272E+02
RMS Force                                  R      2.801381460138562E-03
RMS Density                                R      1.816560868533109E-09
NImag                                      I                2
Job Status                                 I                1
Nuclear derivative order                   I                2
External E-field                           R   N=          35
  0.00000000E+00  0.00000000E+00  0.00000000E+00  0.00000000E+00  0.00000000E+00
  0.00000000E+00  0.00000000E+00  0.00000000E+00  0.00000000E+00  0.00000000E+00
  0.00000000E+00  0.00000000E+00  0.00000000E+00  0.00000000E+00  0.00000000E+00
  0.00000000E+00  0.00000000E+00  0.00000000E+00  0.00000000E+00  0.00000000E+00
  0.00000000E+00  0.00000000E+00  0.00000000E+00  0.00000000E+00  0.00000000E+00
  0.00000000E+00  0.00000000E+00  0.00000000E+00  0.00000000E+00  0.00000000E+00
  0.00000000E+00  0.00000000E+00  0.00000000E+00  0.00000000E+00  0.00000000E+00
IOpCl                                      I                0
IROHF                                      I                0
Alpha Orbital Energies                     R   N=          98
 -1.01414190E+02 -1.40938641E+01 -1.01036648E+01 -9.95961332E+00 -9.33037201E+00
 -7.09345345E+00 -7.08498808E+00 -7.08498765E+00 -7.19739152E-01 -6.46739272E-01
 -5.42261899E-01 -3.10323391E-01 -3.10231070E-01 -2.80249616E-01 -1.82068468E-01
 -1.78414349E-01 -1.78408026E-01 -9.58890305E-02 -9.58883728E-02 -6.83840688E-02
  1.07658737E-01  1.25215699E-01  1.43755043E-01  1.43800045E-01  1.73179769E-01
  2.00799588E-01  2.01685638E-01  2.01687301E-01  2.19802156E-01  2.19959383E-01
  2.39073173E-01  2.48137015E-01  2.48238859E-01  2.69399415E-01  2.76641409E-01
  2.76733583E-01  3.12698556E-01  3.31367985E-01  3.31607173E-01  3.59747867E-01
  3.85334759E-01  3.85462284E-01  3.88750790E-01  4.63262856E-01  4.77961038E-01
  6.40658292E-01  7.25614340E-01  7.41934853E-01  7.41974160E-01  7.70487650E-01
  7.70667685E-01  8.72469668E-01  8.96868672E-01  8.96905484E-01  9.70922404E-01
  9.90748021E-01  9.90785516E-01  1.04159260E+00  1.04165724E+00  1.07943820E+00
  1.09174554E+00  1.09184667E+00  1.12332674E+00  1.18922064E+00  1.18929901E+00
  1.21112860E+00  1.26570539E+00  1.37284695E+00  1.45983746E+00  1.59820832E+00
  1.59828201E+00  1.72875282E+00  1.78300323E+00  1.78300692E+00  1.80483586E+00
  1.80485674E+00  2.15429660E+00  2.20245668E+00  2.20250696E+00  2.21342226E+00
  2.21399191E+00  2.29274115E+00  2.48427538E+00  2.48459671E+00  2.67904523E+00
  2.81149317E+00  2.83554071E+00  2.83556523E+00  2.94990982E+00  2.95027396E+00
  3.25506733E+00  3.37835565E+00  3.55209581E+00  3.55291891E+00  4.20641879E+00
  4.40827368E+00  4.45318124E+00  4.56847070E+00
Alpha MO coefficients                      R   N=        9604
 -6.58545472E-06  2.58029352E-05 -5.37973994E-05 -8.56058117E-09 -8.47386218E-08
  1.17031589E-04 -2.69911238E-05 -1.50732559E-08 -1.10217306E-07 -4.11255471E-05
 -6.06682834E-05  2.62274604E-08  1.46144979E-07 -2.18398163E-05  1.19565588E-05
  1.19876992E-05  8.45713960E-09 -3.33032778E-08 -1.21731961E-08  9.95996918E-01
  1.51505521E-02  4.06600419E-05  4.21193965E-09  5.25689645E-08 -2.10654300E-02
 -1.77455521E-05  2.59501010E-10 -1.19821467E-08  1.88822555E-03 -4.56196569E-05
 -2.58660041E-09 -6.35700229E-08 -3.89122966E-04 -1.89121950E-05 -1.90335907E-09
 -4.60906514E-08  7.50329693E-03  7.52447159E-03  7.52447342E-03  9.11894384E-10
 -2.39476329E-08 -1.75658596E-10 -2.77905547E-05 -3.38286267E-05  4.42427412E-05
  2.34491017E-05  2.82860063E-08 -1.23295658E-05 -2.77241647E-05 -3.36382948E-05
  4.37825052E-05  2.34970245E-05  1.06576115E-05  6.21381707E-06 -2.77764525E-05
 -3.36273292E-05  4.38511468E-05  2.34595974E-05 -1.06900659E-05  6.16843284E-06
 -1.31996674E-07  1.96748380E-06 -2.29987871E-07 -4.04254155E-10 -2.65668564E-08
 -1.00091187E-04 -7.55894793E-05  2.90902800E-09 -1.14505621E-07 -3.28137782E-05
 -6.43728422E-05  1.20803806E-09  1.12870722E-07 -8.82721324E-06  1.26246628E-06
  1.26359734E-06 -1.35069149E-10 -3.04488628E-08  1.82194149E-10 -1.62152668E-06
 -6.42638299E-06 -7.00186857E-07  2.21336453E-10 -1.97035878E-09  9.67472091E-05
 -5.47020625E-05  1.63823187E-10 -1.43170485E-07  9.45263031E-05  6.15202195E-06
 -8.46797914E-10 -1.85186041E-07  3.51883546E-06 -4.96984658E-06 -4.97019322E-06
 -7.09381657E-11  3.43704508E-08 -4.04445310E-12  3.94898471E-06  1.46538658E-05
  5.44988907E-06  6.69781480E-10 -3.20720417E-08 -3.75741368E-05 -4.11985873E-05
 -1.93994413E-08  3.47642896E-08  9.77918601E-04  1.15466684E-04  4.36644098E-08
 -1.20299218E-06  4.27774074E-06  9.81344951E-06  9.81000408E-06  6.85014827E-10
  8.00891138E-09 -2.44221797E-09  1.49869308E-07  2.59967317E-06 -1.07664443E-07
 -2.92465442E-10 -3.56876859E-09  6.87542418E-06  1.24136224E-06  1.62444692E-09
  2.12256073E-08 -6.59302780E-05 -3.15598564E-05 -4.11832922E-09 -1.08638428E-07
 -1.28232769E-04 -6.14362266E-05 -1.23234632E-08  5.72396607E-07  2.52774620E-06
  5.10637103E-06  5.10739094E-06 -2.84004199E-10 -6.84311941E-10 -4.55252150E-10
  1.04644647E-05 -4.29260082E-05 -1.62518894E-04  2.09244400E-06  6.38654872E-09
 -2.32378083E-06  1.04108894E-05 -4.26624363E-05 -1.63502258E-04  2.14058493E-06
  1.97367144E-06  1.14177669E-06  1.04058040E-05 -4.26871178E-05 -1.63377169E-04
  2.14876527E-06 -1.98255153E-06  1.13625135E-06  8.33576249E-05  2.09810188E-04
 -2.80138925E-04  4.52134761E-09 -6.99108221E-07 -2.39940261E-04 -4.20043917E-04
  6.57054438E-09 -1.19978239E-06  1.45577184E-03  9.97008223E-04  1.95231884E-08
  2.27691816E-06 -7.57342756E-04 -1.38104176E-05 -1.38140772E-05  1.40653662E-08
 -2.20903467E-06  2.72240058E-10  9.92699238E-01  3.44398678E-02 -1.39563907E-03
  2.32807534E-08 -3.58780810E-06  5.20106225E-03  1.10823245E-04  1.14122695E-09
  2.91393088E-07 -2.99103546E-03  6.12624471E-05 -2.07052703E-08  3.42897380E-07
 -7.70733249E-03 -8.42011372E-03 -8.42011049E-03 -1.40447562E-08  2.10443951E-06
  3.52479038E-11  9.92989037E-01  4.96269582E-02 -7.35805052E-04 -1.70635630E-07
  5.18338177E-07 -1.64507790E-02  9.52550298E-04  8.72170496E-07  2.21759991E-06
  6.94296362E-03 -3.52010234E-03 -4.28979041E-07 -2.44565998E-06 -9.27966634E-03
 -8.86908205E-03 -8.86916353E-03  4.62577605E-08 -2.25488503E-07 -1.95900812E-07
 -9.41400942E-06 -5.14211120E-05 -2.73178937E-06  1.53385764E-08  1.10725739E-08
 -2.19305270E-05  1.89870796E-04 -9.42503081E-08  1.11928691E-07  3.29186232E-03
  1.87747558E-03  3.37935185E-07  2.22025741E-06 -6.05491185E-03 -1.98117993E-03
 -1.71143791E-07 -2.94652325E-06 -1.39413675E-04 -1.80991140E-04 -1.81051403E-04
  5.13557297E-08  5.75363066E-08  3.70602640E-08 -1.59810333E-04  3.02045968E-03
 -9.72702931E-04  2.69262324E-05  1.06713545E-07 -9.52524663E-05 -1.60248661E-04
  3.01702405E-03 -9.70188526E-04  2.71908009E-05  8.34189358E-05  4.83595959E-05
 -1.60457318E-04  3.01893993E-03 -9.72676683E-04  2.72489896E-05 -8.35111430E-05
  4.77835543E-05 -1.99216771E-05 -4.13224083E-05  4.12027995E-05  4.80019520E-08
 -5.04595288E-07 -3.73893252E-04 -7.47168636E-04 -1.49353086E-07  8.14919577E-07
  2.04862036E-03  2.61706052E-04 -5.74604593E-07  3.51696516E-06 -6.03783294E-05
 -3.20175400E-05 -3.21107873E-05  1.37039968E-08 -2.86996358E-07 -6.75175941E-09
 -2.76600119E-05 -9.89253158E-05 -1.24769631E-05 -4.80651959E-09  2.29509330E-07
  1.07993811E-03 -3.17070479E-04  2.44447401E-08 -2.15885466E-06 -1.05833467E-03
 -5.42134769E-05  3.94580962E-07 -1.80154984E-07 -2.19113825E-05 -6.89210390E-05
 -6.89091986E-05 -1.53890541E-08  2.64321444E-07 -4.91182742E-11 -1.50396250E-05
 -7.10851364E-05 -7.77962899E-05  2.74215938E-10 -2.55596331E-08  5.03460408E-04
  4.22323883E-04 -1.24851243E-07  9.67322550E-07 -9.29039454E-04  2.20887476E-03
  1.71090878E-07  1.33663202E-06 -3.95866638E-05 -2.76117673E-05 -2.77176566E-05
  1.31228907E-10 -1.68164766E-08 -8.66129664E-09  1.24587234E-07  6.02228046E-06
  3.39170523E-06 -2.82772798E-09  8.23976366E-09  1.35059981E-05 -2.39379368E-05
  1.71816003E-08 -4.50509176E-08 -1.50536267E-04  2.16202668E-04 -5.28102536E-08
  1.39500937E-07  3.15060834E-03  7.62154670E-04  1.83312986E-08  1.05483519E-06
  3.45372844E-05  4.02989405E-07  4.01005267E-07 -7.18933789E-09  3.06031962E-08
 -5.27175030E-09 -2.44186105E-05 -4.66837068E-04 -2.78933464E-04 -3.63661438E-05
  5.14581973E-08 -1.93322855E-05 -2.42730791E-05 -4.68156739E-04 -2.75264570E-04
 -3.66174482E-05  1.69882084E-05  9.80337175E-06 -2.41920476E-05 -4.68469540E-04
 -2.74560368E-04 -3.66828652E-05 -1.70477071E-05  9.74411559E-06  9.92845543E-01
  4.92676497E-02  1.87859854E-03 -3.61818256E-08  5.14765060E-06 -1.12538495E-02
 -1.08682498E-03  3.88673879E-08 -4.20818903E-06 -5.27393277E-03 -1.38346188E-03
  1.94316475E-07 -7.99734838E-06 -8.46627527E-03 -9.69181641E-03 -9.69178608E-03
 -2.80173383E-08  3.63680015E-06  1.64415044E-09 -4.95337097E-04  1.20287012E-05
  4.40844775E-04 -7.39242629E-09  1.09439223E-06 -6.54647270E-04  3.24251597E-04
 -1.76067803E-09  1.21188529E-06  8.87796256E-03 -3.04085850E-03 -4.74938059E-08
 -5.94839781E-06 -2.73160958E-04  1.50642127E-04  1.50638695E-04  1.01025716E-08
 -1.36933014E-06  1.26079347E-10 -1.10669188E-04  1.26479520E-04  3.73413156E-04
  2.02108645E-08  2.34223169E-07  3.02050874E-03 -1.61176049E-03  4.01021597E-07
  1.78240050E-06 -3.75464482E-02  3.24332317E-02 -1.62320617E-07  1.11262628E-05
 -7.71573484E-04 -1.27896454E-04 -1.28472763E-04 -1.34125400E-08 -7.28817535E-07
  1.05977438E-07 -2.84605217E-01  1.02274163E+00  4.98085565E-03  5.21708479E-07
  6.79469579E-06  7.60132119E-02  6.21453287E-04  1.21650001E-08  4.72717204E-07
 -2.64224140E-02 -1.78690698E-03 -1.23919847E-07 -1.68064627E-06  6.02502750E-02
  1.68655919E-02  2.77646643E-07  2.46876575E-05 -1.51903022E-02 -1.55828563E-02
 -1.55829016E-02 -5.70741005E-09  5.90380312E-07 -2.84705839E-09 -4.23310703E-05
 -7.00116349E-04  8.02852347E-04 -7.16904921E-05 -4.38894418E-08  1.40313222E-05
 -4.23332254E-05 -7.06334888E-04  8.15409984E-04 -7.13220260E-05 -1.15769997E-05
 -7.01211789E-06 -4.21320366E-05 -7.05750055E-04  8.13580467E-04 -7.17408319E-05
  1.16553010E-05 -7.00062093E-06  1.18258416E-05  5.40013796E-05  4.41736548E-05
 -3.09129001E-08  1.25714394E-06  4.22454077E-04  5.95260962E-04  1.10441249E-07
 -2.69527169E-06 -1.54738866E-02  8.86010543E-03 -1.62307138E-07 -4.66959789E-05
  7.71404833E-05  1.85773216E-06  1.87022245E-06  6.47757563E-12  4.07116585E-07
  1.37135950E-09  1.09908838E-05  5.88208740E-05 -1.74040704E-05  8.22276541E-09
  7.99706866E-07 -7.90974795E-04  5.74060336E-04 -6.13710246E-08 -2.18524722E-06
  4.17152138E-04 -2.48834785E-03  3.91721448E-08  2.66477736E-05 -4.52541940E-05
  2.90955826E-05  2.90954929E-05  1.11146925E-08 -5.51602126E-07 -7.48535513E-10
  7.46063648E-05  1.61733056E-03  4.17227627E-04 -2.07314820E-08  9.30411312E-07
 -8.11219524E-04  1.43710926E-03  1.22912207E-06 -1.64084389E-06  4.83312627E-02
 -4.98099789E-02 -1.09764154E-06 -1.42941076E-05 -1.96250690E-03  2.14805574E-04
  2.14946801E-04 -1.37511266E-07 -2.84195024E-06  2.22791009E-07  1.46795490E-03
 -5.58552382E-03  9.90325603E-01  9.76170898E-05  1.19796088E-03 -4.01393313E-04
  3.14869962E-02  2.91550531E-06  3.78799385E-05  4.93901715E-03 -1.29350913E-02
 -1.12087160E-06 -1.48078161E-05 -6.89254333E-02 -1.34605074E-02 -7.02242410E-08
 -2.95330504E-05  7.65549155E-04 -4.56815738E-04 -4.56781174E-04 -4.34658850E-09
  1.35521797E-06  9.80143845E-09 -1.50318992E-04  1.36768952E-03 -5.17503075E-03
 -3.11659750E-04  7.26079687E-09 -3.05825560E-05 -1.51172069E-04  1.37031841E-03
 -5.16650401E-03 -3.10687415E-04  2.56033863E-05  1.48687545E-05 -1.50302054E-04
  1.37165042E-03 -5.16900757E-03 -3.11262265E-04 -2.57119153E-05  1.47042311E-05
 -2.24689698E-05 -1.50992259E-04 -9.12116338E-05  2.66414819E-08 -1.68112861E-06
  1.98998896E-03  1.12611021E-03 -1.30007216E-07  8.56520558E-06  3.47254948E-02
 -1.51946238E-02  2.84975017E-07  8.48965225E-05  1.11516154E-04 -3.76974019E-05
 -3.76959266E-05 -2.19003132E-09  1.86783306E-07 -1.85109034E-09 -2.06507218E-05
 -6.38324915E-05  3.82429494E-05 -9.93336362E-09 -1.28709680E-06 -2.61197404E-04
  5.28019854E-04  4.78922904E-08  7.59758242E-06 -7.28038166E-03  5.54497384E-03
 -1.29775427E-07 -4.23327115E-05 -1.25348895E-04 -2.38232473E-05 -2.38111683E-05
 -5.44221145E-09  1.40264613E-07  2.79900373E-10 -8.94138085E-08 -6.28985774E-07
  1.52068584E-07 -8.06728526E-05 -1.86875545E-05  3.28360359E-06 -1.27544460E-06
  3.16682649E-04  7.37241592E-05 -1.78484293E-06 -1.89391766E-07  4.46507013E-04
  1.04751371E-04 -6.17877343E-09 -1.81590860E-05  1.82874311E-05  1.44499919E-04
  3.34467833E-05 -9.36325271E-05  4.22940141E-08 -1.32980219E-07 -3.65748165E-04
  9.65243345E-01  2.23789143E-01  4.31186746E-08 -1.11529542E-05  2.88257971E-02
  6.68325963E-03 -1.02353502E-06  3.41013961E-06 -1.13313025E-02 -2.62747084E-03
 -6.98000954E-07 -1.49613097E-06  5.03598763E-03  1.16832917E-03 -4.38307737E-07
  1.20200946E-06 -8.75085361E-07  3.19597059E-04  7.40924314E-05  6.06543770E-06
  1.34379904E-05 -1.26743974E-04  1.04862795E-03  5.98278671E-05 -2.50587286E-05
 -1.10383145E-05 -5.80791305E-05  5.37087302E-04 -4.45858576E-03 -2.54592398E-04
 -4.42664460E-05 -1.71554162E-05  4.41610878E-05 -4.13845482E-04  3.41153091E-03
  1.95483121E-04 -4.00344910E-05  2.90979195E-06  1.32446872E-08  7.17267153E-08
 -6.63758053E-08  3.74060678E-05  8.70509408E-06 -3.73785879E-06 -2.32017986E-06
 -1.43796436E-04 -3.36417509E-05  1.33411932E-06 -1.43653335E-06  9.58780514E-04
  2.25180343E-04 -1.60872951E-07  8.68614816E-07 -7.17388123E-07 -6.70961769E-06
 -1.58880104E-06  4.04070421E-06 -9.06515112E-08 -3.46480406E-07  2.32247218E-08
 -1.74837987E-05 -4.14822780E-06  3.99373581E-06 -1.95438112E-06  1.07719174E-04
  2.54969832E-05  2.87249691E-07  7.01612031E-07 -4.15009322E-04 -9.81736131E-05
  2.42362068E-08  9.09958604E-08 -5.81528267E-07 -1.01334549E-05 -2.36585670E-06
  1.73282820E-06 -2.12614487E-08 -3.35865168E-07  7.81064197E-07  1.87467103E-05
 -8.07878192E-05  1.15244519E-06 -5.25008706E-06 -7.28050448E-05  3.15324492E-04
  6.88820030E-06 -4.20230700E-05 -1.04186829E-04  4.54678056E-04  4.26527968E-08
 -8.15745903E-05  8.18750564E-05 -3.35166123E-05  1.44323649E-04  2.12015064E-05
  1.85076372E-07 -7.40847925E-07 -1.14550140E-03 -2.23789426E-01  9.65242585E-01
 -4.58865580E-08 -3.42659058E-05 -6.68322967E-03  2.88262482E-02  5.88302223E-07
  1.03551136E-05  2.62716930E-03 -1.13328929E-02 -4.82693492E-05 -1.61613383E-05
 -1.16775325E-03  5.03991945E-03 -1.30510419E-06  4.90220162E-06 -4.22676001E-06
 -7.41319240E-05  3.19721595E-04 -1.34807570E-06  5.82111988E-05 -5.47291569E-04
  4.57549263E-03  2.60716295E-04  5.85262265E-06 -4.77076455E-05 -1.76356149E-05
  1.67104844E-04 -1.38090344E-03 -7.79953883E-05 -8.54011684E-08 -2.88063708E-05
 -4.06956087E-05  3.86105776E-04 -3.18921727E-03 -1.81521904E-04  1.97750800E-05
 -3.33517121E-05 -6.94082425E-09  6.97200099E-08 -2.92181569E-07 -8.67913006E-06