RxCoord=4.29738 DE=45.29                                                
Freq      RB3LYP                                                      6-31++G(d,p)        
Number of atoms                            I                7
Info1-9                                    I   N=           9
          16          16           0           0           0         100
           6          18        -502
Full Title                                 C   N=           2
RxCoord=4.29738 DE=45.29
Route                                      C   N=           6
#p b3lyp 6-31++g(d,p) scf=verytight NoSymm freq=noraman int=
ultrafine   
Charge                                     I               -1
Multiplicity                               I                1
Number of electrons                        I               40
Number of alpha electrons                  I               20
Number of beta electrons                   I               20
Number of basis functions                  I               98
Number of independent functions            I               98
Number of point charges in /Mol/           I                0
Number of translation vectors              I                0
Atomic numbers                             I   N=           7
           6          17           1           1           1           6
           7
Nuclear charges                            R   N=           7
  6.00000000E+00  1.70000000E+01  1.00000000E+00  1.00000000E+00  1.00000000E+00
  6.00000000E+00  7.00000000E+00
Current cartesian coordinates              R   N=          21
 -7.68128316E-01 -8.12582234E-05  2.96498029E-03 -4.22386481E+00  2.64561657E-05
 -1.15273294E-04 -1.32554839E-01  4.15739747E-03 -1.94794481E+00 -1.41617966E-01
  1.68785046E+00  9.82593334E-01 -1.39418324E-01 -1.69274674E+00  9.74936164E-01
  4.84921487E+00  1.39839733E-04 -4.36715707E-03  7.08040884E+00 -6.42506882E-05
  7.97464425E-04
Number of symbols in /Mol/                 I                0
Force Field                                I                0
Atom Types                                 C   N=           7
                                                            
                        
Int Atom Types                             I   N=           7
           0           0           0           0           0           0
           0
MM charges                                 R   N=           7
  0.00000000E+00  0.00000000E+00  0.00000000E+00  0.00000000E+00  0.00000000E+00
  0.00000000E+00  0.00000000E+00
Integer atomic weights                     I   N=           7
          12          35           1           1           1          12
          14
Real atomic weights                        R   N=           7
  1.20000000E+01  3.49688527E+01  1.00782504E+00  1.00782504E+00  1.00782504E+00
  1.20000000E+01  1.40030740E+01
Atom fragment info                         I   N=           7
           0           0           0           0           0           0
           0
Atom residue num                           I   N=           7
           0           0           0           0           0           0
           0
Nuclear spins                              I   N=           7
           0           3           1           1           1           0
           2
Nuclear ZEff                               R   N=           7
 -3.60000000E+00 -1.42400000E+01 -1.00000000E+00 -1.00000000E+00 -1.00000000E+00
 -3.60000000E+00 -4.55000000E+00
Nuclear ZNuc                               R   N=           7
  6.00000000E+00  1.70000000E+01  1.00000000E+00  1.00000000E+00  1.00000000E+00
  6.00000000E+00  7.00000000E+00
Nuclear QMom                               R   N=           7
  0.00000000E+00 -8.16500000E+00  0.00000000E+00  0.00000000E+00  0.00000000E+00
  0.00000000E+00  2.04400000E+00
Nuclear GFac                               R   N=           7
  0.00000000E+00  8.21874000E-01  2.79284600E+00  2.79284600E+00  2.79284600E+00
  0.00000000E+00  4.03761000E-01
MicOpt                                     I   N=           7
          -1          -1          -1          -1          -1          -1
          -1
Number of residues                         I                0
Number of secondary structures             I                0
Number of contracted shells                I               33
Number of primitive shells                 I               72
Pure/Cartesian d shells                    I                1
Pure/Cartesian f shells                    I                0
Highest angular momentum                   I                2
Largest degree of contraction              I                6
Shell types                                I   N=          33
           0          -1          -1          -1           2           0
          -1          -1          -1          -1           2           0
           0           0           1           0           0           0
           1           0           0           0           1           0
          -1          -1          -1           2           0          -1
          -1          -1           2
Number of primitives per shell             I   N=          33
           6           3           1           1           1           6
           6           3           1           1           1           3
           1           1           1           3           1           1
           1           3           1           1           1           6
           3           1           1           1           6           3
           1           1           1
Shell to atom map                          I   N=          33
           1           1           1           1           1           2
           2           2           2           2           2           3
           3           3           3           4           4           4
           4           5           5           5           5           6
           6           6           6           6           7           7
           7           7           7
Primitive exponents                        R   N=          72
  3.04752488E+03  4.57369518E+02  1.03948685E+02  2.92101553E+01  9.28666296E+00
  3.16392696E+00  7.86827235E+00  1.88128854E+00  5.44249258E-01  1.68714478E-01
  4.38000000E-02  8.00000000E-01  2.51801000E+04  3.78035000E+03  8.60474000E+02
  2.42145000E+02  7.73349000E+01  2.62470000E+01  4.91765000E+02  1.16984000E+02
  3.74153000E+01  1.37834000E+01  5.45215000E+00  2.22588000E+00  3.18649000E+00
  1.14427000E+00  4.20377000E-01  1.42657000E-01  4.83000000E-02  7.50000000E-01
  1.87311370E+01  2.82539436E+00  6.40121692E-01  1.61277759E-01  3.60000000E-02
  1.10000000E+00  1.87311370E+01  2.82539436E+00  6.40121692E-01  1.61277759E-01
  3.60000000E-02  1.10000000E+00  1.87311370E+01  2.82539436E+00  6.40121692E-01
  1.61277759E-01  3.60000000E-02  1.10000000E+00  3.04752488E+03  4.57369518E+02
  1.03948685E+02  2.92101553E+01  9.28666296E+00  3.16392696E+00  7.86827235E+00
  1.88128854E+00  5.44249258E-01  1.68714478E-01  4.38000000E-02  8.00000000E-01
  4.17351146E+03  6.27457911E+02  1.42902093E+02  4.02343293E+01  1.28202129E+01
  4.39043701E+00  1.16263619E+01  2.71627981E+00  7.72218397E-01  2.12031498E-01
  6.39000000E-02  8.00000000E-01
Contraction coefficients                   R   N=          72
  1.83473713E-03  1.40373228E-02  6.88426223E-02  2.32184443E-01  4.67941348E-01
  3.62311985E-01 -1.19332420E-01 -1.60854152E-01  1.14345644E+00  1.00000000E+00
  1.00000000E+00  1.00000000E+00  1.83295985E-03  1.40341988E-02  6.90973943E-02
  2.37451980E-01  4.83033960E-01  3.39855972E-01 -2.29739142E-03 -3.07137189E-02
 -1.12528069E-01  4.50163278E-02  5.89353363E-01  4.65206287E-01 -2.51828028E-01
  6.15892514E-02  1.06018433E+00  1.00000000E+00  1.00000000E+00  1.00000000E+00
  3.34946043E-02  2.34726953E-01  8.13757326E-01  1.00000000E+00  1.00000000E+00
  1.00000000E+00  3.34946043E-02  2.34726953E-01  8.13757326E-01  1.00000000E+00
  1.00000000E+00  1.00000000E+00  3.34946043E-02  2.34726953E-01  8.13757326E-01
  1.00000000E+00  1.00000000E+00  1.00000000E+00  1.83473713E-03  1.40373228E-02
  6.88426223E-02  2.32184443E-01  4.67941348E-01  3.62311985E-01 -1.19332420E-01
 -1.60854152E-01  1.14345644E+00  1.00000000E+00  1.00000000E+00  1.00000000E+00
  1.83477216E-03  1.39946270E-02  6.85865518E-02  2.32240873E-01  4.69069948E-01
  3.60455199E-01 -1.14961182E-01 -1.69117479E-01  1.14585195E+00  1.00000000E+00
  1.00000000E+00  1.00000000E+00
P(S=P) Contraction coefficients            R   N=          72
  0.00000000E+00  0.00000000E+00  0.00000000E+00  0.00000000E+00  0.00000000E+00
  0.00000000E+00  6.89990666E-02  3.16423961E-01  7.44308291E-01  1.00000000E+00
  1.00000000E+00  0.00000000E+00  0.00000000E+00  0.00000000E+00  0.00000000E+00
  0.00000000E+00  0.00000000E+00  0.00000000E+00  3.98940088E-03  3.03177067E-02
  1.29880029E-01  3.27951072E-01  4.53527100E-01  2.52154056E-01 -1.42993147E-02
  3.23572333E-01  7.43507765E-01  1.00000000E+00  1.00000000E+00  0.00000000E+00
  0.00000000E+00  0.00000000E+00  0.00000000E+00  0.00000000E+00  0.00000000E+00
  0.00000000E+00  0.00000000E+00  0.00000000E+00  0.00000000E+00  0.00000000E+00
  0.00000000E+00  0.00000000E+00  0.00000000E+00  0.00000000E+00  0.00000000E+00
  0.00000000E+00  0.00000000E+00  0.00000000E+00  0.00000000E+00  0.00000000E+00
  0.00000000E+00  0.00000000E+00  0.00000000E+00  0.00000000E+00  6.89990666E-02
  3.16423961E-01  7.44308291E-01  1.00000000E+00  1.00000000E+00  0.00000000E+00
  0.00000000E+00  0.00000000E+00  0.00000000E+00  0.00000000E+00  0.00000000E+00
  0.00000000E+00  6.75797439E-02  3.23907296E-01  7.40895140E-01  1.00000000E+00
  1.00000000E+00  0.00000000E+00
Coordinates of each shell                  R   N=          99
 -7.68128316E-01 -8.12582234E-05  2.96498029E-03 -7.68128316E-01 -8.12582234E-05
  2.96498029E-03 -7.68128316E-01 -8.12582234E-05  2.96498029E-03 -7.68128316E-01
 -8.12582234E-05  2.96498029E-03 -7.68128316E-01 -8.12582234E-05  2.96498029E-03
 -4.22386481E+00  2.64561657E-05 -1.15273294E-04 -4.22386481E+00  2.64561657E-05
 -1.15273294E-04 -4.22386481E+00  2.64561657E-05 -1.15273294E-04 -4.22386481E+00
  2.64561657E-05 -1.15273294E-04 -4.22386481E+00  2.64561657E-05 -1.15273294E-04
 -4.22386481E+00  2.64561657E-05 -1.15273294E-04 -1.32554839E-01  4.15739747E-03
 -1.94794481E+00 -1.32554839E-01  4.15739747E-03 -1.94794481E+00 -1.32554839E-01
  4.15739747E-03 -1.94794481E+00 -1.32554839E-01  4.15739747E-03 -1.94794481E+00
 -1.41617966E-01  1.68785046E+00  9.82593334E-01 -1.41617966E-01  1.68785046E+00
  9.82593334E-01 -1.41617966E-01  1.68785046E+00  9.82593334E-01 -1.41617966E-01
  1.68785046E+00  9.82593334E-01 -1.39418324E-01 -1.69274674E+00  9.74936164E-01
 -1.39418324E-01 -1.69274674E+00  9.74936164E-01 -1.39418324E-01 -1.69274674E+00
  9.74936164E-01 -1.39418324E-01 -1.69274674E+00  9.74936164E-01  4.84921487E+00
  1.39839733E-04 -4.36715707E-03  4.84921487E+00  1.39839733E-04 -4.36715707E-03
  4.84921487E+00  1.39839733E-04 -4.36715707E-03  4.84921487E+00  1.39839733E-04
 -4.36715707E-03  4.84921487E+00  1.39839733E-04 -4.36715707E-03  7.08040884E+00
 -6.42506882E-05  7.97464425E-04  7.08040884E+00 -6.42506882E-05  7.97464425E-04
  7.08040884E+00 -6.42506882E-05  7.97464425E-04  7.08040884E+00 -6.42506882E-05
  7.97464425E-04  7.08040884E+00 -6.42506882E-05  7.97464425E-04
Num ILSW                                   I              100
ILSW                                       I   N=         100
           0           1           0           0           2           0
           0           0           0           0         402          -1
           5           0           0           0           2           0
           0           0           0           0           1           0
           1           1           0           0           0           0
           0           0      100000           0          -1           0
           0           0           0           0           0           0
           0           0           0           1           0           0
           0 -2000000000           1           0           0           0
           0           0           4          52           0           0
           0           0           5           0           0           0
           0           0           0           7           0           1
           0           0           0           0           0           0
           0           0           0           0           0           0
           0           0           0           0           0           0
           0           0           0           0           0           0
           0           0           0           0
Num RLSW                                   I               52
RLSW                                       R   N=          52
  8.00000000E-01  7.20000000E-01  1.00000000E+00  8.10000000E-01  2.00000000E-01
  0.00000000E+00  0.00000000E+00  1.00000000E+00  0.00000000E+00  0.00000000E+00
  0.00000000E+00  0.00000000E+00  1.00000000E+00  0.00000000E+00  0.00000000E+00
  0.00000000E+00  0.00000000E+00  1.00000000E+00  0.00000000E+00  0.00000000E+00
  0.00000000E+00  0.00000000E+00  1.00000000E+00  0.00000000E+00  0.00000000E+00
  0.00000000E+00  0.00000000E+00  1.00000000E+00  0.00000000E+00  0.00000000E+00
  0.00000000E+00  0.00000000E+00  1.00000000E+00  0.00000000E+00  0.00000000E+00
  0.00000000E+00  0.00000000E+00  0.00000000E+00  1.00000000E+00  1.00000000E+00
  0.00000000E+00  1.00000000E+00  0.00000000E+00  0.00000000E+00  0.00000000E+00
  0.00000000E+00  0.00000000E+00  0.00000000E+00  0.00000000E+00  0.00000000E+00
  0.00000000E+00  0.00000000E+00
MxBond                                     I                4
NBond                                      I   N=           7
           4           1           1           1           1           1
           1
IBond                                      I   N=          28
           2           3           4           5           1           0
           0           0           1           0           0           0
           1           0           0           0           1           0
           0           0           7           0           0           0
           6           0           0           0
RBond                                      R   N=          28
  1.00000000E+00  1.00000000E+00  1.00000000E+00  1.00000000E+00  1.00000000E+00
  0.00000000E+00  0.00000000E+00  0.00000000E+00  1.00000000E+00  0.00000000E+00
  0.00000000E+00  0.00000000E+00  1.00000000E+00  0.00000000E+00  0.00000000E+00
  0.00000000E+00  1.00000000E+00  0.00000000E+00  0.00000000E+00  0.00000000E+00
  2.00000000E+00  0.00000000E+00  0.00000000E+00  0.00000000E+00  2.00000000E+00
  0.00000000E+00  0.00000000E+00  0.00000000E+00
Virial Ratio                               R      2.004573921897175E+00
SCF Energy                                 R     -5.929949964096605E+02
Total Energy                               R     -5.929949964096605E+02
RMS Force                                  R      2.762754878098844E-03
RMS Density                                R      1.800478111488844E-09
NImag                                      I                2
Job Status                                 I                1
Nuclear derivative order                   I                2
External E-field                           R   N=          35
  0.00000000E+00  0.00000000E+00  0.00000000E+00  0.00000000E+00  0.00000000E+00
  0.00000000E+00  0.00000000E+00  0.00000000E+00  0.00000000E+00  0.00000000E+00
  0.00000000E+00  0.00000000E+00  0.00000000E+00  0.00000000E+00  0.00000000E+00
  0.00000000E+00  0.00000000E+00  0.00000000E+00  0.00000000E+00  0.00000000E+00
  0.00000000E+00  0.00000000E+00  0.00000000E+00  0.00000000E+00  0.00000000E+00
  0.00000000E+00  0.00000000E+00  0.00000000E+00  0.00000000E+00  0.00000000E+00
  0.00000000E+00  0.00000000E+00  0.00000000E+00  0.00000000E+00  0.00000000E+00
IOpCl                                      I                0
IROHF                                      I                0
Alpha Orbital Energies                     R   N=          98
 -1.01414698E+02 -1.40937538E+01 -1.01041417E+01 -9.95957368E+00 -9.33087105E+00
 -7.09396327E+00 -7.08548257E+00 -7.08548179E+00 -7.20232791E-01 -6.46599130E-01
 -5.42689837E-01 -3.10915465E-01 -3.10516081E-01 -2.80671968E-01 -1.81986019E-01
 -1.78847546E-01 -1.78812068E-01 -9.57537442E-02 -9.57534931E-02 -6.82892170E-02
  1.07469437E-01  1.24868712E-01  1.43590897E-01  1.43646070E-01  1.73178466E-01
  2.00450374E-01  2.01492038E-01  2.01493154E-01  2.19678391E-01  2.19840647E-01
  2.38776141E-01  2.47961696E-01  2.48060381E-01  2.69206436E-01  2.76735139E-01
  2.76871981E-01  3.12524848E-01  3.30972959E-01  3.31121352E-01  3.59492805E-01
  3.85267934E-01  3.85386673E-01  3.88934409E-01  4.63007305E-01  4.77592861E-01
  6.39550617E-01  7.25056485E-01  7.41605575E-01  7.41624584E-01  7.70141338E-01
  7.70197273E-01  8.71640656E-01  8.96890806E-01  8.96925645E-01  9.69993262E-01
  9.90295269E-01  9.90361326E-01  1.04114015E+00  1.04124868E+00  1.07882038E+00
  1.09117063E+00  1.09146456E+00  1.12310995E+00  1.18909014E+00  1.18917102E+00
  1.20797368E+00  1.26545655E+00  1.37316858E+00  1.45862749E+00  1.59761191E+00
  1.59779902E+00  1.72554557E+00  1.78313834E+00  1.78313931E+00  1.80490749E+00
  1.80493314E+00  2.15384509E+00  2.20255750E+00  2.20257504E+00  2.21283229E+00
  2.21332687E+00  2.29236344E+00  2.48337126E+00  2.48426279E+00  2.67951492E+00
  2.80935306E+00  2.83562694E+00  2.83565318E+00  2.94933272E+00  2.94955370E+00
  3.25447554E+00  3.37763545E+00  3.55157266E+00  3.55226780E+00  4.20583797E+00
  4.40761377E+00  4.45266359E+00  4.56799768E+00
Alpha MO coefficients                      R   N=        9604
 -6.60847959E-06  2.58120471E-05 -5.39622025E-05  1.51474750E-08 -3.14634875E-08
  1.17451096E-04 -2.59205788E-05  2.67839339E-08 -1.34717471E-08 -4.19460762E-05
 -5.67131484E-05 -4.89463459E-08 -2.27726926E-08 -2.20128291E-05  1.19673405E-05
  1.18776901E-05 -1.41732633E-08 -8.04135056E-08  2.10185503E-08  9.95996921E-01
  1.51505293E-02  4.07428171E-05 -7.81016658E-09  2.48622789E-08 -2.10654627E-02
 -1.77572971E-05 -3.92051533E-10 -1.32375339E-08  1.88859453E-03 -4.51154689E-05
  5.37697913E-09 -4.30371226E-08 -3.84944568E-04 -1.80782823E-05  4.16094143E-09
 -2.91697722E-08  7.50337352E-03  7.52443649E-03  7.52443637E-03 -1.22921370E-09
 -2.74387154E-08  3.18460631E-10 -2.76983443E-05 -3.41220817E-05  4.41044215E-05
  2.35462072E-05  2.71048615E-08 -1.23297325E-05 -2.79604078E-05 -3.38854923E-05
  4.41235532E-05  2.33529408E-05  1.06892002E-05  6.22881058E-06 -2.78720202E-05
 -3.39004345E-05  4.39973791E-05  2.34183826E-05 -1.07098113E-05  6.17530404E-06
 -9.93160684E-08  1.99123543E-06 -2.84260605E-07  1.83289396E-09 -1.98733256E-08
 -9.85464851E-05 -7.36963288E-05  5.33229404E-10 -1.14593611E-07 -3.58490993E-05
 -6.21893063E-05 -5.00529077E-09  8.49123597E-08 -8.60343015E-06  1.31767039E-06
  1.32043753E-06  1.62370139E-09 -2.49704875E-08 -3.03428967E-10 -1.57757335E-06
 -6.25728178E-06 -6.63838097E-07 -3.15692688E-10 -3.04245254E-09  9.43734438E-05
 -5.36565826E-05  6.44633604E-09 -1.21037300E-07  9.41456573E-05  5.57024873E-06
  8.67694389E-09 -1.51119747E-07  3.48510918E-06 -4.85313157E-06 -4.85349308E-06
 -1.43813889E-09  2.93364698E-08  5.05748227E-13  3.95294465E-06  1.44131432E-05
  5.77695713E-06  2.07768915E-10 -3.20619258E-08 -3.75877422E-05 -4.17501437E-05
  3.04930768E-08  1.38622113E-07  9.65237389E-04  1.18260347E-04 -3.40762763E-08
 -1.30484211E-06  4.65349853E-06  9.81758116E-06  9.79050290E-06 -1.24188896E-09
  3.37415167E-09  4.19321595E-09  1.51715814E-07  2.61823641E-06 -9.77629083E-08
  6.30606456E-10 -1.44234367E-09  6.98015554E-06  1.20594521E-06 -3.54301390E-09
  9.30133434E-09 -6.64429690E-05 -3.17824417E-05  1.04276885E-08 -7.36163158E-08
 -1.22055468E-04 -5.96157413E-05 -3.81409912E-09  5.66853078E-07  2.45049413E-06
  5.15497656E-06  5.15155873E-06  3.17434933E-10  5.16811196E-10  7.64009787E-10
  1.05354870E-05 -4.22623759E-05 -1.61442882E-04  2.20812654E-06  3.35061662E-09
 -2.23246756E-06  1.04551136E-05 -4.21845285E-05 -1.61459050E-04  2.29993221E-06
  1.92796179E-06  1.11060853E-06  1.04616038E-05 -4.21336420E-05 -1.61730123E-04
  2.28745603E-06 -1.92522517E-06  1.09550585E-06  8.33337712E-05  2.09934229E-04
 -2.79934373E-04  2.50988391E-08 -6.28416893E-07 -2.38626336E-04 -4.19149572E-04
  4.42625430E-08 -1.07095639E-06  1.45543700E-03  9.95067472E-04 -1.41401323E-07
  1.83744228E-06 -7.57137749E-04 -1.38488156E-05 -1.38493764E-05  7.94178431E-08
 -1.98539901E-06 -2.30106714E-10  9.92699361E-01  3.44396184E-02 -1.39534067E-03
  1.28179310E-07 -3.22796608E-06  5.19893142E-03  1.11391692E-04 -1.55707088E-08
  2.45544791E-07 -2.98903107E-03  6.14716976E-05  2.01423400E-08  4.21175775E-07
 -7.70732396E-03 -8.41980361E-03 -8.41980045E-03 -7.46073781E-08  1.89511418E-06
 -3.10923702E-10  9.92988747E-01  4.96259981E-02 -7.37983082E-04  2.50577619E-07
  1.35244043E-06 -1.64470590E-02  9.63046529E-04 -1.45584633E-06 -2.81075664E-06
  6.98462377E-03 -3.56617334E-03  7.60427896E-07  1.72226502E-07 -9.27977094E-03
 -8.86866009E-03 -8.87063290E-03 -8.17936276E-08 -4.98134097E-07  3.38795690E-07
 -9.43612359E-06 -5.16616311E-05 -2.80243718E-06 -2.61762817E-08 -7.76322073E-08
 -2.25495889E-05  1.90389054E-04  1.59316403E-07  6.46511490E-07  3.30193992E-03
  1.88062642E-03 -6.04551739E-07  1.42955922E-07 -6.11663944E-03 -1.99746263E-03
  3.23926958E-07 -1.81413009E-06 -1.39606834E-04 -1.81758986E-04 -1.81453451E-04
 -9.00171839E-08 -2.42885930E-07 -6.40954664E-08 -1.59960537E-04  3.01285547E-03
 -9.70465378E-04  2.63477062E-05  4.03784194E-07 -9.60752701E-05 -1.61605292E-04
  3.02139542E-03 -9.83750937E-04  2.69430439E-05  8.27351626E-05  4.84212363E-05
 -1.61266658E-04  3.01816997E-03 -9.79469323E-04  2.68488977E-05 -8.31824105E-05
  4.83931818E-05 -1.98710750E-05 -3.95788705E-05  4.08203168E-05 -6.67198997E-08
 -7.26650079E-07 -3.71167451E-04 -7.36791100E-04  2.49233803E-07  1.61226616E-06
  2.08495071E-03  2.27447930E-04  8.83627431E-07  6.57887135E-06 -6.21098991E-05
 -3.13689496E-05 -3.15185320E-05 -1.21165808E-08 -3.22547318E-07  1.11241761E-08
 -2.73797161E-05 -9.75716290E-05 -1.29770073E-05 -3.58224428E-10  2.19948194E-07
  1.06929986E-03 -3.13625457E-04  4.83590672E-08 -1.98035317E-06 -1.06087054E-03
 -4.13082236E-05 -7.00097522E-07 -2.58236616E-06 -2.12790931E-05 -6.83891977E-05
 -6.83782414E-05  1.59972846E-08  3.22801625E-07  7.23377088E-11 -1.46279347E-05
 -6.91560921E-05 -7.59980778E-05  9.09558840E-10 -2.00464252E-08  5.03543652E-04
  4.08656669E-04  1.84996799E-07  1.54962823E-06 -8.38805999E-04  2.07598706E-03
 -3.13569907E-07  2.96801594E-07 -4.06044609E-05 -2.70281019E-05 -2.72138196E-05
 -1.71061719E-09 -1.91093518E-08  1.50258634E-08  1.24936418E-07  6.01561877E-06
  3.32584531E-06  4.81219704E-09  2.35264008E-08  1.35272476E-05 -2.35163067E-05
 -2.93455718E-08 -1.38658108E-07 -1.51606835E-04  2.06762615E-04  9.31454591E-08
  4.30044025E-07  2.98885555E-03  7.24935857E-04 -3.44427838E-08  8.04579782E-07
  3.36224586E-05  6.51762817E-07  5.98562070E-07  1.27600599E-08  6.88374657E-08
  9.13343737E-09 -2.35102566E-05 -4.63794994E-04 -2.91881500E-04 -3.60014689E-05
  3.19088138E-08 -1.95093180E-05 -2.28575855E-05 -4.66880997E-04 -2.84207107E-04
 -3.66093103E-05  1.72464604E-05  9.92915958E-06 -2.29960147E-05 -4.66381085E-04
 -2.85326259E-04 -3.65080413E-05 -1.72695481E-05  9.82438246E-06  9.92845824E-01
  4.92638885E-02  1.87803780E-03 -1.76016956E-07  4.63970219E-06 -1.12712970E-02
 -1.10460176E-03  1.21335623E-07 -3.86098071E-06 -5.17782264E-03 -1.43743183E-03
 -4.66481889E-08 -7.94654549E-06 -8.46719925E-03 -9.69082175E-03 -9.69077850E-03
 -1.21456442E-07  3.29169245E-06 -3.04211054E-09 -4.95595031E-04  1.00322384E-05
  4.40799544E-04 -3.77852753E-08  9.86800880E-07 -6.29248028E-04  3.11806208E-04
 -5.61486374E-08  1.02189161E-06  8.87587517E-03 -3.02529295E-03  4.10550413E-07
 -4.89247645E-06 -2.72816542E-04  1.49377754E-04  1.49375973E-04  4.57925713E-08
 -1.23286027E-06 -5.31425117E-11 -1.10834190E-04  1.26312682E-04  3.74313070E-04
 -3.36083711E-08  1.13212685E-07  3.02336049E-03 -1.61770489E-03 -7.53625482E-07
 -7.68660709E-07 -3.74859309E-02  3.20988265E-02  4.11154393E-07  1.21242319E-05
 -7.72172298E-04 -1.28770080E-04 -1.28269523E-04  2.90689370E-08 -6.12153386E-07
 -1.85059496E-07 -2.84605297E-01  1.02274137E+00  4.99163472E-03 -9.74592594E-07
  3.32586344E-06  7.60103642E-02  6.23440597E-04 -2.32223612E-08  3.86484092E-07
 -2.64092611E-02 -1.79540562E-03  2.24608312E-07 -9.05206546E-07  5.99132908E-02
  1.67889677E-02 -7.72678983E-07  2.13012176E-05 -1.51905338E-02 -1.55833918E-02
 -1.55834627E-02  3.14966397E-09  5.81294360E-07  4.89165789E-09 -4.31523682E-05
 -6.97291461E-04  7.84334155E-04 -7.02970226E-05 -6.65998137E-09  1.40289030E-05
 -4.19006104E-05 -6.99215575E-04  7.83924553E-04 -7.25739716E-05 -1.19733117E-05
 -7.17166939E-06 -4.22436368E-05 -7.00344348E-04  7.87332385E-04 -7.18596856E-05
  1.19185329E-05 -7.03818929E-06  1.15397986E-05  5.28123888E-05  4.39996995E-05
  5.24591230E-09  1.26690593E-06  4.36957669E-04  6.00091640E-04 -9.32895032E-08
 -2.94327815E-06 -1.51194873E-02  8.72609099E-03  1.53070969E-06 -4.03027239E-05
  7.64770417E-05  1.34203307E-06  1.36593750E-06 -1.37502668E-08  3.62827717E-07
 -1.99388194E-09  1.10191580E-05  5.89727486E-05 -1.73515578E-05 -3.73671282E-08
  6.58509419E-07 -7.94950923E-04  5.75825678E-04  1.36892552E-07 -1.61918937E-06
  3.78632832E-04 -2.45751025E-03 -8.12396566E-07  2.33900263E-05 -4.51549599E-05
  2.91608821E-05  2.91536533E-05  3.67996013E-09 -5.42328645E-07  1.48501818E-09
  7.53074675E-05  1.62083029E-03  4.21325291E-04  1.79017172E-08  9.72178859E-07
 -8.26113361E-04  1.42097756E-03 -2.01410656E-06 -8.46907035E-06  4.82658569E-02
 -4.93318040E-02  1.60811846E-06 -8.32576337E-06 -1.96225055E-03  2.14886842E-04
  2.17225856E-04  2.63565533E-07 -1.88795050E-06 -3.85491157E-07  1.47116618E-03
 -5.59630956E-03  9.90326331E-01 -1.78917040E-04  5.60234840E-04 -3.99128535E-04
  3.14853685E-02 -5.36625303E-06  1.86963039E-05  4.91203333E-03 -1.29333026E-02
  2.06000951E-06 -7.41450020E-06 -6.84657959E-02 -1.33551081E-02  5.23901457E-07
 -2.68317407E-05  7.67305564E-04 -4.55703022E-04 -4.55571230E-04 -7.24411768E-09
  1.29774043E-06 -1.72259892E-08 -1.51026395E-04  1.36326001E-03 -5.11927392E-03
 -3.08920996E-04  1.70991560E-07 -3.03564113E-05 -1.46406094E-04  1.37406853E-03
 -5.12618802E-03 -3.11606737E-04  2.54054823E-05  1.50059266E-05 -1.47886656E-04
  1.37185378E-03 -5.12202093E-03 -3.10623994E-04 -2.53969770E-05  1.49665396E-05
 -2.23188940E-05 -1.49639251E-04 -9.06741330E-05  1.41923968E-08 -1.62844975E-06
  1.90923932E-03  1.06745598E-03 -1.26259118E-07  8.05366889E-06  3.41331489E-02
 -1.50342164E-02 -2.89525739E-06  7.33414786E-05  1.08785007E-04 -3.70310421E-05
 -3.70464593E-05 -1.36917099E-08  1.37370984E-07  2.70900931E-09 -2.18527999E-05
 -6.90811793E-05  3.81412687E-05  5.37843039E-08 -1.08046068E-06 -1.89553415E-04
  4.91130001E-04 -3.14433212E-07  6.35302241E-06 -7.16345630E-03  5.50982512E-03
  1.34643049E-06 -3.70202903E-05 -1.24335583E-04 -2.68468392E-05 -2.68331796E-05
  7.48788917E-09  1.72909154E-07 -7.46361089E-10  3.92856080E-07  2.39337240E-06
  8.30511696E-07  1.76184817E-05 -8.07052806E-05 -1.37290593E-05 -4.36250068E-06
 -6.95430151E-05  3.19998183E-04  2.16569106E-05 -8.30291965E-05 -9.80651501E-05
  4.54876355E-04  9.60529029E-08 -8.10445482E-05  8.10403447E-05 -3.16665688E-05
  1.44956702E-04  1.97430556E-05  1.67349838E-07 -8.49548622E-07 -5.86201094E-04
 -2.11167363E-01  9.68083159E-01 -3.08621898E-07 -1.64988837E-05 -6.30600759E-03
  2.89098016E-02  6.23662956E-06  4.99863959E-06  2.47881560E-03 -1.13653852E-02
 -9.30703309E-05 -2.53902923E-05 -1.10128330E-03  5.05178963E-03 -5.29595208E-07
  4.59099243E-06 -4.79752220E-06 -7.00249742E-05  3.21004669E-04 -1.29243927E-06
  6.04275002E-05 -5.37940023E-04  4.57648086E-03  2.59838313E-04  5.62735399E-06
 -4.65042524E-05 -1.80647915E-05  1.80966758E-04 -1.43562509E-03 -8.18041000E-05
 -1.17882064E-06 -2.89191555E-05 -4.03153229E-05  3.86264752E-04 -3.13673030E-03
 -1.79099900E-04  1.93417157E-05 -3.33537965E-05 -7.68330454E-08 -1.98944659E-07
 -2.64464803E-07 -8.03170139E-06  3.69505921E-05 -1.53523453E-05 -1.32476286E-05
  3.08865748E-05 -1.42824925E-04  5.02292801E-05 -3.55178262E-05 -2.09337858E-04
  9.71705726E-04 -1.03653414E-06  3.65933663E-06 -3.41694812E-06  1.49582412E-06
 -6.99606518E-06 -8.55480061E-07 -4.08539116E-07 -1.63891244E-06  1.14502623E-07
  3.79620617E-06 -1.77952518E-05  1.97773273E-05 -1.00665130E-05 -2.34040432E-05
  1.09456568E-04  1.20795685E-06  1.13897346E-05  9.12296474E-05 -4.26366752E-04
  2.56201559E-07  3.94896676E-07 -2.56071734E-06  2.16969383E-06 -1.00137135E-05
 -3.61164826E-07  2.28806209E-07  1.46137331E-06  2.10929254E-07 -8.11063896E-05
 -1.76774129E-05 -8.12692502E-06 -7.19778194E-07  3.13916173E-04  6.87324850E-05
  1.00219372E-05 -3.29934557E-05  4.55026894E-04  1.00411022E-04  4.20254661E-08
 -1.73955653E-05  1.72918795E-05  1.45298425E-04  3.16460149E-05 -9.48720128E-05
  3.21451278E-08 -2.29531057E-07  5.51949685E-05  9.68083314E-01  2.11167406E-01
 -1.57757497E-07  2.23532252E-06  2.89097846E-02  6.30614257E-03  3.30746845E-06
 -6.89409916E-07 -1.13642776E-02 -2.47919070E-03 -3.65592349E-05 -8.94787946E-06
  5.05020328E-03  1.10224634E-03  1.39229375E-07  7.87739212E-07 -1.12945798E-06
  3.21295165E-04  7.00797575E-05  5.94925419E-06  1.28938447E-05 -1.14113749E-04
  9.89940674E-04  5.60558256E-05 -2.54899959E-05 -1.00413260E-05 -5.58040538E-05
  5.43185505E-04 -4.44761947E-03 -2.54995764E-04 -4.49513608E-05 -1.73440091E-05
  4.41182519E-05 -4.14561133E-04  3.45805944E-03  1.97941623E-04 -4.01039736E-05
  3.33381311E-06 -4.21647696E-08 -1.39806733E-07 -4.95407432E-08  3.68750824E-05