RxCoord=4.39716 DE=45.21                                                
Freq      RB3LYP                                                      6-31++G(d,p)        
Number of atoms                            I                7
Info1-9                                    I   N=           9
          16          16           0           0           0         100
           6          18        -502
Full Title                                 C   N=           2
RxCoord=4.39716 DE=45.21
Route                                      C   N=           6
#p b3lyp 6-31++g(d,p) scf=verytight NoSymm freq=noraman int=
ultrafine   
Charge                                     I               -1
Multiplicity                               I                1
Number of electrons                        I               40
Number of alpha electrons                  I               20
Number of beta electrons                   I               20
Number of basis functions                  I               98
Number of independent functions            I               98
Number of point charges in /Mol/           I                0
Number of translation vectors              I                0
Atomic numbers                             I   N=           7
           6          17           1           1           1           6
           7
Nuclear charges                            R   N=           7
  6.00000000E+00  1.70000000E+01  1.00000000E+00  1.00000000E+00  1.00000000E+00
  6.00000000E+00  7.00000000E+00
Current cartesian coordinates              R   N=          21
 -7.76645312E-01  6.61404144E-05  3.05190769E-03 -4.23197174E+00 -5.10226054E-05
 -3.02356180E-04 -1.47232342E-01  4.71864613E-03 -1.94706608E+00 -1.44288149E-01
  1.68841549E+00  9.83566543E-01 -1.47177540E-01 -1.69221762E+00  9.75896145E-01
  4.86497141E+00 -1.88972612E-05 -4.36526735E-03  7.09625608E+00  1.88972612E-05
  9.88326763E-04
Number of symbols in /Mol/                 I                0
Force Field                                I                0
Atom Types                                 C   N=           7
                                                            
                        
Int Atom Types                             I   N=           7
           0           0           0           0           0           0
           0
MM charges                                 R   N=           7
  0.00000000E+00  0.00000000E+00  0.00000000E+00  0.00000000E+00  0.00000000E+00
  0.00000000E+00  0.00000000E+00
Integer atomic weights                     I   N=           7
          12          35           1           1           1          12
          14
Real atomic weights                        R   N=           7
  1.20000000E+01  3.49688527E+01  1.00782504E+00  1.00782504E+00  1.00782504E+00
  1.20000000E+01  1.40030740E+01
Atom fragment info                         I   N=           7
           0           0           0           0           0           0
           0
Atom residue num                           I   N=           7
           0           0           0           0           0           0
           0
Nuclear spins                              I   N=           7
           0           3           1           1           1           0
           2
Nuclear ZEff                               R   N=           7
 -3.60000000E+00 -1.42400000E+01 -1.00000000E+00 -1.00000000E+00 -1.00000000E+00
 -3.60000000E+00 -4.55000000E+00
Nuclear ZNuc                               R   N=           7
  6.00000000E+00  1.70000000E+01  1.00000000E+00  1.00000000E+00  1.00000000E+00
  6.00000000E+00  7.00000000E+00
Nuclear QMom                               R   N=           7
  0.00000000E+00 -8.16500000E+00  0.00000000E+00  0.00000000E+00  0.00000000E+00
  0.00000000E+00  2.04400000E+00
Nuclear GFac                               R   N=           7
  0.00000000E+00  8.21874000E-01  2.79284600E+00  2.79284600E+00  2.79284600E+00
  0.00000000E+00  4.03761000E-01
MicOpt                                     I   N=           7
          -1          -1          -1          -1          -1          -1
          -1
Number of residues                         I                0
Number of secondary structures             I                0
Number of contracted shells                I               33
Number of primitive shells                 I               72
Pure/Cartesian d shells                    I                1
Pure/Cartesian f shells                    I                0
Highest angular momentum                   I                2
Largest degree of contraction              I                6
Shell types                                I   N=          33
           0          -1          -1          -1           2           0
          -1          -1          -1          -1           2           0
           0           0           1           0           0           0
           1           0           0           0           1           0
          -1          -1          -1           2           0          -1
          -1          -1           2
Number of primitives per shell             I   N=          33
           6           3           1           1           1           6
           6           3           1           1           1           3
           1           1           1           3           1           1
           1           3           1           1           1           6
           3           1           1           1           6           3
           1           1           1
Shell to atom map                          I   N=          33
           1           1           1           1           1           2
           2           2           2           2           2           3
           3           3           3           4           4           4
           4           5           5           5           5           6
           6           6           6           6           7           7
           7           7           7
Primitive exponents                        R   N=          72
  3.04752488E+03  4.57369518E+02  1.03948685E+02  2.92101553E+01  9.28666296E+00
  3.16392696E+00  7.86827235E+00  1.88128854E+00  5.44249258E-01  1.68714478E-01
  4.38000000E-02  8.00000000E-01  2.51801000E+04  3.78035000E+03  8.60474000E+02
  2.42145000E+02  7.73349000E+01  2.62470000E+01  4.91765000E+02  1.16984000E+02
  3.74153000E+01  1.37834000E+01  5.45215000E+00  2.22588000E+00  3.18649000E+00
  1.14427000E+00  4.20377000E-01  1.42657000E-01  4.83000000E-02  7.50000000E-01
  1.87311370E+01  2.82539436E+00  6.40121692E-01  1.61277759E-01  3.60000000E-02
  1.10000000E+00  1.87311370E+01  2.82539436E+00  6.40121692E-01  1.61277759E-01
  3.60000000E-02  1.10000000E+00  1.87311370E+01  2.82539436E+00  6.40121692E-01
  1.61277759E-01  3.60000000E-02  1.10000000E+00  3.04752488E+03  4.57369518E+02
  1.03948685E+02  2.92101553E+01  9.28666296E+00  3.16392696E+00  7.86827235E+00
  1.88128854E+00  5.44249258E-01  1.68714478E-01  4.38000000E-02  8.00000000E-01
  4.17351146E+03  6.27457911E+02  1.42902093E+02  4.02343293E+01  1.28202129E+01
  4.39043701E+00  1.16263619E+01  2.71627981E+00  7.72218397E-01  2.12031498E-01
  6.39000000E-02  8.00000000E-01
Contraction coefficients                   R   N=          72
  1.83473713E-03  1.40373228E-02  6.88426223E-02  2.32184443E-01  4.67941348E-01
  3.62311985E-01 -1.19332420E-01 -1.60854152E-01  1.14345644E+00  1.00000000E+00
  1.00000000E+00  1.00000000E+00  1.83295985E-03  1.40341988E-02  6.90973943E-02
  2.37451980E-01  4.83033960E-01  3.39855972E-01 -2.29739142E-03 -3.07137189E-02
 -1.12528069E-01  4.50163278E-02  5.89353363E-01  4.65206287E-01 -2.51828028E-01
  6.15892514E-02  1.06018433E+00  1.00000000E+00  1.00000000E+00  1.00000000E+00
  3.34946043E-02  2.34726953E-01  8.13757326E-01  1.00000000E+00  1.00000000E+00
  1.00000000E+00  3.34946043E-02  2.34726953E-01  8.13757326E-01  1.00000000E+00
  1.00000000E+00  1.00000000E+00  3.34946043E-02  2.34726953E-01  8.13757326E-01
  1.00000000E+00  1.00000000E+00  1.00000000E+00  1.83473713E-03  1.40373228E-02
  6.88426223E-02  2.32184443E-01  4.67941348E-01  3.62311985E-01 -1.19332420E-01
 -1.60854152E-01  1.14345644E+00  1.00000000E+00  1.00000000E+00  1.00000000E+00
  1.83477216E-03  1.39946270E-02  6.85865518E-02  2.32240873E-01  4.69069948E-01
  3.60455199E-01 -1.14961182E-01 -1.69117479E-01  1.14585195E+00  1.00000000E+00
  1.00000000E+00  1.00000000E+00
P(S=P) Contraction coefficients            R   N=          72
  0.00000000E+00  0.00000000E+00  0.00000000E+00  0.00000000E+00  0.00000000E+00
  0.00000000E+00  6.89990666E-02  3.16423961E-01  7.44308291E-01  1.00000000E+00
  1.00000000E+00  0.00000000E+00  0.00000000E+00  0.00000000E+00  0.00000000E+00
  0.00000000E+00  0.00000000E+00  0.00000000E+00  3.98940088E-03  3.03177067E-02
  1.29880029E-01  3.27951072E-01  4.53527100E-01  2.52154056E-01 -1.42993147E-02
  3.23572333E-01  7.43507765E-01  1.00000000E+00  1.00000000E+00  0.00000000E+00
  0.00000000E+00  0.00000000E+00  0.00000000E+00  0.00000000E+00  0.00000000E+00
  0.00000000E+00  0.00000000E+00  0.00000000E+00  0.00000000E+00  0.00000000E+00
  0.00000000E+00  0.00000000E+00  0.00000000E+00  0.00000000E+00  0.00000000E+00
  0.00000000E+00  0.00000000E+00  0.00000000E+00  0.00000000E+00  0.00000000E+00
  0.00000000E+00  0.00000000E+00  0.00000000E+00  0.00000000E+00  6.89990666E-02
  3.16423961E-01  7.44308291E-01  1.00000000E+00  1.00000000E+00  0.00000000E+00
  0.00000000E+00  0.00000000E+00  0.00000000E+00  0.00000000E+00  0.00000000E+00
  0.00000000E+00  6.75797439E-02  3.23907296E-01  7.40895140E-01  1.00000000E+00
  1.00000000E+00  0.00000000E+00
Coordinates of each shell                  R   N=          99
 -7.76645312E-01  6.61404144E-05  3.05190769E-03 -7.76645312E-01  6.61404144E-05
  3.05190769E-03 -7.76645312E-01  6.61404144E-05  3.05190769E-03 -7.76645312E-01
  6.61404144E-05  3.05190769E-03 -7.76645312E-01  6.61404144E-05  3.05190769E-03
 -4.23197174E+00 -5.10226054E-05 -3.02356180E-04 -4.23197174E+00 -5.10226054E-05
 -3.02356180E-04 -4.23197174E+00 -5.10226054E-05 -3.02356180E-04 -4.23197174E+00
 -5.10226054E-05 -3.02356180E-04 -4.23197174E+00 -5.10226054E-05 -3.02356180E-04
 -4.23197174E+00 -5.10226054E-05 -3.02356180E-04 -1.47232342E-01  4.71864613E-03
 -1.94706608E+00 -1.47232342E-01  4.71864613E-03 -1.94706608E+00 -1.47232342E-01
  4.71864613E-03 -1.94706608E+00 -1.47232342E-01  4.71864613E-03 -1.94706608E+00
 -1.44288149E-01  1.68841549E+00  9.83566543E-01 -1.44288149E-01  1.68841549E+00
  9.83566543E-01 -1.44288149E-01  1.68841549E+00  9.83566543E-01 -1.44288149E-01
  1.68841549E+00  9.83566543E-01 -1.47177540E-01 -1.69221762E+00  9.75896145E-01
 -1.47177540E-01 -1.69221762E+00  9.75896145E-01 -1.47177540E-01 -1.69221762E+00
  9.75896145E-01 -1.47177540E-01 -1.69221762E+00  9.75896145E-01  4.86497141E+00
 -1.88972612E-05 -4.36526735E-03  4.86497141E+00 -1.88972612E-05 -4.36526735E-03
  4.86497141E+00 -1.88972612E-05 -4.36526735E-03  4.86497141E+00 -1.88972612E-05
 -4.36526735E-03  4.86497141E+00 -1.88972612E-05 -4.36526735E-03  7.09625608E+00
  1.88972612E-05  9.88326763E-04  7.09625608E+00  1.88972612E-05  9.88326763E-04
  7.09625608E+00  1.88972612E-05  9.88326763E-04  7.09625608E+00  1.88972612E-05
  9.88326763E-04  7.09625608E+00  1.88972612E-05  9.88326763E-04
Num ILSW                                   I              100
ILSW                                       I   N=         100
           0           1           0           0           2           0
           0           0           0           0         402          -1
           5           0           0           0           2           0
           0           0           0           0           1           0
           1           1           0           0           0           0
           0           0      100000           0          -1           0
           0           0           0           0           0           0
           0           0           0           1           0           0
           0 -2000000000           1           0           0           0
           0           0           4          52           0           0
           0           0           5           0           0           0
           0           0           0           7           0           1
           0           0           0           0           0           0
           0           0           0           0           0           0
           0           0           0           0           0           0
           0           0           0           0           0           0
           0           0           0           0
Num RLSW                                   I               52
RLSW                                       R   N=          52
  8.00000000E-01  7.20000000E-01  1.00000000E+00  8.10000000E-01  2.00000000E-01
  0.00000000E+00  0.00000000E+00  1.00000000E+00  0.00000000E+00  0.00000000E+00
  0.00000000E+00  0.00000000E+00  1.00000000E+00  0.00000000E+00  0.00000000E+00
  0.00000000E+00  0.00000000E+00  1.00000000E+00  0.00000000E+00  0.00000000E+00
  0.00000000E+00  0.00000000E+00  1.00000000E+00  0.00000000E+00  0.00000000E+00
  0.00000000E+00  0.00000000E+00  1.00000000E+00  0.00000000E+00  0.00000000E+00
  0.00000000E+00  0.00000000E+00  1.00000000E+00  0.00000000E+00  0.00000000E+00
  0.00000000E+00  0.00000000E+00  0.00000000E+00  1.00000000E+00  1.00000000E+00
  0.00000000E+00  1.00000000E+00  0.00000000E+00  0.00000000E+00  0.00000000E+00
  0.00000000E+00  0.00000000E+00  0.00000000E+00  0.00000000E+00  0.00000000E+00
  0.00000000E+00  0.00000000E+00
MxBond                                     I                4
NBond                                      I   N=           7
           4           1           1           1           1           1
           1
IBond                                      I   N=          28
           2           3           4           5           1           0
           0           0           1           0           0           0
           1           0           0           0           1           0
           0           0           7           0           0           0
           6           0           0           0
RBond                                      R   N=          28
  1.00000000E+00  1.00000000E+00  1.00000000E+00  1.00000000E+00  1.00000000E+00
  0.00000000E+00  0.00000000E+00  0.00000000E+00  1.00000000E+00  0.00000000E+00
  0.00000000E+00  0.00000000E+00  1.00000000E+00  0.00000000E+00  0.00000000E+00
  0.00000000E+00  1.00000000E+00  0.00000000E+00  0.00000000E+00  0.00000000E+00
  2.00000000E+00  0.00000000E+00  0.00000000E+00  0.00000000E+00  2.00000000E+00
  0.00000000E+00  0.00000000E+00  0.00000000E+00
Virial Ratio                               R      2.004577479782189E+00
SCF Energy                                 R     -5.929950382273926E+02
Total Energy                               R     -5.929950382273926E+02
RMS Force                                  R      2.729457011635213E-03
RMS Density                                R      1.782195639712293E-09
NImag                                      I                2
Job Status                                 I                1
Nuclear derivative order                   I                2
External E-field                           R   N=          35
  0.00000000E+00  0.00000000E+00  0.00000000E+00  0.00000000E+00  0.00000000E+00
  0.00000000E+00  0.00000000E+00  0.00000000E+00  0.00000000E+00  0.00000000E+00
  0.00000000E+00  0.00000000E+00  0.00000000E+00  0.00000000E+00  0.00000000E+00
  0.00000000E+00  0.00000000E+00  0.00000000E+00  0.00000000E+00  0.00000000E+00
  0.00000000E+00  0.00000000E+00  0.00000000E+00  0.00000000E+00  0.00000000E+00
  0.00000000E+00  0.00000000E+00  0.00000000E+00  0.00000000E+00  0.00000000E+00
  0.00000000E+00  0.00000000E+00  0.00000000E+00  0.00000000E+00  0.00000000E+00
IOpCl                                      I                0
IROHF                                      I                0
Alpha Orbital Energies                     R   N=          98
 -1.01415195E+02 -1.40936417E+01 -1.01046136E+01 -9.95952995E+00 -9.33136041E+00
 -7.09446299E+00 -7.08596735E+00 -7.08596643E+00 -7.20727680E-01 -6.46460777E-01
 -5.43117772E-01 -3.11330323E-01 -3.11003298E-01 -2.81088404E-01 -1.81899816E-01
 -1.79254195E-01 -1.79232105E-01 -9.56198107E-02 -9.56189799E-02 -6.81908917E-02
  1.07280364E-01  1.24526585E-01  1.43440748E-01  1.43476540E-01  1.73179370E-01
  2.00114256E-01  2.01299270E-01  2.01300957E-01  2.19566957E-01  2.19704397E-01
  2.38479125E-01  2.47789572E-01  2.47879637E-01  2.69012536E-01  2.76893717E-01
  2.76950689E-01  3.12350735E-01  3.30402170E-01  3.30818115E-01  3.59234102E-01
  3.85193629E-01  3.85313878E-01  3.89127030E-01  4.62751222E-01  4.77219816E-01
  6.38488747E-01  7.24527567E-01  7.41248586E-01  7.41310378E-01  7.69624784E-01
  7.69892953E-01  8.70820916E-01  8.96905115E-01  8.96967699E-01  9.69055885E-01
  9.89874221E-01  9.89904741E-01  1.04072911E+00  1.04078584E+00  1.07820637E+00
  1.09069424E+00  1.09099510E+00  1.12288648E+00  1.18896534E+00  1.18903315E+00
  1.20488076E+00  1.26522612E+00  1.37348325E+00  1.45746079E+00  1.59716308E+00
  1.59722218E+00  1.72235898E+00  1.78326914E+00  1.78327354E+00  1.80499221E+00
  1.80500558E+00  2.15339033E+00  2.20261096E+00  2.20268597E+00  2.21188013E+00
  2.21298334E+00  2.29200179E+00  2.48280240E+00  2.48374763E+00  2.67996109E+00
  2.80720914E+00  2.83572435E+00  2.83574317E+00  2.94860988E+00  2.94905591E+00
  3.25387920E+00  3.37699520E+00  3.55056362E+00  3.55215180E+00  4.20526316E+00
  4.40697687E+00  4.45215733E+00  4.56753274E+00
Alpha MO coefficients                      R   N=        9604
 -6.63101285E-06  2.58337795E-05 -5.41245622E-05 -2.16781704E-08 -1.06900723E-07
  1.17879696E-04 -2.48826055E-05 -3.48089920E-08 -1.35946712E-07 -4.28227408E-05
 -5.28287836E-05  6.15698753E-08  2.02317716E-07 -2.22031201E-05  1.18263587E-05
  1.19216838E-05  1.83952276E-08 -9.48002205E-09 -2.94968057E-08  9.95996924E-01
  1.51505083E-02  4.08231677E-05  9.67681789E-09  5.89996576E-08 -2.10654988E-02
 -1.77700250E-05  6.28984007E-10 -1.05170800E-08  1.88894745E-03 -4.46228903E-05
 -6.43400118E-09 -6.38440559E-08 -3.80810124E-04 -1.72475069E-05 -4.67147129E-09
 -4.30042352E-08  7.50345070E-03  7.52440086E-03  7.52440324E-03  1.87726753E-09
 -1.92559032E-08 -4.09864019E-10 -2.80395854E-05 -3.43384565E-05  4.45533480E-05
  2.33321490E-05  2.87965423E-08 -1.23772156E-05 -2.78136667E-05 -3.42013663E-05
  4.39263238E-05  2.34837912E-05  1.06854777E-05  6.22720588E-06 -2.79334360E-05
 -3.41812394E-05  4.40888555E-05  2.34004036E-05 -1.07242905E-05  6.18568159E-06
 -6.79093936E-08  2.01167491E-06 -3.36501499E-07 -1.42704163E-09 -2.44957166E-08
 -9.69987240E-05 -7.18341249E-05  3.83880585E-09 -1.00353522E-07 -3.87716554E-05
 -6.00426815E-05  4.18994677E-09  9.00167809E-08 -8.38200338E-06  1.37199140E-06
  1.37210825E-06 -8.82506455E-10 -2.81677207E-08  3.92184649E-10 -1.53394349E-06
 -6.08985028E-06 -6.28225377E-07  4.44667378E-10 -1.32322041E-09  9.20262053E-05
 -5.26187856E-05 -2.61553410E-09 -1.29159518E-07  9.37509369E-05  4.99545244E-06
 -5.27113116E-09 -1.65145436E-07  3.45142266E-06 -4.73696636E-06 -4.73725058E-06
  5.53582150E-10  3.08888598E-08 -4.86325032E-12  3.95208798E-06  1.41678689E-05
  6.08321455E-06  8.02245966E-10 -2.90195916E-08 -3.75347402E-05 -4.22347121E-05
 -4.23512268E-08 -2.00587879E-08  9.52680652E-04  1.20961011E-04  8.02939172E-08
 -9.69276853E-07  5.00738309E-06  9.78214799E-06  9.79063341E-06  1.33762468E-09
  8.32517350E-09 -5.53523922E-09  1.53452442E-07  2.63511851E-06 -8.83525427E-08
 -6.97885562E-10 -4.09263720E-09  7.07844440E-06  1.17203342E-06  3.89249827E-09
  2.40901183E-08 -6.69096626E-05 -3.19792636E-05 -1.05059479E-08 -1.12966327E-07
 -1.16004563E-04 -5.78328620E-05 -1.66422086E-08  5.05258880E-07  2.37613728E-06
  5.19444515E-06  5.19737071E-06 -5.17270451E-10 -1.36362991E-09 -9.90252154E-10
  1.05591811E-05 -4.18445114E-05 -1.59190002E-04  2.38140910E-06  7.40968681E-09
 -2.18841588E-06  1.05228321E-05 -4.15259355E-05 -1.60487572E-04  2.39676811E-06
  1.84432735E-06  1.06842527E-06  1.05106671E-05 -4.15840921E-05 -1.60192310E-04
  2.41405386E-06 -1.85871475E-06  1.06834880E-06  8.33130127E-05  2.10042445E-04
 -2.79753475E-04 -4.75903495E-09 -6.51903143E-07 -2.37290726E-04 -4.18225536E-04
 -1.09056972E-08 -1.11737024E-06  1.45513309E-03  9.93144759E-04  9.11199543E-08
  2.19968831E-06 -7.56941643E-04 -1.38805526E-05 -1.38849145E-05 -1.56132812E-08
 -2.06135769E-06  4.78636696E-10  9.92699477E-01  3.44394149E-02 -1.39506332E-03
 -2.44494396E-08 -3.34829748E-06  5.19679136E-03  1.11969840E-04  8.84629528E-09
  2.82396060E-07 -2.98707576E-03  6.16826085E-05 -3.86462768E-08  2.76461691E-07
 -7.70731092E-03 -8.41950748E-03 -8.41950503E-03  1.34621303E-08  1.96226399E-06
  1.93959218E-10  9.92988443E-01  4.96254271E-02 -7.40105209E-04 -3.75053333E-07
 -6.79650532E-08 -1.64441744E-02  9.73584967E-04  1.99698022E-06  4.49267361E-06
  7.02535281E-03 -3.61106735E-03 -1.03898649E-06 -3.61599066E-06 -9.27996841E-03
 -8.87065672E-03 -8.86966902E-03  9.26169645E-08 -1.30926652E-07 -4.61447070E-07
 -9.45872645E-06 -5.18907303E-05 -2.87630157E-06  3.44595450E-08  5.17827814E-08
 -2.31405332E-05  1.90934646E-04 -2.10491250E-07 -1.53109314E-07  3.31209529E-03
  1.88383756E-03  7.69214508E-07  2.96149515E-06 -6.17705799E-03 -2.01344996E-03
 -3.88581951E-07 -3.19448929E-06 -1.39794403E-04 -1.82062143E-04 -1.82294737E-04
  1.14916540E-07  1.92748308E-07  8.46015697E-08 -1.61808661E-04  3.02124923E-03
 -9.88731808E-04  2.62148377E-05 -3.22140129E-08 -9.51116100E-05 -1.61427468E-04
  3.01171479E-03 -9.78349150E-04  2.62914643E-05  8.39563824E-05  4.84628504E-05
 -1.61922877E-04  3.01620481E-03 -9.84086977E-04  2.64085339E-05 -8.38485390E-05
  4.76090145E-05 -1.97999410E-05 -3.78940286E-05  4.04138589E-05  9.55070669E-08
 -3.46395714E-07 -3.69147408E-04 -7.27033290E-04 -3.06424714E-07  3.48203544E-07
  2.11957966E-03  1.93348682E-04 -1.22935696E-06  1.89578505E-06 -6.37198890E-05
 -3.07733250E-05 -3.08240209E-05  2.43529620E-08 -2.19297933E-07 -1.42386690E-08
 -2.71152717E-05 -9.62979912E-05 -1.34362264E-05 -4.68971728E-09  1.88162465E-07
  1.05941976E-03 -3.10553482E-04  1.33126333E-09 -1.91603296E-06 -1.06256376E-03
 -2.84859983E-05  8.89744413E-07  7.78559117E-07 -2.06755086E-05 -6.78865309E-05
 -6.78760774E-05 -2.78836342E-08  2.14759055E-07 -1.49817893E-10 -1.42202982E-05
 -6.72686016E-05 -7.41643959E-05 -1.98455472E-09 -2.05472974E-08  5.03353904E-04
  3.95095550E-04 -2.62192253E-07  4.87462450E-07 -7.49483534E-04  1.94736240E-03
  3.96275530E-07  1.77971782E-06 -4.15063111E-05 -2.65299989E-05 -2.65767218E-05
  1.71226632E-09 -1.30294150E-08 -2.02643702E-08  1.25520191E-07  6.01186594E-06
  3.26149963E-06 -6.26282211E-09 -1.18327262E-09  1.35611550E-05 -2.30997655E-05
  3.80862162E-08  1.11416712E-08 -1.52723476E-04  1.97447002E-04 -1.18980668E-07
 -4.12775862E-08  2.83128973E-03  6.88615232E-04  3.27969645E-08  8.04683223E-07
  3.27150385E-05  8.40633863E-07  8.64341342E-07 -1.65161491E-08  2.72558669E-09
 -1.18503515E-08 -2.19233076E-05 -4.63099337E-04 -2.98866384E-04 -3.60937346E-05
  6.12941734E-08 -1.98326525E-05 -2.20183766E-05 -4.63233893E-04 -2.97667197E-04
 -3.61179735E-05  1.73266912E-05  1.00277902E-05 -2.18397769E-05 -4.63919948E-04
 -2.96175587E-04 -3.62482196E-05 -1.74018771E-05  9.98546364E-06  9.92846089E-01
  4.92603187E-02  1.87752401E-03  2.77657176E-08  4.76761635E-06 -1.12883122E-02
 -1.12184788E-03 -1.84928285E-09 -3.87185752E-06 -5.08654145E-03 -1.48926686E-03
  3.03848216E-07 -6.49845903E-06 -8.46811569E-03 -9.68985789E-03 -9.68983877E-03
  1.47957866E-08  3.36700785E-06  3.64731055E-09 -4.95865185E-04  8.09101925E-06
  4.40753170E-04  6.05136941E-09  1.01635437E-06 -6.04610813E-04  2.99722487E-04
  2.50450589E-08  1.10312578E-06  8.87417783E-03 -3.01029826E-03 -2.56625319E-07
 -6.11165944E-06 -2.72470948E-04  1.48144405E-04  1.48140997E-04 -6.34818062E-09
 -1.25840108E-06  2.04147288E-10 -1.10992804E-04  1.26194294E-04  3.75244885E-04
  4.59874849E-08  2.75545244E-07  3.02587698E-03 -1.62369291E-03  9.26570013E-07
  2.66257908E-06 -3.74235244E-02  3.17701593E-02 -4.08535629E-07  9.87261355E-06
 -7.72743859E-04 -1.28357184E-04 -1.29367246E-04 -3.25819274E-08 -6.99984099E-07
  2.40316462E-07 -2.84605371E-01  1.02274109E+00  5.00214991E-03  1.20456273E-06
  7.56034317E-06  7.60076757E-02  6.25447692E-04  2.80514253E-08  4.72659282E-07
 -2.63963540E-02 -1.80386231E-03 -2.83713245E-07 -1.90682960E-06  5.95814236E-02
  1.67132938E-02  7.72189166E-07  2.29638980E-05 -1.51907767E-02 -1.55839889E-02
 -1.55840132E-02 -9.03952188E-09  5.17938639E-07 -6.66311331E-09 -4.22965071E-05
 -6.89326443E-04  7.50508022E-04 -7.23599440E-05 -6.28160982E-08  1.45565088E-05
 -4.29381269E-05 -6.96541713E-04  7.67201102E-04 -7.07842799E-05 -1.19031520E-05
 -7.19287757E-06 -4.24810594E-05 -6.95200088E-04  7.62975812E-04 -7.17183722E-05
  1.20475084E-05 -7.23798988E-06  1.12591583E-05  5.16417581E-05  4.38183710E-05
 -4.57227288E-08  1.06573447E-06  4.51516283E-04  6.05036346E-04  1.95156565E-07
 -2.08430952E-06 -1.47737845E-02  8.59451644E-03 -9.47223158E-07 -4.19434201E-05
  7.58413944E-05  8.49428667E-07  8.55721259E-07  6.75370402E-09  3.83118550E-07
  2.57731000E-09  1.10544886E-05  5.91503233E-05 -1.72978144E-05  2.86906548E-08
  7.41375182E-07 -7.99186198E-04  5.77700096E-04 -1.49705965E-07 -2.05217762E-06
  3.40864006E-04 -2.42700010E-03  4.37882208E-07  2.41103267E-05 -4.50578351E-05
  2.92365841E-05  2.92400855E-05  1.38733905E-08 -4.84321172E-07 -1.71598978E-09
  7.60176246E-05  1.62444091E-03  4.25384760E-04 -4.07554338E-08  7.82910032E-07
 -8.42012637E-04  1.40588282E-03  2.72009660E-06  1.79105941E-06  4.81939633E-02
 -4.88609333E-02 -2.38285506E-06 -1.62588665E-05 -1.96199907E-03  2.17640298E-04
  2.16741219E-04 -3.30841535E-07 -2.99317599E-06  4.99571935E-07  1.47431039E-03
 -5.60688822E-03  9.90325689E-01  2.25278603E-04  1.35112307E-03 -3.96964326E-04
  3.14838794E-02  6.74252388E-06  4.22712975E-05  4.88626742E-03 -1.29309102E-02
 -2.59448168E-06 -1.64690553E-05 -6.80113951E-02 -1.32506914E-02 -3.53828824E-07
 -2.66878083E-05  7.69189951E-04 -4.54539504E-04 -4.54554527E-04 -1.68377369E-09
  1.22922386E-06  2.24095031E-08 -1.44682117E-04  1.37032969E-03 -5.08368343E-03
 -3.10965290E-04 -6.74197578E-08 -3.02429506E-05 -1.48003069E-04  1.36858518E-03
 -5.06747612E-03 -3.08395102E-04  2.53570983E-05  1.46101517E-05 -1.46079383E-04
  1.37161018E-03 -5.07336159E-03 -3.09669720E-04 -2.55290355E-05  1.43975952E-05
 -2.21627636E-05 -1.48233094E-04 -9.01578923E-05  3.07129476E-08 -1.48150888E-06
  1.82930172E-03  1.00984438E-03 -1.22858405E-07  7.38735482E-06  3.35523230E-02
 -1.48763200E-02  1.74564175E-06  7.68509022E-05  1.06019282E-04 -3.63776640E-05
 -3.63677227E-05  1.82850861E-09  1.45465936E-07 -3.84905326E-09 -2.30373662E-05
 -7.42462908E-05  3.80380524E-05 -3.87242105E-08 -1.18300313E-06 -1.19028199E-04
  4.54639551E-04  2.11986557E-07  6.87257401E-06 -7.04758162E-03  5.47475287E-03
 -8.17067339E-07 -3.86351978E-05 -1.23298385E-04 -2.98387977E-05 -2.98297129E-05
 -1.08485184E-08  1.34054587E-07  6.95545412E-10 -2.38204451E-07 -1.59079797E-06
  8.92452543E-08 -8.02892844E-05 -1.93272113E-05  8.63796640E-06 -1.31451819E-06
  3.17502586E-04  7.67239371E-05 -7.89309422E-06  1.66292044E-05  4.49966519E-04
  1.09633001E-04 -4.51804299E-08 -1.87088473E-05  1.89479767E-05  1.44741609E-04
  3.48163563E-05 -9.29895494E-05  3.48595940E-08 -4.25506286E-08 -5.35421894E-04
  9.63296774E-01  2.32027442E-01  1.33617734E-07 -1.65990236E-05  2.87655797E-02
  6.92878064E-03 -3.02891167E-06  5.13135770E-06 -1.13072435E-02 -2.72387062E-03
  1.77615846E-05  2.48908230E-06  5.02215608E-03  1.21036679E-03 -6.70756039E-07
  1.40495354E-06 -7.85736852E-07  3.19975719E-04  7.70680060E-05  6.06752915E-06
  1.37333599E-05 -1.33917473E-04  1.08560342E-03  6.22386848E-05 -2.47644602E-05
 -1.15543404E-05 -5.88540827E-05  5.33830337E-04 -4.46247167E-03 -2.54684908E-04
 -4.36409229E-05 -1.69738068E-05  4.38113580E-05 -4.12055060E-04  3.37912229E-03
  1.93940461E-04 -3.97029421E-05  2.55060329E-06  3.99826055E-08  1.68458959E-07
 -6.54832177E-08  3.59662556E-05  8.69489727E-06 -3.33486047E-06 -1.26796638E-06
 -1.38406085E-04 -3.36202425E-05 -7.89491051E-06  4.82711612E-06  9.53420426E-04
  2.32266161E-04 -6.26860955E-08  9.32240561E-07 -7.13661145E-07 -6.95347129E-06
 -1.70557138E-06  4.03909757E-06 -7.41281515E-08 -2.65922485E-07  1.86993330E-08
 -1.72082236E-05 -4.23167662E-06  2.86279380E-06 -1.32321854E-06  1.06160026E-04
  2.60521520E-05  1.39838010E-07 -1.11039807E-06 -4.18445902E-04 -1.02568062E-04
 -1.15131375E-08  1.32335768E-07 -5.44542428E-07 -9.69246245E-06 -2.35057507E-06
  1.67707743E-06 -2.07244251E-07 -1.50602295E-06  6.02049329E-07  1.94375590E-05
 -8.06482299E-05  7.77955202E-06 -4.62849046E-06 -7.50776739E-05  3.12724307E-04
 -1.91282440E-06 -1.53306920E-05 -1.09973835E-04  4.61756396E-04 -2.98666774E-08
 -8.17154352E-05  8.21309505E-05 -3.48986224E-05  1.44687249E-04  2.20956931E-05
  1.54506842E-07 -5.45250470E-07 -1.26120913E-03 -2.32027945E-01  9.63295855E-01
  6.69294878E-08 -3.81889957E-05 -6.92880762E-03  2.87661913E-02 -1.92574919E-06
  1.17709679E-05  2.72364076E-03 -1.13088795E-02 -1.89376712E-05 -9.35182752E-06
 -1.21007108E-03  5.02658004E-03 -1.46831332E-06  5.03124949E-06 -4.05556642E-06
 -7.71497523E-05  3.20282841E-04 -1.37922993E-06  5.68133491E-05 -5.50722045E-04
  4.56562585E-03  2.60965075E-04  5.99784492E-06 -4.79043639E-05 -1.72199695E-05
  1.58921129E-04 -1.34171467E-03 -7.56822295E-05  5.79754539E-07 -2.85567753E-05
 -4.07929062E-05  3.86261328E-04 -3.21766125E-03 -1.83239016E-04  1.98830757E-05
 -3.31408494E-05  3.11971259E-08  1.98928069E-07 -2.62270952E-07 -8.67879648E-06