 Entering Gaussian System, Link 0=g16
 Initial command:
 /usr/local/g16_AVX//g16/l1.exe "/scratch/alanqf/0145-54587.ixchel.mda.cinvestav.mx/Gau-23261.inp" -scrdir="/scratch/alanqf/0145-54587.ixchel.mda.cinvestav.mx/"
 Entering Link 1 = /usr/local/g16_AVX//g16/l1.exe PID=     23262.
  
 Copyright (c) 1988-2017, Gaussian, Inc.  All Rights Reserved.
  
 This is part of the Gaussian(R) 16 program.  It is based on
 the Gaussian(R) 09 system (copyright 2009, Gaussian, Inc.),
 the Gaussian(R) 03 system (copyright 2003, Gaussian, Inc.),
 the Gaussian(R) 98 system (copyright 1998, Gaussian, Inc.),
 the Gaussian(R) 94 system (copyright 1995, Gaussian, Inc.),
 the Gaussian 92(TM) system (copyright 1992, Gaussian, Inc.),
 the Gaussian 90(TM) system (copyright 1990, Gaussian, Inc.),
 the Gaussian 88(TM) system (copyright 1988, Gaussian, Inc.),
 the Gaussian 86(TM) system (copyright 1986, Carnegie Mellon
 University), and the Gaussian 82(TM) system (copyright 1983,
 Carnegie Mellon University). Gaussian is a federally registered
 trademark of Gaussian, Inc.
  
 This software contains proprietary and confidential information,
 including trade secrets, belonging to Gaussian, Inc.
  
 This software is provided under written license and may be
 used, copied, transmitted, or stored only in accord with that
 written license.
  
 The following legend is applicable only to US Government
 contracts under FAR:
  
                    RESTRICTED RIGHTS LEGEND
  
 Use, reproduction and disclosure by the US Government is
 subject to restrictions as set forth in subparagraphs (a)
 and (c) of the Commercial Computer Software - Restricted
 Rights clause in FAR 52.227-19.
  
 Gaussian, Inc.
 340 Quinnipiac St., Bldg. 40, Wallingford CT 06492
  
  
 ---------------------------------------------------------------
 Warning -- This program may not be used in any manner that
 competes with the business of Gaussian, Inc. or will provide
 assistance to any competitor of Gaussian, Inc.  The licensee
 of this program is prohibited from giving any competitor of
 Gaussian, Inc. access to this program.  By using this program,
 the user acknowledges that Gaussian, Inc. is engaged in the
 business of creating and licensing software in the field of
 computational chemistry and represents and warrants to the
 licensee that it is not a competitor of Gaussian, Inc. and that
 it will not use this program in any manner prohibited above.
 ---------------------------------------------------------------
  

 Cite this work as:
 Gaussian 16, Revision B.01,
 M. J. Frisch, G. W. Trucks, H. B. Schlegel, G. E. Scuseria, 
 M. A. Robb, J. R. Cheeseman, G. Scalmani, V. Barone, 
 G. A. Petersson, H. Nakatsuji, X. Li, M. Caricato, A. V. Marenich, 
 J. Bloino, B. G. Janesko, R. Gomperts, B. Mennucci, H. P. Hratchian, 
 J. V. Ortiz, A. F. Izmaylov, J. L. Sonnenberg, D. Williams-Young, 
 F. Ding, F. Lipparini, F. Egidi, J. Goings, B. Peng, A. Petrone, 
 T. Henderson, D. Ranasinghe, V. G. Zakrzewski, J. Gao, N. Rega, 
 G. Zheng, W. Liang, M. Hada, M. Ehara, K. Toyota, R. Fukuda, 
 J. Hasegawa, M. Ishida, T. Nakajima, Y. Honda, O. Kitao, H. Nakai, 
 T. Vreven, K. Throssell, J. A. Montgomery, Jr., J. E. Peralta, 
 F. Ogliaro, M. J. Bearpark, J. J. Heyd, E. N. Brothers, K. N. Kudin, 
 V. N. Staroverov, T. A. Keith, R. Kobayashi, J. Normand, 
 K. Raghavachari, A. P. Rendell, J. C. Burant, S. S. Iyengar, 
 J. Tomasi, M. Cossi, J. M. Millam, M. Klene, C. Adamo, R. Cammi, 
 J. W. Ochterski, R. L. Martin, K. Morokuma, O. Farkas, 
 J. B. Foresman, and D. J. Fox, Gaussian, Inc., Wallingford CT, 2016.
 
 ******************************************
 Gaussian 16:  ES64L-G16RevB.01 20-Dec-2017
                13-Oct-2024 
 ******************************************
 %NProcShared=26
 Will use up to   26 processors via shared memory.
 %MEM=20GB
 %chk=CHKfiles/0145.chk
 ---------------------------------------------------------------------
 #p b3lyp 6-31++g(d,p) scf=verytight NoSymm freq=noraman int=ultrafine
 ---------------------------------------------------------------------
 1/10=4,30=1,38=1/1,3;
 2/12=2,15=1,17=6,18=5,40=1/2;
 3/5=1,6=6,7=1111,11=2,25=1,30=1,71=2,74=-5,75=-5,140=1/1,2,3;
 4//1;
 5/5=2,17=3,38=5,98=1/2;
 8/6=4,10=90,11=11/1;
 11/6=1,8=1,9=11,15=111,16=1,31=1/1,2,10;
 10/6=1,31=1/2;
 6/7=2,8=2,9=2,10=2,28=1/1;
 7/8=1,10=1,25=1,30=1/1,2,3,16;
 1/10=4,30=1/3;
 99//99;
 Leave Link    1 at Sun Oct 13 09:52:16 2024, MaxMem=  2684354560 cpu:               1.4 elap:               0.1
 (Enter /usr/local/g16_AVX//g16/l101.exe)
 ------------------------
 RxCoord=4.39716 DE=45.21
 ------------------------
 Symbolic Z-matrix:
 Charge = -1 Multiplicity = 1
 C                    -0.41098   0.00004   0.00162 
 Cl                   -2.23946  -0.00003  -0.00016 
 H                    -0.07791   0.0025   -1.03034 
 H                    -0.07635   0.89347   0.52048 
 H                    -0.07788  -0.89548   0.51642 
 C                     2.57443  -0.00001  -0.00231 
 N                     3.75518   0.00001   0.00052 
 
 ITRead=  0  0  0  0  0  0  0
 MicOpt= -1 -1 -1 -1 -1 -1 -1
 NAtoms=      7 NQM=        7 NQMF=       0 NMMI=      0 NMMIF=      0
                NMic=       0 NMicF=      0.
                    Isotopes and Nuclear Properties:
 (Nuclear quadrupole moments (NQMom) in fm**2, nuclear magnetic moments (NMagM)
  in nuclear magnetons)

  Atom         1           2           3           4           5           6           7
 IAtWgt=          12          35           1           1           1          12          14
 AtmWgt=  12.0000000  34.9688527   1.0078250   1.0078250   1.0078250  12.0000000  14.0030740
 NucSpn=           0           3           1           1           1           0           2
 AtZEff=  -0.0000000  -0.0000000  -0.0000000  -0.0000000  -0.0000000  -0.0000000  -0.0000000
 NQMom=    0.0000000  -8.1650000   0.0000000   0.0000000   0.0000000   0.0000000   2.0440000
 NMagM=    0.0000000   0.8218740   2.7928460   2.7928460   2.7928460   0.0000000   0.4037610
 AtZNuc=   6.0000000  17.0000000   1.0000000   1.0000000   1.0000000   6.0000000   7.0000000
 Leave Link  101 at Sun Oct 13 09:52:16 2024, MaxMem=  2684354560 cpu:               2.9 elap:               0.2
 (Enter /usr/local/g16_AVX//g16/l103.exe)

 GradGradGradGradGradGradGradGradGradGradGradGradGradGradGradGradGradGrad
 Berny optimization.
 Initialization pass.
 Trust Radius=3.00D-01 FncErr=1.00D-07 GrdErr=1.00D-07 EigMax=2.50D+02 EigMin=1.00D-04
 Number of steps in this run=      2 maximum allowed number of steps=      2.
 GradGradGradGradGradGradGradGradGradGradGradGradGradGradGradGradGradGrad

 Leave Link  103 at Sun Oct 13 09:52:16 2024, MaxMem=  2684354560 cpu:               0.6 elap:               0.1
 (Enter /usr/local/g16_AVX//g16/l202.exe)
                          Input orientation:                          
 ---------------------------------------------------------------------
 Center     Atomic      Atomic             Coordinates (Angstroms)
 Number     Number       Type             X           Y           Z
 ---------------------------------------------------------------------
      1          6           0       -0.410983    0.000035    0.001615
      2         17           0       -2.239463   -0.000027   -0.000160
      3          1           0       -0.077912    0.002497   -1.030343
      4          1           0       -0.076354    0.893471    0.520481
      5          1           0       -0.077883   -0.895483    0.516422
      6          6           0        2.574432   -0.000010   -0.002310
      7          7           0        3.755177    0.000010    0.000523
 ---------------------------------------------------------------------
                    Distance matrix (angstroms):
                    1          2          3          4          5
     1  C    0.000000
     2  Cl   1.828481   0.000000
     3  H    1.084380   2.394491   0.000000
     4  H    1.086014   2.397592   1.788545   0.000000
     5  H    1.085327   2.396065   1.788533   1.788959   0.000000
     6  C    2.985418   4.813895   2.844607   2.845749   2.847056
     7  N    4.166160   5.994640   3.969290   3.968534   3.969938
                    6          7
     6  C    0.000000
     7  N    1.180748   0.000000
 Symmetry turned off by external request.
 Stoichiometry    C2H3ClN(1-)
 Framework group  C1[X(C2H3ClN)]
 Deg. of freedom    15
 Full point group                 C1      NOp   1
 Rotational constants (GHZ):         156.7301259           1.1082214           1.1082192
 Leave Link  202 at Sun Oct 13 09:52:16 2024, MaxMem=  2684354560 cpu:               0.2 elap:               0.0
 (Enter /usr/local/g16_AVX//g16/l301.exe)
 Standard basis: 6-31++G(d,p) (6D, 7F)
 Ernie: Thresh=  0.10000D-02 Tol=  0.10000D-05 Strict=F.
    98 basis functions,   176 primitive gaussians,    98 cartesian basis functions
    20 alpha electrons       20 beta electrons
       nuclear repulsion energy       108.8509414321 Hartrees.
 IExCor=  402 DFT=T Ex+Corr=B3LYP ExCW=0 ScaHFX=  0.200000
 ScaDFX=  0.800000  0.720000  1.000000  0.810000 ScalE2=  1.000000  1.000000
 IRadAn=      5 IRanWt=     -1 IRanGd=            0 ICorTp=0 IEmpDi=  4
 NAtoms=    7 NActive=    7 NUniq=    7 SFac= 1.00D+00 NAtFMM=   60 NAOKFM=F Big=F
 Integral buffers will be    131072 words long.
 Raffenetti 2 integral format.
 Two-electron integral symmetry is turned off.
 Leave Link  301 at Sun Oct 13 09:52:16 2024, MaxMem=  2684354560 cpu:               1.3 elap:               0.1
 (Enter /usr/local/g16_AVX//g16/l302.exe)
 NPDir=0 NMtPBC=     1 NCelOv=     1 NCel=       1 NClECP=     1 NCelD=      1
         NCelK=      1 NCelE2=     1 NClLst=     1 CellRange=     0.0.
 One-electron integrals computed using PRISM.
 NBasis=    98 RedAO= T EigKep=  1.51D-04  NBF=    98
 NBsUse=    98 1.00D-06 EigRej= -1.00D+00 NBFU=    98
 Precomputing XC quadrature grid using
 IXCGrd= 4 IRadAn=           5 IRanWt=          -1 IRanGd=           0 AccXCQ= 0.00D+00.
 Generated NRdTot=       0 NPtTot=           0 NUsed=           0 NTot=          32
 NSgBfM=    98    98    98    98    98 MxSgAt=     7 MxSgA2=     7.
 Leave Link  302 at Sun Oct 13 09:52:17 2024, MaxMem=  2684354560 cpu:               4.0 elap:               0.2
 (Enter /usr/local/g16_AVX//g16/l303.exe)
 DipDrv:  MaxL=1.
 Leave Link  303 at Sun Oct 13 09:52:17 2024, MaxMem=  2684354560 cpu:               0.8 elap:               0.1
 (Enter /usr/local/g16_AVX//g16/l401.exe)
 ExpMin= 3.60D-02 ExpMax= 2.52D+04 ExpMxC= 3.78D+03 IAcc=3 IRadAn=         5 AccDes= 0.00D+00
 Harris functional with IExCor=  402 and IRadAn=       5 diagonalized for initial guess.
 HarFok:  IExCor=  402 AccDes= 0.00D+00 IRadAn=         5 IDoV= 1 UseB2=F ITyADJ=14
 ICtDFT=  3500011 ScaDFX=  1.000000  1.000000  1.000000  1.000000
 FoFCou: FMM=F IPFlag=           0 FMFlag=      100000 FMFlg1=           0
         NFxFlg=           0 DoJE=T BraDBF=F KetDBF=T FulRan=T
         wScrn=  0.000000 ICntrl=       500 IOpCl=  0 I1Cent=   200000004 NGrid=           0
         NMat0=    1 NMatS0=      1 NMatT0=    0 NMatD0=    1 NMtDS0=    0 NMtDT0=    0
 Symmetry not used in FoFCou.
 Harris En= -593.079326620227    
 JPrj=0 DoOrth=F DoCkMO=F.
 Leave Link  401 at Sun Oct 13 09:52:17 2024, MaxMem=  2684354560 cpu:               5.7 elap:               0.3
 (Enter /usr/local/g16_AVX//g16/l502.exe)
 Keep R1 ints in memory in canonical form, NReq=35752935.
 FoFCou: FMM=F IPFlag=           0 FMFlag=           0 FMFlg1=           0
         NFxFlg=           0 DoJE=F BraDBF=F KetDBF=F FulRan=T
         wScrn=  0.000000 ICntrl=       600 IOpCl=  0 I1Cent=           0 NGrid=           0
         NMat0=    1 NMatS0=   4851 NMatT0=    0 NMatD0=    1 NMtDS0=    0 NMtDT0=    0
 Symmetry not used in FoFCou.
 Two-electron integral symmetry not used.
 Closed shell SCF:
 Using DIIS extrapolation, IDIIS=  1040.
 NGot=  2684354560 LenX=  2672563405 LenY=  2672553360
 Requested convergence on RMS density matrix=1.00D-08 within 128 cycles.
 Requested convergence on MAX density matrix=1.00D-06.
 Requested convergence on             energy=1.00D-06.
 No special actions if energy rises.

 Cycle   1  Pass 1  IDiag  1:
 E= -592.842829662017    
 DIIS: error= 3.49D-02 at cycle   1 NSaved=   1.
 NSaved= 1 IEnMin= 1 EnMin= -592.842829662017     IErMin= 1 ErrMin= 3.49D-02
 ErrMax= 3.49D-02  0.00D+00 EMaxC= 1.00D-01 BMatC= 1.31D-01 BMatP= 1.31D-01
 IDIUse=3 WtCom= 6.51D-01 WtEn= 3.49D-01
 Coeff-Com:  0.100D+01
 Coeff-En:   0.100D+01
 Coeff:      0.100D+01
 Gap=     0.633 Goal=   None    Shift=    0.000
 GapD=    0.633 DampG=2.000 DampE=0.500 DampFc=1.0000 IDamp=-1.
 RMSDP=6.94D-02 MaxDP=2.42D+00              OVMax= 3.81D-01

 Cycle   2  Pass 1  IDiag  1:
 E= -592.638611858876     Delta-E=        0.204217803141 Rises=F Damp=F
 DIIS: error= 5.01D-02 at cycle   2 NSaved=   2.
 NSaved= 2 IEnMin= 1 EnMin= -592.842829662017     IErMin= 1 ErrMin= 3.49D-02
 ErrMax= 5.01D-02  0.00D+00 EMaxC= 1.00D-01 BMatC= 3.01D-01 BMatP= 1.31D-01
 IDIUse=2 WtCom= 0.00D+00 WtEn= 1.00D+00
 Coeff-En:   0.687D+00 0.313D+00
 Coeff:      0.687D+00 0.313D+00
 Gap=     0.152 Goal=   None    Shift=    0.000
 RMSDP=6.80D-02 MaxDP=2.41D+00 DE= 2.04D-01 OVMax= 2.41D-01

 Cycle   3  Pass 1  IDiag  1:
 E= -592.983449759083     Delta-E=       -0.344837900207 Rises=F Damp=F
 DIIS: error= 8.03D-03 at cycle   3 NSaved=   3.
 NSaved= 3 IEnMin= 3 EnMin= -592.983449759083     IErMin= 3 ErrMin= 8.03D-03
 ErrMax= 8.03D-03  0.00D+00 EMaxC= 1.00D-01 BMatC= 1.07D-02 BMatP= 1.31D-01
 IDIUse=3 WtCom= 9.20D-01 WtEn= 8.03D-02
 Coeff-Com:  0.275D+00 0.111D+00 0.614D+00
 Coeff-En:   0.000D+00 0.000D+00 0.100D+01
 Coeff:      0.253D+00 0.102D+00 0.645D+00
 Gap=     0.182 Goal=   None    Shift=    0.000
 RMSDP=2.45D-03 MaxDP=4.12D-02 DE=-3.45D-01 OVMax= 5.10D-02

 Cycle   4  Pass 1  IDiag  1:
 E= -592.988424024269     Delta-E=       -0.004974265186 Rises=F Damp=F
 DIIS: error= 1.22D-02 at cycle   4 NSaved=   4.
 NSaved= 4 IEnMin= 4 EnMin= -592.988424024269     IErMin= 3 ErrMin= 8.03D-03
 ErrMax= 1.22D-02  0.00D+00 EMaxC= 1.00D-01 BMatC= 7.03D-03 BMatP= 1.07D-02
 IDIUse=3 WtCom= 8.78D-01 WtEn= 1.22D-01
 Coeff-Com:  0.508D-01-0.229D-01 0.485D+00 0.487D+00
 Coeff-En:   0.000D+00 0.000D+00 0.377D+00 0.623D+00
 Coeff:      0.446D-01-0.201D-01 0.472D+00 0.503D+00
 Gap=     0.172 Goal=   None    Shift=    0.000
 RMSDP=9.03D-04 MaxDP=1.50D-02 DE=-4.97D-03 OVMax= 2.95D-02

 Cycle   5  Pass 1  IDiag  1:
 E= -592.994775942988     Delta-E=       -0.006351918719 Rises=F Damp=F
 DIIS: error= 2.46D-03 at cycle   5 NSaved=   5.
 NSaved= 5 IEnMin= 5 EnMin= -592.994775942988     IErMin= 5 ErrMin= 2.46D-03
 ErrMax= 2.46D-03  0.00D+00 EMaxC= 1.00D-01 BMatC= 2.63D-04 BMatP= 7.03D-03
 IDIUse=3 WtCom= 9.75D-01 WtEn= 2.46D-02
 Coeff-Com:  0.161D-01-0.111D-01 0.217D+00 0.273D+00 0.505D+00
 Coeff-En:   0.000D+00 0.000D+00 0.000D+00 0.000D+00 0.100D+01
 Coeff:      0.157D-01-0.108D-01 0.212D+00 0.267D+00 0.517D+00
 Gap=     0.176 Goal=   None    Shift=    0.000
 RMSDP=2.50D-04 MaxDP=3.89D-03 DE=-6.35D-03 OVMax= 6.44D-03

 Cycle   6  Pass 1  IDiag  1:
 E= -592.995010710265     Delta-E=       -0.000234767277 Rises=F Damp=F
 DIIS: error= 8.29D-04 at cycle   6 NSaved=   6.
 NSaved= 6 IEnMin= 6 EnMin= -592.995010710265     IErMin= 6 ErrMin= 8.29D-04
 ErrMax= 8.29D-04  0.00D+00 EMaxC= 1.00D-01 BMatC= 2.81D-05 BMatP= 2.63D-04
 IDIUse=3 WtCom= 9.92D-01 WtEn= 8.29D-03
 Coeff-Com:  0.293D-02-0.562D-02 0.589D-01 0.752D-01 0.270D+00 0.599D+00
 Coeff-En:   0.000D+00 0.000D+00 0.000D+00 0.000D+00 0.835D-01 0.917D+00
 Coeff:      0.291D-02-0.558D-02 0.584D-01 0.746D-01 0.268D+00 0.602D+00
 Gap=     0.175 Goal=   None    Shift=    0.000
 RMSDP=6.77D-05 MaxDP=1.17D-03 DE=-2.35D-04 OVMax= 1.60D-03

 Cycle   7  Pass 1  IDiag  1:
 E= -592.995037759560     Delta-E=       -0.000027049295 Rises=F Damp=F
 DIIS: error= 6.30D-05 at cycle   7 NSaved=   7.
 NSaved= 7 IEnMin= 7 EnMin= -592.995037759560     IErMin= 7 ErrMin= 6.30D-05
 ErrMax= 6.30D-05  0.00D+00 EMaxC= 1.00D-01 BMatC= 3.84D-07 BMatP= 2.81D-05
 IDIUse=1 WtCom= 1.00D+00 WtEn= 0.00D+00
 Coeff-Com:  0.336D-03-0.821D-03 0.278D-02 0.220D-02 0.425D-01 0.179D+00
 Coeff-Com:  0.774D+00
 Coeff:      0.336D-03-0.821D-03 0.278D-02 0.220D-02 0.425D-01 0.179D+00
 Coeff:      0.774D+00
 Gap=     0.175 Goal=   None    Shift=    0.000
 RMSDP=1.28D-05 MaxDP=2.20D-04 DE=-2.70D-05 OVMax= 2.56D-04

 Cycle   8  Pass 1  IDiag  1:
 E= -592.995038211923     Delta-E=       -0.000000452363 Rises=F Damp=F
 DIIS: error= 8.85D-06 at cycle   8 NSaved=   8.
 NSaved= 8 IEnMin= 8 EnMin= -592.995038211923     IErMin= 8 ErrMin= 8.85D-06
 ErrMax= 8.85D-06  0.00D+00 EMaxC= 1.00D-01 BMatC= 1.31D-08 BMatP= 3.84D-07
 IDIUse=1 WtCom= 1.00D+00 WtEn= 0.00D+00
 Coeff-Com:  0.865D-04-0.113D-03 0.313D-04 0.176D-03 0.879D-02 0.406D-01
 Coeff-Com:  0.228D+00 0.723D+00
 Coeff:      0.865D-04-0.113D-03 0.313D-04 0.176D-03 0.879D-02 0.406D-01
 Coeff:      0.228D+00 0.723D+00
 Gap=     0.175 Goal=   None    Shift=    0.000
 RMSDP=2.18D-06 MaxDP=5.65D-05 DE=-4.52D-07 OVMax= 4.58D-05

 Cycle   9  Pass 1  IDiag  1:
 E= -592.995038225874     Delta-E=       -0.000000013951 Rises=F Damp=F
 DIIS: error= 2.87D-06 at cycle   9 NSaved=   9.
 NSaved= 9 IEnMin= 9 EnMin= -592.995038225874     IErMin= 9 ErrMin= 2.87D-06
 ErrMax= 2.87D-06  0.00D+00 EMaxC= 1.00D-01 BMatC= 1.37D-09 BMatP= 1.31D-08
 IDIUse=1 WtCom= 1.00D+00 WtEn= 0.00D+00
 Coeff-Com: -0.679D-05 0.695D-05-0.142D-03 0.961D-04 0.132D-02 0.530D-02
 Coeff-Com:  0.408D-01 0.284D+00 0.669D+00
 Coeff:     -0.679D-05 0.695D-05-0.142D-03 0.961D-04 0.132D-02 0.530D-02
 Coeff:      0.408D-01 0.284D+00 0.669D+00
 Gap=     0.175 Goal=   None    Shift=    0.000
 RMSDP=6.42D-07 MaxDP=1.89D-05 DE=-1.40D-08 OVMax= 1.11D-05

 Cycle  10  Pass 1  IDiag  1:
 E= -592.995038227359     Delta-E=       -0.000000001486 Rises=F Damp=F
 DIIS: error= 4.55D-07 at cycle  10 NSaved=  10.
 NSaved=10 IEnMin=10 EnMin= -592.995038227359     IErMin=10 ErrMin= 4.55D-07
 ErrMax= 4.55D-07  0.00D+00 EMaxC= 1.00D-01 BMatC= 2.56D-11 BMatP= 1.37D-09
 IDIUse=1 WtCom= 1.00D+00 WtEn= 0.00D+00
 Coeff-Com: -0.720D-05 0.628D-05-0.124D-04 0.434D-04 0.207D-04-0.501D-03
 Coeff-Com: -0.133D-02 0.257D-01 0.153D+00 0.823D+00
 Coeff:     -0.720D-05 0.628D-05-0.124D-04 0.434D-04 0.207D-04-0.501D-03
 Coeff:     -0.133D-02 0.257D-01 0.153D+00 0.823D+00
 Gap=     0.175 Goal=   None    Shift=    0.000
 RMSDP=1.49D-07 MaxDP=3.29D-06 DE=-1.49D-09 OVMax= 1.86D-06

 Cycle  11  Pass 1  IDiag  1:
 E= -592.995038227393     Delta-E=       -0.000000000033 Rises=F Damp=F
 DIIS: error= 4.54D-08 at cycle  11 NSaved=  11.
 NSaved=11 IEnMin=11 EnMin= -592.995038227393     IErMin=11 ErrMin= 4.54D-08
 ErrMax= 4.54D-08  0.00D+00 EMaxC= 1.00D-01 BMatC= 2.26D-13 BMatP= 2.56D-11
 IDIUse=1 WtCom= 1.00D+00 WtEn= 0.00D+00
 Coeff-Com: -0.105D-05 0.595D-06-0.726D-05-0.972D-05-0.465D-04-0.142D-03
 Coeff-Com: -0.239D-03-0.218D-02 0.487D-02 0.679D-01 0.930D+00
 Coeff:     -0.105D-05 0.595D-06-0.726D-05-0.972D-05-0.465D-04-0.142D-03
 Coeff:     -0.239D-03-0.218D-02 0.487D-02 0.679D-01 0.930D+00
 Gap=     0.175 Goal=   None    Shift=    0.000
 RMSDP=2.91D-08 MaxDP=5.46D-07 DE=-3.33D-11 OVMax= 3.39D-07

 Cycle  12  Pass 1  IDiag  1:
 E= -592.995038227393     Delta-E=        0.000000000000 Rises=F Damp=F
 DIIS: error= 6.03D-09 at cycle  12 NSaved=  12.
 NSaved=12 IEnMin=11 EnMin= -592.995038227393     IErMin=12 ErrMin= 6.03D-09
 ErrMax= 6.03D-09  0.00D+00 EMaxC= 1.00D-01 BMatC= 3.39D-15 BMatP= 2.26D-13
 IDIUse=1 WtCom= 1.00D+00 WtEn= 0.00D+00
 Coeff-Com: -0.561D-07 0.147D-07-0.901D-06-0.206D-05-0.853D-05-0.185D-04
 Coeff-Com: -0.386D-04-0.823D-03-0.207D-02-0.136D-02 0.115D+00 0.889D+00
 Coeff:     -0.561D-07 0.147D-07-0.901D-06-0.206D-05-0.853D-05-0.185D-04
 Coeff:     -0.386D-04-0.823D-03-0.207D-02-0.136D-02 0.115D+00 0.889D+00
 Gap=     0.175 Goal=   None    Shift=    0.000
 RMSDP=1.78D-09 MaxDP=3.21D-08 DE= 2.27D-13 OVMax= 3.79D-08

 SCF Done:  E(RB3LYP) =  -592.995038227     A.U. after   12 cycles
            NFock= 12  Conv=0.18D-08     -V/T= 2.0046
 KE= 5.902929840274D+02 PE=-1.627230556826D+03 EE= 3.350915931387D+02
 Leave Link  502 at Sun Oct 13 09:52:19 2024, MaxMem=  2684354560 cpu:              34.0 elap:               1.6
 (Enter /usr/local/g16_AVX//g16/l801.exe)
 DoSCS=F DFT=T ScalE2(SS,OS)=  1.000000  1.000000
 Range of M.O.s used for correlation:     1    98
 NBasis=    98 NAE=    20 NBE=    20 NFC=     0 NFV=     0
 NROrb=     98 NOA=    20 NOB=    20 NVA=    78 NVB=    78

 **** Warning!!: The largest alpha MO coefficient is  0.30241743D+02

 Leave Link  801 at Sun Oct 13 09:52:19 2024, MaxMem=  2684354560 cpu:               0.6 elap:               0.1
 (Enter /usr/local/g16_AVX//g16/l1101.exe)
 Using compressed storage, NAtomX=     7.
 Will process      8 centers per pass.
 Leave Link 1101 at Sun Oct 13 09:52:19 2024, MaxMem=  2684354560 cpu:               3.5 elap:               0.2
 (Enter /usr/local/g16_AVX//g16/l1102.exe)
 Symmetrizing basis deriv contribution to polar:
 IMax=3 JMax=2 DiffMx= 0.00D+00
 Leave Link 1102 at Sun Oct 13 09:52:19 2024, MaxMem=  2684354560 cpu:               0.7 elap:               0.1
 (Enter /usr/local/g16_AVX//g16/l1110.exe)
 Forming Gx(P) for the SCF density, NAtomX=     7.
 Integral derivatives from FoFJK, PRISM(SPDF).
 Do as many integral derivatives as possible in FoFJK.
 G2DrvN: MDV=    2684353864.
 G2DrvN: will do     8 centers at a time, making    1 passes.
 Calling FoFCou, ICntrl=  3107 FMM=F I1Cent=   0 AccDes= 0.00D+00.
 FoFJK:  IHMeth= 1 ICntrl=    3107 DoSepK=F KAlg= 0 I1Cent=           0 FoldK=F
 IRaf=         0 NMat=       1 IRICut=       1 DoRegI=T DoRafI=F ISym2E= 0 IDoP0=0 IntGTp=1.
 FoFCou: FMM=F IPFlag=           0 FMFlag=      100000 FMFlg1=           0
         NFxFlg=           0 DoJE=F BraDBF=F KetDBF=F FulRan=T
         wScrn=  0.000000 ICntrl=      3107 IOpCl=  0 I1Cent=           0 NGrid=           0
         NMat0=    1 NMatS0=      1 NMatT0=    0 NMatD0=    1 NMtDS0=    0 NMtDT0=    0
 Symmetry not used in FoFCou.
 End of G2Drv F.D. properties file   721 does not exist.
 End of G2Drv F.D. properties file   722 does not exist.
 End of G2Drv F.D. properties file   788 does not exist.
 Leave Link 1110 at Sun Oct 13 09:52:20 2024, MaxMem=  2684354560 cpu:              37.2 elap:               1.5
 (Enter /usr/local/g16_AVX//g16/l1002.exe)
 Minotr:  Closed shell wavefunction.
          IDoAtm=1111111
          Direct CPHF calculation.
          Differentiating once with respect to electric field.
                with respect to dipole field.
          Differentiating once with respect to nuclear coordinates.
          Requested convergence is 1.0D-08 RMS, and 1.0D-07 maximum.
          Secondary convergence is 1.0D-12 RMS, and 1.0D-12 maximum.
          NewPWx=T KeepS1=F KeepF1=F KeepIn=T MapXYZ=F SortEE=F KeepMc=T.
         2136 words used for storage of precomputed grid.
 Keep R1 ints in memory in canonical form, NReq=35668397.
 FoFCou: FMM=F IPFlag=           0 FMFlag=           0 FMFlg1=           0
         NFxFlg=           0 DoJE=F BraDBF=F KetDBF=F FulRan=T
         wScrn=  0.000000 ICntrl=       600 IOpCl=  0 I1Cent=           0 NGrid=           0
         NMat0=    1 NMatS0=   4851 NMatT0=    0 NMatD0=    1 NMtDS0=    0 NMtDT0=    0
 Symmetry not used in FoFCou.
 Two-electron integral symmetry not used.
          MDV=    2684354560 using IRadAn=       1.
          Solving linear equations simultaneously, MaxMat=       0.
          There are    24 degrees of freedom in the 1st order CPHF.  IDoFFX=6 NUNeed=     3.
     21 vectors produced by pass  0 Test12= 6.50D-15 4.17D-09 XBig12= 7.92D+01 4.28D+00.
 AX will form    21 AO Fock derivatives at one time.
     21 vectors produced by pass  1 Test12= 6.50D-15 4.17D-09 XBig12= 4.72D+01 2.23D+00.
     21 vectors produced by pass  2 Test12= 6.50D-15 4.17D-09 XBig12= 1.50D+00 3.30D-01.
     21 vectors produced by pass  3 Test12= 6.50D-15 4.17D-09 XBig12= 3.51D-02 5.91D-02.
     21 vectors produced by pass  4 Test12= 6.50D-15 4.17D-09 XBig12= 8.75D-05 2.44D-03.
     16 vectors produced by pass  5 Test12= 6.50D-15 4.17D-09 XBig12= 1.74D-07 9.21D-05.
      6 vectors produced by pass  6 Test12= 6.50D-15 4.17D-09 XBig12= 1.90D-10 3.34D-06.
      1 vectors produced by pass  7 Test12= 6.50D-15 4.17D-09 XBig12= 2.40D-13 1.42D-07.
      1 vectors produced by pass  8 Test12= 6.50D-15 4.17D-09 XBig12= 3.85D-16 5.06D-09.
 InvSVY:  IOpt=1 It=  1 EMax= 6.22D-15
 Solved reduced A of dimension   129 with    24 vectors.
 FullF1:  Do perturbations      1 to       3.
 Isotropic polarizability for W=    0.000000       55.83 Bohr**3.
 End of Minotr F.D. properties file   721 does not exist.
 End of Minotr F.D. properties file   722 does not exist.
 End of Minotr F.D. properties file   788 does not exist.
 Leave Link 1002 at Sun Oct 13 09:52:22 2024, MaxMem=  2684354560 cpu:              50.3 elap:               2.0
 (Enter /usr/local/g16_AVX//g16/l601.exe)
 Copying SCF densities to generalized density rwf, IOpCl= 0 IROHF=0.

 **********************************************************************

            Population analysis using the SCF Density.

 **********************************************************************

 Alpha  occ. eigenvalues -- -101.41520 -14.09364 -10.10461  -9.95953  -9.33136
 Alpha  occ. eigenvalues --   -7.09446  -7.08597  -7.08597  -0.72073  -0.64646
 Alpha  occ. eigenvalues --   -0.54312  -0.31133  -0.31100  -0.28109  -0.18190
 Alpha  occ. eigenvalues --   -0.17925  -0.17923  -0.09562  -0.09562  -0.06819
 Alpha virt. eigenvalues --    0.10728   0.12453   0.14344   0.14348   0.17318
 Alpha virt. eigenvalues --    0.20011   0.20130   0.20130   0.21957   0.21970
 Alpha virt. eigenvalues --    0.23848   0.24779   0.24788   0.26901   0.27689
 Alpha virt. eigenvalues --    0.27695   0.31235   0.33040   0.33082   0.35923
 Alpha virt. eigenvalues --    0.38519   0.38531   0.38913   0.46275   0.47722
 Alpha virt. eigenvalues --    0.63849   0.72453   0.74125   0.74131   0.76962
 Alpha virt. eigenvalues --    0.76989   0.87082   0.89691   0.89697   0.96906
 Alpha virt. eigenvalues --    0.98987   0.98990   1.04073   1.04079   1.07821
 Alpha virt. eigenvalues --    1.09069   1.09100   1.12289   1.18897   1.18903
 Alpha virt. eigenvalues --    1.20488   1.26523   1.37348   1.45746   1.59716
 Alpha virt. eigenvalues --    1.59722   1.72236   1.78327   1.78327   1.80499
 Alpha virt. eigenvalues --    1.80501   2.15339   2.20261   2.20269   2.21188
 Alpha virt. eigenvalues --    2.21298   2.29200   2.48280   2.48375   2.67996
 Alpha virt. eigenvalues --    2.80721   2.83572   2.83574   2.94861   2.94906
 Alpha virt. eigenvalues --    3.25388   3.37700   3.55056   3.55215   4.20526
 Alpha virt. eigenvalues --    4.40698   4.45216   4.56753
          Condensed to atoms (all electrons):
               1          2          3          4          5          6
     1  C    5.321804   0.000989   0.408156   0.408358   0.408280  -0.105670
     2  Cl   0.000989  17.291232  -0.046840  -0.047343  -0.047408   0.042956
     3  H    0.408156  -0.046840   0.505793  -0.022738  -0.022643  -0.037693
     4  H    0.408358  -0.047343  -0.022738   0.506031  -0.022869  -0.036971
     5  H    0.408280  -0.047408  -0.022643  -0.022869   0.506122  -0.036878
     6  C   -0.105670   0.042956  -0.037693  -0.036971  -0.036878   6.036936
     7  N   -0.001759  -0.001378   0.000939   0.000886   0.000886   0.655696
               7
     1  C   -0.001759
     2  Cl  -0.001378
     3  H    0.000939
     4  H    0.000886
     5  H    0.000886
     6  C    0.655696
     7  N    6.838169
 Mulliken charges:
               1
     1  C   -0.440158
     2  Cl  -0.192210
     3  H    0.215026
     4  H    0.214645
     5  H    0.214511
     6  C   -0.518376
     7  N   -0.493439
 Sum of Mulliken charges =  -1.00000
 Mulliken charges with hydrogens summed into heavy atoms:
               1
     1  C    0.204024
     2  Cl  -0.192210
     6  C   -0.518376
     7  N   -0.493439
 APT charges:
               1
     1  C    0.558089
     2  Cl  -0.602799
     3  H    0.017875
     4  H    0.017874
     5  H    0.017671
     6  C   -0.393699
     7  N   -0.615012
 Sum of APT charges =  -1.00000
 APT charges with hydrogens summed into heavy atoms:
               1
     1  C    0.611510
     2  Cl  -0.602799
     6  C   -0.393699
     7  N   -0.615012
 Electronic spatial extent (au):  <R**2>=            936.2127
 Charge=             -1.0000 electrons
 Dipole moment (field-independent basis, Debye):
    X=            -10.7226    Y=              0.0001    Z=              0.0061  Tot=             10.7226
 Quadrupole moment (field-independent basis, Debye-Ang):
   XX=            -93.3427   YY=            -35.4678   ZZ=            -35.4660
   XY=              0.0017   XZ=              0.0070   YZ=             -0.0005
 Traceless Quadrupole moment (field-independent basis, Debye-Ang):
   XX=            -38.5839   YY=             19.2910   ZZ=             19.2929
   XY=              0.0017   XZ=              0.0070   YZ=             -0.0005
 Octapole moment (field-independent basis, Debye-Ang**2):
  XXX=           -205.4706  YYY=             -0.0076  ZZZ=             -0.8663  XYY=            -12.7580
  XXY=             -0.0033  XXZ=             -0.0203  XZZ=            -12.7585  YZZ=              0.0055
  YYZ=              0.8847  XYZ=              0.0009
 Hexadecapole moment (field-independent basis, Debye-Ang**3):
 XXXX=          -2083.4951 YYYY=            -56.2484 ZZZZ=            -56.2382 XXXY=             -0.0005
 XXXZ=              0.0104 YYYX=             -0.0028 YYYZ=             -0.0010 ZZZX=              0.0956
 ZZZY=             -0.0018 XXYY=           -242.4854 XXZZ=           -242.4846 YYZZ=            -18.7429
 XXYZ=              0.0002 YYXZ=              0.0328 ZZXY=             -0.0009
 N-N= 1.088509414321D+02 E-N=-1.627230556672D+03  KE= 5.902929840274D+02
  Exact polarizability:  87.017   0.007  40.238   0.043   0.001  40.228
 Approx polarizability: 107.336   0.012  49.925   0.089   0.002  49.910
 No NMR shielding tensors so no spin-rotation constants.
 Leave Link  601 at Sun Oct 13 09:52:23 2024, MaxMem=  2684354560 cpu:               2.6 elap:               0.1
 (Enter /usr/local/g16_AVX//g16/l701.exe)
 ... and contract with generalized density number  0.
 Compute integral second derivatives.
 Leave Link  701 at Sun Oct 13 09:52:23 2024, MaxMem=  2684354560 cpu:               4.7 elap:               0.2
 (Enter /usr/local/g16_AVX//g16/l702.exe)
 L702 exits ... SP integral derivatives will be done elsewhere.
 Leave Link  702 at Sun Oct 13 09:52:23 2024, MaxMem=  2684354560 cpu:               0.5 elap:               0.1
 (Enter /usr/local/g16_AVX//g16/l703.exe)
 Integral derivatives from FoFJK, PRISM(SPDF).
 Compute integral second derivatives, UseDBF=F ICtDFT=           0.
 Calling FoFJK, ICntrl=    100127 FMM=F ISym2X=0 I1Cent= 0 IOpClX= 0 NMat=1 NMatS=1 NMatT=0.
 FoFJK:  IHMeth= 1 ICntrl=  100127 DoSepK=F KAlg= 0 I1Cent=           0 FoldK=F
 IRaf=         0 NMat=       1 IRICut=       1 DoRegI=T DoRafI=F ISym2E= 0 IDoP0=0 IntGTp=1.
 FoFCou: FMM=F IPFlag=           0 FMFlag=      100000 FMFlg1=         800
         NFxFlg=           0 DoJE=F BraDBF=F KetDBF=F FulRan=T
         wScrn=  0.000000 ICntrl=    100127 IOpCl=  0 I1Cent=           0 NGrid=           0
         NMat0=    1 NMatS0=      1 NMatT0=    0 NMatD0=    1 NMtDS0=    0 NMtDT0=    0
 Symmetry not used in FoFCou.
 Leave Link  703 at Sun Oct 13 09:52:26 2024, MaxMem=  2684354560 cpu:              65.2 elap:               2.6
 (Enter /usr/local/g16_AVX//g16/l716.exe)
 Dipole        =-4.21859982D+00 4.38420815D-05 2.39568254D-03
 Polarizability= 8.70171852D+01 7.49098971D-03 4.02380704D+01
                 4.28357316D-02 1.42331126D-03 4.02277980D+01
 Full mass-weighted force constant matrix:
 Low frequencies ---  -60.7210  -59.9794  -32.4270  -31.9171   -0.0018    0.0037
 Low frequencies ---    0.0046   80.5177   81.6424
 ******    2 imaginary frequencies (negative Signs) ****** 
 Diagonal vibrational polarizability:
      102.6967171      52.3985104      54.1612172
 Harmonic frequencies (cm**-1), IR intensities (KM/Mole), Raman scattering
 activities (A**4/AMU), depolarization ratios for plane and unpolarized
 incident light, reduced masses (AMU), force constants (mDyne/A),
 and normal coordinates:
                      1                      2                      3
                      A                      A                      A
 Frequencies --    -59.5120               -58.9406                78.4689
 Red. masses --      7.6138                 7.7474                 3.9839
 Frc consts  --      0.0159                 0.0159                 0.0145
 IR Inten    --      0.2607                 0.2216                11.9340
  Atom  AN      X      Y      Z        X      Y      Z        X      Y      Z
     1   6    -0.00  -0.06   0.28    -0.00   0.28   0.06    -0.00  -0.07   0.37
     2  17    -0.00   0.02  -0.12    -0.00  -0.12  -0.02    -0.00   0.02  -0.09
     3   1     0.22  -0.07   0.35     0.04   0.35   0.07     0.27  -0.09   0.46
     4   1    -0.07  -0.07   0.35    -0.21   0.35   0.07    -0.09  -0.08   0.44
     5   1    -0.15  -0.07   0.35     0.17   0.35   0.07    -0.18  -0.10   0.45
     6   6    -0.00  -0.10   0.48    -0.00   0.49   0.10     0.00   0.06  -0.30
     7   7     0.00   0.09  -0.44     0.00  -0.44  -0.09     0.00  -0.01   0.07
                      4                      5                      6
                      A                      A                      A
 Frequencies --     79.8445               122.3094               626.9217
 Red. masses --      3.9549                11.7809                 8.8987
 Frc consts  --      0.0149                 0.1038                 2.0607
 IR Inten    --     11.9642                49.0041               206.5299
  Atom  AN      X      Y      Z        X      Y      Z        X      Y      Z
     1   6    -0.00   0.37   0.07    -0.30   0.00  -0.00     0.69   0.00   0.00
     2  17     0.00  -0.09  -0.02    -0.28  -0.00   0.00    -0.28  -0.00  -0.00
     3   1     0.05   0.45   0.09    -0.28   0.00  -0.00     0.37  -0.00  -0.09
     4   1    -0.26   0.46   0.10    -0.28  -0.00  -0.00     0.38   0.08   0.05
     5   1     0.21   0.45   0.07    -0.28   0.00  -0.00     0.37  -0.08   0.05
     6   6    -0.00  -0.30  -0.06     0.54  -0.00  -0.00     0.01  -0.00  -0.00
     7   7    -0.00   0.07   0.01     0.55   0.00   0.00     0.01  -0.00   0.00
                      7                      8                      9
                      A                      A                      A
 Frequencies --   1006.9474              1008.3127              1326.0181
 Red. masses --      1.1547                 1.1545                 1.1008
 Frc consts  --      0.6898                 0.6916                 1.1404
 IR Inten    --      0.2852                 0.2964                16.2695
  Atom  AN      X      Y      Z        X      Y      Z        X      Y      Z
     1   6     0.00   0.02  -0.11    -0.00   0.11   0.02    -0.09   0.00   0.00
     2  17    -0.00  -0.00   0.02     0.00  -0.02  -0.00    -0.02  -0.00  -0.00
     3   1     0.76  -0.03   0.13    -0.11  -0.23  -0.02     0.54  -0.00   0.18
     4   1    -0.29  -0.06   0.21     0.71  -0.15   0.01     0.55  -0.16  -0.09
     5   1    -0.47   0.02   0.20    -0.61  -0.16  -0.07     0.55   0.15  -0.09
     6   6    -0.00  -0.00   0.00     0.00  -0.00  -0.00    -0.00   0.00   0.00
     7   7    -0.00   0.00  -0.00     0.00   0.00   0.00    -0.00   0.00   0.00
                     10                     11                     12
                      A                      A                      A
 Frequencies --   1462.2345              1463.9376              2146.5733
 Red. masses --      1.0606                 1.0607                12.8378
 Frc consts  --      1.3360                 1.3394                34.8524
 IR Inten    --      7.7466                 7.8490                17.7146
  Atom  AN      X      Y      Z        X      Y      Z        X      Y      Z
     1   6    -0.00  -0.07  -0.02    -0.00   0.02  -0.07    -0.00  -0.00   0.00
     2  17    -0.00  -0.00  -0.00    -0.00   0.00  -0.00     0.00   0.00   0.00
     3   1    -0.07   0.73  -0.03    -0.27  -0.18  -0.13    -0.01   0.00  -0.00
     4   1     0.27  -0.01  -0.25     0.08  -0.40   0.61    -0.01   0.00   0.00
     5   1    -0.20   0.17   0.50     0.19   0.35   0.43    -0.01  -0.00   0.00
     6   6     0.00  -0.00  -0.00     0.00   0.00  -0.00     0.76   0.00   0.00
     7   7    -0.00   0.00   0.00    -0.00  -0.00   0.00    -0.65  -0.00  -0.00
                     13                     14                     15
                      A                      A                      A
 Frequencies --   3125.7869              3244.9574              3254.4850
 Red. masses --      1.0253                 1.1111                 1.1112
 Frc consts  --      5.9025                 6.8934                 6.9346
 IR Inten    --     12.8620                 0.3659                 0.3289
  Atom  AN      X      Y      Z        X      Y      Z        X      Y      Z
     1   6     0.04   0.00   0.00     0.00  -0.09  -0.02     0.00   0.02  -0.09
     2  17    -0.00  -0.00  -0.00    -0.00   0.00   0.00    -0.00  -0.00   0.00
     3   1    -0.15  -0.00   0.52    -0.05  -0.02   0.17    -0.24   0.00   0.78
     4   1    -0.17  -0.51  -0.29     0.22   0.62   0.37     0.07   0.20   0.10
     5   1    -0.16   0.48  -0.28    -0.18   0.51  -0.31     0.15  -0.43   0.23
     6   6     0.00  -0.00  -0.00     0.00   0.00   0.00     0.00  -0.00   0.00
     7   7     0.00   0.00   0.00     0.00  -0.00  -0.00     0.00   0.00  -0.00

 -------------------
 - Thermochemistry -
 -------------------
 Temperature   298.150 Kelvin.  Pressure   1.00000 Atm.
 Atom     1 has atomic number  6 and mass  12.00000
 Atom     2 has atomic number 17 and mass  34.96885
 Atom     3 has atomic number  1 and mass   1.00783
 Atom     4 has atomic number  1 and mass   1.00783
 Atom     5 has atomic number  1 and mass   1.00783
 Atom     6 has atomic number  6 and mass  12.00000
 Atom     7 has atomic number  7 and mass  14.00307
 Molecular mass:    75.99540 amu.
 Principal axes and moments of inertia in atomic units:
                           1         2         3
     Eigenvalues --    11.514961628.502381628.50559
           X            1.00000  -0.00001   0.00009
           Y            0.00001   0.99983  -0.01823
           Z           -0.00009   0.01823   0.99983
 This molecule is an asymmetric top.
 Rotational symmetry number  1.
 Rotational temperatures (Kelvin)      7.52186     0.05319     0.05319
 Rotational constants (GHZ):         156.73013     1.10822     1.10822
    2 imaginary frequencies ignored.
 Zero-point vibrational energy     113327.0 (Joules/Mol)
                                   27.08581 (Kcal/Mol)
 Warning -- explicit consideration of   3 degrees of freedom as
           vibrations may cause significant error
 Vibrational temperatures:    112.90   114.88   175.98   902.00  1448.77
          (Kelvin)           1450.74  1907.84  2103.83  2106.28  3088.44
                             4497.31  4668.77  4682.48
 
 Zero-point correction=                           0.043164 (Hartree/Particle)
 Thermal correction to Energy=                    0.048479
 Thermal correction to Enthalpy=                  0.049423
 Thermal correction to Gibbs Free Energy=         0.013620
 Sum of electronic and zero-point Energies=           -592.951874
 Sum of electronic and thermal Energies=              -592.946559
 Sum of electronic and thermal Enthalpies=            -592.945615
 Sum of electronic and thermal Free Energies=         -592.981418
 
                     E (Thermal)             CV                S
                      KCal/Mol        Cal/Mol-Kelvin    Cal/Mol-Kelvin
 Total                   30.421             13.845             75.354
 Electronic               0.000              0.000              0.000
 Translational            0.889              2.981             38.900
 Rotational               0.889              2.981             24.927
 Vibrational             28.644              7.883             11.527
 Vibration     1          0.600              1.964              3.929
 Vibration     2          0.600              1.963              3.895
 Vibration     3          0.610              1.931              3.064
                       Q            Log10(Q)             Ln(Q)
 Total Bot       0.543402D-06         -6.264879        -14.425417
 Total V=0       0.388290D+14         13.589156         31.290188
 Vib (Bot)       0.333596D-18        -18.476779        -42.544357
 Vib (Bot)    1  0.262514D+01          0.419152          0.965134
 Vib (Bot)    2  0.257937D+01          0.411513          0.947544
 Vib (Bot)    3  0.166992D+01          0.222696          0.512776
 Vib (V=0)       0.238372D+02          1.377256          3.171248
 Vib (V=0)    1  0.317233D+01          0.501379          1.154467
 Vib (V=0)    2  0.312738D+01          0.495181          1.140196
 Vib (V=0)    3  0.224317D+01          0.350862          0.807889
 Electronic      0.100000D+01          0.000000          0.000000
 Translational   0.260396D+08          7.415635         17.075130
 Rotational      0.625555D+05          4.796266         11.043810
 
                                                       RxCoord=4.39716 DE=45.21
                                                             IR Spectrum
 
     33    3                                     2                        11     1          11                                       
     22    1                                     1                        44     3          00              6                  1     
     54    2                                     4                        66     2          00              2                  287   
     45    6                                     7                        42     6          87              7                  208   
 
     XX    X                                     X                        XX     X          XX              X                  XXX   
                                                 X                               X                          X                  X     
                                                                                                            X                  X     
                                                                                                            X                  X     
                                                                                                            X                  X     
                                                                                                            X                        
                                                                                                            X                        
                                                                                                            X                        
                                                                                                            X                        
                                                                                                            X                        
                                                                                                            X                        
                                                                                                            X                        
                                                                                                            X                        
                                                                                                            X                        
                                                                                                            X                        
                                                                                                            X                        
                                                                                                            X                        
                                                                                                            X                        
                                                                                                            X                        
                                                                                                            X                        
 
 -------------------------------------------------------------------
 Center     Atomic                   Forces (Hartrees/Bohr)
 Number     Number              X              Y              Z
 -------------------------------------------------------------------
      1        6           0.005080216    0.000342424    0.000726028
      2       17          -0.010751052    0.000049124    0.000087198
      3        1           0.001575715   -0.000034223    0.000451227
      4        1           0.001037741   -0.001197811   -0.000723887
      5        1           0.001288062    0.000840265   -0.000549354
      6        6          -0.000606145    0.000000475    0.000007376
      7        7           0.002375463   -0.000000254    0.000001412
 -------------------------------------------------------------------
 Cartesian Forces:  Max     0.010751052 RMS     0.002729457
 Z-matrix is all fixed cartesians, so copy forces.
 Force constants in Cartesian coordinates: 
                1             2             3             4             5 
      1  0.264211D+00
      2 -0.189370D-03  0.596488D+00
      3 -0.815285D-03 -0.798489D-03  0.599754D+00
      4 -0.977937D-01  0.357257D-04  0.383799D-05  0.181982D+00
      5  0.815849D-05 -0.334726D-01  0.248916D-05 -0.467883D-04  0.185671D-01
      6 -0.525482D-04  0.254929D-05 -0.334937D-01  0.674704D-04 -0.818267D-05
      7 -0.568941D-01 -0.188469D-03  0.848407D-01 -0.248321D-01 -0.463050D-04
      8 -0.190604D-03 -0.495615D-01  0.654501D-03  0.201877D-04  0.627118D-03
      9  0.838493D-01  0.675641D-03 -0.326638D+00 -0.585182D-02 -0.179547D-04
     10 -0.571706D-01 -0.725634D-01 -0.421307D-01 -0.246065D-01 -0.173165D-01
     11 -0.716474D-01 -0.254352D+00 -0.118712D+00  0.500464D-02  0.638784D-02
     12 -0.415912D-01 -0.118679D+00 -0.118899D+00  0.288906D-02  0.334939D-02
     13 -0.569306D-01  0.729020D-01 -0.418821D-01 -0.247077D-01  0.174052D-01
     14  0.720128D-01 -0.256495D+00  0.118855D+00 -0.501336D-02  0.640738D-02
     15 -0.413687D-01  0.118801D+00 -0.118106D+00  0.287176D-02 -0.332632D-02
     16 -0.510419D-03  0.256880D-05 -0.105195D-04 -0.451891D-02 -0.210168D-05
     17  0.769151D-05 -0.331705D-02 -0.250014D-05  0.000000D+00  0.176813D-02
     18 -0.429041D-04 -0.249235D-05 -0.333354D-02  0.420596D-04  0.000000D+00
     19  0.508810D-02  0.000000D+00 -0.601336D-05 -0.552286D-02 -0.160061D-05
     20 -0.127667D-05  0.710023D-03  0.000000D+00  0.000000D+00 -0.284960D-03
     21  0.212832D-04  0.000000D+00  0.715507D-03 -0.223614D-04  0.000000D+00
                6             7             8             9            10 
      6  0.185914D-01
      7  0.200814D-01  0.742381D-01
      8 -0.262746D-04  0.212348D-03  0.459085D-01
      9  0.834294D-02 -0.876901D-01 -0.683571D-03  0.338977D+00
     10 -0.100749D-01  0.449661D-02  0.747549D-02  0.429154D-02  0.742662D-01
     11  0.336290D-02  0.447392D-04  0.209407D-02  0.236401D-02  0.750326D-01
     12  0.254657D-02 -0.864755D-02 -0.251253D-01 -0.111187D-01  0.435954D-01
     13 -0.100222D-01  0.449296D-02 -0.751778D-02  0.425872D-02  0.448985D-02
     14 -0.333155D-02 -0.209802D-04  0.202160D-02 -0.233266D-02  0.741772D-02
     15  0.252761D-02 -0.863936D-02  0.251854D-01 -0.109979D-01  0.434533D-02
     16  0.179250D-05 -0.176002D-02  0.000000D+00  0.495902D-03 -0.173456D-02
     17  0.000000D+00 -0.193760D-05 -0.135753D-02 -0.696483D-05 -0.142876D-03
     18  0.177047D-02  0.167074D-03 -0.612431D-05  0.182467D-02 -0.843800D-04
     19 -0.105051D-05  0.258554D-03  0.000000D+00  0.646500D-03  0.258949D-03
     20  0.000000D+00  0.000000D+00  0.267781D-03  0.149992D-05  0.969972D-04
     21 -0.285377D-03 -0.112122D-03  0.131330D-05 -0.390546D-03  0.576666D-04
               11            12            13            14            15 
     11  0.262759D+00
     12  0.125695D+00  0.119276D+00
     13 -0.746480D-02  0.432172D-02  0.741269D-01
     14 -0.176895D-01  0.136627D-01 -0.753695D-01  0.264944D+00
     15 -0.138073D-01  0.864135D-02  0.433512D-01 -0.125763D+00  0.118390D+00
     16 -0.418371D-03 -0.243036D-03 -0.172789D-02  0.421184D-03 -0.239799D-03
     17  0.102760D-02  0.138406D-02  0.141534D-03  0.104098D-02 -0.137502D-02
     18  0.138580D-02 -0.543027D-03 -0.846227D-04 -0.137763D-02 -0.554630D-03
     19 -0.551360D-03 -0.324385D-03  0.256393D-03  0.552069D-03 -0.320411D-03
     20 -0.226928D-03 -0.287267D-03 -0.966665D-04 -0.229460D-03  0.285286D-03
     21 -0.288772D-03  0.965555D-04  0.572878D-04  0.286983D-03  0.989760D-04
               16            17            18            19            20 
     16  0.113415D+01
     17  0.134584D-04  0.364833D-03
     18  0.268719D-02  0.000000D+00  0.367414D-03
     19 -0.112390D+01 -0.175129D-04 -0.268442D-02  0.112356D+01
     20 -0.176665D-04  0.473032D-03  0.000000D+00  0.180593D-04 -0.709488D-03
     21 -0.269153D-02  0.000000D+00  0.468640D-03  0.268978D-02  0.000000D+00
               21 
     21 -0.703756D-03
 Leave Link  716 at Sun Oct 13 09:52:26 2024, MaxMem=  2684354560 cpu:               0.9 elap:               0.1
 (Enter /usr/local/g16_AVX//g16/l103.exe)

 GradGradGradGradGradGradGradGradGradGradGradGradGradGradGradGradGradGrad
 Berny optimization.
 Search for a local minimum.
 Step number   1 out of a maximum of    2
 All quantities printed in internal units (Hartrees-Bohrs-Radians)
 Second derivative matrix not updated -- analytic derivatives used.
 ITU=  0
     Eigenvalues ---   -0.00139  -0.00138   0.00122   0.00126   0.00650
     Eigenvalues ---    0.06253   0.06260   0.10948   0.10972   0.11647
     Eigenvalues ---    0.22087   0.49909   0.88175   0.88719   2.25175
 Eigenvalue     1 is  -1.39D-03 should be greater than     0.000000 Eigenvector:
                          Z7        Z6        Z2        Z4        Z5
   1                    0.58764  -0.58302   0.22338  -0.22200  -0.22149
                          Z3        X3        Z1        X5        Y7
   1                   -0.22048  -0.19861  -0.15664   0.13218  -0.11008
 Eigenvalue     2 is  -1.38D-03 should be greater than     0.000000 Eigenvector:
                          Y7        Y6        Y2        Y3        Y5
   1                    0.58890  -0.58738   0.22194  -0.21925  -0.21849
                          Y4        X4        Y1        X5        Z7
   1                   -0.21813   0.18801  -0.15454  -0.15187   0.11046
 Angle between quadratic step and forces=  68.28 degrees.
 Linear search not attempted -- first point.
 B after Tr=    -0.000025    0.000260    0.001929
         Rot=    1.000000   -0.000000   -0.000115    0.000027 Ang=  -0.01 deg.
 Variable       Old X    -DE/DX   Delta X   Delta X   Delta X     New X
                                 (Linear)    (Quad)   (Total)
    X1       -0.77665   0.00508   0.00000  -0.03319  -0.03321  -0.80986
    Y1        0.00007   0.00034   0.00000  -0.00026   0.00004   0.00011
    Z1        0.00305   0.00073   0.00000  -0.00393  -0.00182   0.00123
    X2       -4.23197  -0.01075   0.00000  -0.08223  -0.08226  -4.31423
    Y2       -0.00005   0.00005   0.00000   0.00048   0.00097   0.00092
    Z2       -0.00030   0.00009   0.00000   0.00313   0.00605   0.00575
    X3       -0.14723   0.00158   0.00000  -0.02836  -0.02884  -0.17607
    Y3        0.00472  -0.00003   0.00000  -0.00062  -0.00035   0.00436
    Z3       -1.94707   0.00045   0.00000  -0.00322  -0.00125  -1.94832
    X4       -0.14429   0.00104   0.00000  -0.02750  -0.02721  -0.17149
    Y4        1.68842  -0.00120   0.00000  -0.00352  -0.00325   1.68516
    Z4        0.98357  -0.00072   0.00000  -0.00698  -0.00501   0.97856
    X5       -0.14718   0.00129   0.00000  -0.02534  -0.02523  -0.17241
    Y5       -1.69222   0.00084   0.00000   0.00223   0.00250  -1.68971
    Z5        0.97590  -0.00055   0.00000  -0.00693  -0.00496   0.97093
    X6        4.86497  -0.00061   0.00000   0.09743   0.09741   4.96238
    Y6       -0.00002   0.00000   0.00000   0.00004   0.00004   0.00002
    Z6       -0.00437   0.00001   0.00000   0.00937   0.01016   0.00579
    X7        7.09626   0.00238   0.00000   0.09937   0.09934   7.19560
    Y7        0.00002  -0.00000   0.00000   0.00018   0.00006   0.00008
    Z7        0.00099   0.00000   0.00000  -0.00344  -0.00317  -0.00218
         Item               Value     Threshold  Converged?
 Maximum Force            0.010751     0.000450     NO 
 RMS     Force            0.002729     0.000300     NO 
 Maximum Displacement     0.099340     0.001800     NO 
 RMS     Displacement     0.037580     0.001200     NO 
 Predicted change in Energy=-3.988052D-04
 GradGradGradGradGradGradGradGradGradGradGradGradGradGradGradGradGradGrad

 Leave Link  103 at Sun Oct 13 09:52:26 2024, MaxMem=  2684354560 cpu:               0.6 elap:               0.1
 (Enter /usr/local/g16_AVX//g16/l9999.exe)

 ----------------------------------------------------------------------

 Electric dipole moment (input orientation):
 (Debye = 10**-18 statcoulomb cm , SI units = C m)
                  (au)            (Debye)         (10**-30 SI)
   Tot        0.421860D+01      0.107226D+02      0.357668D+02
   x         -0.421860D+01     -0.107226D+02     -0.357668D+02
   y          0.438421D-04      0.111435D-03      0.371709D-03
   z          0.239568D-02      0.608922D-02      0.203114D-01

 Dipole polarizability, Alpha (input orientation).
 (esu units = cm**3 , SI units = C**2 m**2 J**-1)
 Alpha(0;0):
               (au)            (10**-24 esu)      (10**-40 SI)
   iso        0.558277D+02      0.827281D+01      0.920474D+01
   aniso      0.467843D+02      0.693272D+01      0.771369D+01
   xx         0.870172D+02      0.128946D+02      0.143472D+02
   yx         0.749099D-02      0.111005D-02      0.123510D-02
   yy         0.402381D+02      0.596267D+01      0.663436D+01
   zx         0.428357D-01      0.634760D-02      0.706266D-02
   zy         0.142331D-02      0.210913D-03      0.234672D-03
   zz         0.402278D+02      0.596114D+01      0.663267D+01

 ----------------------------------------------------------------------

 Dipole orientation:
     6          0.00261086          0.00005804          0.77664692
    17         -0.00270563         -0.00009498          4.23197088
     1         -1.94714933          0.00473735          0.14612666
     1          0.98350198          1.68840377          0.14486423
     1          0.97579483         -1.69222929          0.14771413
     6         -0.00160252          0.00003168         -4.86497310
     7          0.00501819          0.00009259         -7.09625437

 Electric dipole moment (dipole orientation):
 (Debye = 10**-18 statcoulomb cm , SI units = C m)
                  (au)            (Debye)         (10**-30 SI)
   Tot        0.421860D+01      0.107226D+02      0.357668D+02
   x          0.000000D+00      0.000000D+00      0.000000D+00
   y          0.000000D+00      0.000000D+00      0.000000D+00
   z          0.421860D+01      0.107226D+02      0.357668D+02

 Dipole polarizability, Alpha (dipole orientation).
 (esu units = cm**3 , SI units = C**2 m**2 J**-1)
 Alpha(0;0):
               (au)            (10**-24 esu)      (10**-40 SI)
   iso        0.558277D+02      0.827281D+01      0.920474D+01
   aniso      0.467843D+02      0.693272D+01      0.771369D+01
   xx         0.402279D+02      0.596115D+01      0.663268D+01
   yx         0.142839D-02      0.211666D-03      0.235510D-03
   yy         0.402381D+02      0.596267D+01      0.663436D+01
   zx        -0.694068D-01     -0.102850D-01     -0.114436D-01
   zy        -0.797561D-02     -0.118186D-02     -0.131500D-02
   zz         0.870171D+02      0.128946D+02      0.143472D+02

 ----------------------------------------------------------------------
 1\1\GINC-NODO10\Freq\RB3LYP\6-31++G(d,p)\C2H3Cl1N1(1-)\ALANQF\13-Oct-2
 024\0\\#p b3lyp 6-31++g(d,p) scf=verytight NoSymm freq=noraman int=ult
 rafine\\RxCoord=4.39716 DE=45.21\\-1,1\C,-0.410983,0.000035,0.001615\C
 l,-2.239463,-0.000027,-0.00016\H,-0.077912,0.002497,-1.030343\H,-0.076
 354,0.893471,0.520481\H,-0.077883,-0.895483,0.516422\C,2.574432,-0.000
 01,-0.00231\N,3.755177,0.00001,0.000523\\Version=ES64L-G16RevB.01\HF=-
 592.9950382\RMSD=1.782e-09\RMSF=2.729e-03\ZeroPoint=0.043164\Thermal=0
 .0484791\Dipole=-4.1718939,0.0000558,0.0025571\DipoleDeriv=1.5447198,0
 .0002956,0.0010501,-0.0000253,0.0654811,0.0001905,0.0011354,0.0001905,
 0.0640665,-1.2553889,-0.0000235,-0.0001829,-0.0002055,-0.2764626,0.000
 0238,-0.0009669,0.0000237,-0.2765443,-0.0233251,-0.0000115,0.0031535,-
 0.0000037,0.0841233,0.0001361,0.0262006,0.0001572,-0.0071719,-0.022563
 4,-0.0034783,-0.0022232,-0.0230211,0.0150473,-0.0401922,-0.0136325,-0.
 0401327,0.0611395,-0.023268,0.0032327,-0.0020654,0.0231427,0.0147601,0
 .0398227,-0.0134986,0.0397419,0.0615194,-0.2173238,0.0000096,0.000933,
 0.000148,-0.4818692,0.0000227,0.0025166,0.0000229,-0.481905,-1.0028507
 ,-0.0000246,-0.0006651,-0.000035,-0.42108,-0.0000034,-0.0017547,-0.000
 0035,-0.4211042\Polar=87.0171852,0.007491,40.2380704,0.0428357,0.00142
 33,40.227798\Quadrupole=-28.6861505,14.3423783,14.3437722,0.0012971,0.
 0051783,-0.0004037\PG=C01 [X(C2H3Cl1N1)]\NImag=2\\0.26421130,-0.000189
 37,0.59648791,-0.00081528,-0.00079849,0.59975361,-0.09779375,0.0000357
 3,0.00000384,0.18198176,0.00000816,-0.03347265,0.00000249,-0.00004679,
 0.01856713,-0.00005255,0.00000255,-0.03349365,0.00006747,-0.00000818,0
 .01859144,-0.05689411,-0.00018847,0.08484074,-0.02483208,-0.00004631,0
 .02008135,0.07423808,-0.00019060,-0.04956154,0.00065450,0.00002019,0.0
 0062712,-0.00002627,0.00021235,0.04590849,0.08384929,0.00067564,-0.326
 63757,-0.00585182,-0.00001795,0.00834294,-0.08769013,-0.00068357,0.338
 97711,-0.05717057,-0.07256338,-0.04213066,-0.02460648,-0.01731653,-0.0
 1007486,0.00449661,0.00747549,0.00429154,0.07426619,-0.07164744,-0.254
 35208,-0.11871164,0.00500464,0.00638784,0.00336290,0.00004474,0.002094
 07,0.00236401,0.07503258,0.26275897,-0.04159116,-0.11867864,-0.1188985
 3,0.00288906,0.00334939,0.00254657,-0.00864755,-0.02512527,-0.01111872
 ,0.04359536,0.12569498,0.11927580,-0.05693056,0.07290202,-0.04188209,-
 0.02470768,0.01740517,-0.01002216,0.00449296,-0.00751778,0.00425872,0.
 00448985,-0.00746480,0.00432172,0.07412693,0.07201284,-0.25649462,0.11
 885511,-0.00501336,0.00640738,-0.00333155,-0.00002098,0.00202160,-0.00
 233266,0.00741772,-0.01768948,0.01366275,-0.07536948,0.26494360,-0.041
 36868,0.11880090,-0.11810582,0.00287176,-0.00332632,0.00252761,-0.0086
 3936,0.02518542,-0.01099787,0.00434533,-0.01380726,0.00864135,0.043351
 15,-0.12576301,0.11839039,-0.00051042,0.00000257,-0.00001052,-0.004518
 91,-0.00000210,0.00000179,-0.00176002,0.00000093,0.00049590,-0.0017345
 6,-0.00041837,-0.00024304,-0.00172789,0.00042118,-0.00023980,1.1341497
 7,0.00000769,-0.00331705,-0.00000250,-0.00000036,0.00176813,0.00000070
 ,-0.00000194,-0.00135753,-0.00000696,-0.00014288,0.00102760,0.00138406
 ,0.00014153,0.00104098,-0.00137502,0.00001346,0.00036483,-0.00004290,-
 0.00000249,-0.00333354,0.00004206,0.00000072,0.00177047,0.00016707,-0.
 00000612,0.00182467,-0.00008438,0.00138580,-0.00054303,-0.00008462,-0.
 00137763,-0.00055463,0.00268719,-0.00000034,0.00036741,0.00508810,0.00
 000091,-0.00000601,-0.00552286,-0.00000160,-0.00000105,0.00025855,-0.0
 0000057,0.00064650,0.00025895,-0.00055136,-0.00032438,0.00025639,0.000
 55207,-0.00032041,-1.12389796,-0.00001751,-0.00268442,1.12355882,-0.00
 000128,0.00071002,0.00000053,-0.00000005,-0.00028496,-0.00000015,0.000
 00061,0.00026778,0.00000150,0.00009700,-0.00022693,-0.00028727,-0.0000
 9667,-0.00022946,0.00028529,-0.00001767,0.00047303,0.00000007,0.000018
 06,-0.00070949,0.00002128,0.00000053,0.00071551,-0.00002236,-0.0000001
 5,-0.00028538,-0.00011212,0.00000131,-0.00039055,0.00005767,-0.0002887
 7,0.00009656,0.00005729,0.00028698,0.00009898,-0.00269153,0.00000007,0
 .00046864,0.00268978,0.00000003,-0.00070376\\-0.00508022,-0.00034242,-
 0.00072603,0.01075105,-0.00004912,-0.00008720,-0.00157571,0.00003422,-
 0.00045123,-0.00103774,0.00119781,0.00072389,-0.00128806,-0.00084026,0
 .00054935,0.00060614,-0.00000048,-0.00000738,-0.00237546,0.00000025,-0
 .00000141\\\@


 NEVER LISTEN TO CRITICISM
 OR YOU'LL BE DOIN' EVERYBODY ELSE'S THING BUT BUT YOUR OWN.

                                               -- ANDY CAPP
 Job cpu time:       0 days  0 hours  3 minutes 39.2 seconds.
 Elapsed time:       0 days  0 hours  0 minutes  9.5 seconds.
 File lengths (MBytes):  RWF=     88 Int=      0 D2E=      0 Chk=      2 Scr=      2
 Normal termination of Gaussian 16 at Sun Oct 13 09:52:26 2024.
