RxCoord=4.49673 DE=45.14                                                
Freq      RB3LYP                                                      6-31++G(d,p)        
Number of atoms                            I                7
Info1-9                                    I   N=           9
          16          16           0           0           0         100
           6          18        -502
Full Title                                 C   N=           2
RxCoord=4.49673 DE=45.14
Route                                      C   N=           6
#p b3lyp 6-31++g(d,p) scf=verytight NoSymm freq=noraman int=
ultrafine   
Charge                                     I               -1
Multiplicity                               I                1
Number of electrons                        I               40
Number of alpha electrons                  I               20
Number of beta electrons                   I               20
Number of basis functions                  I               98
Number of independent functions            I               98
Number of point charges in /Mol/           I                0
Number of translation vectors              I                0
Atomic numbers                             I   N=           7
           6          17           1           1           1           6
           7
Nuclear charges                            R   N=           7
  6.00000000E+00  1.70000000E+01  1.00000000E+00  1.00000000E+00  1.00000000E+00
  6.00000000E+00  7.00000000E+00
Current cartesian coordinates              R   N=          21
 -7.85128292E-01 -5.66917837E-05  2.48687958E-03 -4.24006165E+00  2.45664396E-05
 -1.68185625E-04 -1.49044589E-01  4.15550775E-03 -1.94883298E+00 -1.58445977E-01
  1.68777676E+00  9.81982953E-01 -1.56029017E-01 -1.69280343E+00  9.74376805E-01
  4.88067881E+00  1.39839733E-04 -3.56213374E-03  7.11205230E+00 -6.99198666E-05
  7.99354151E-04
Number of symbols in /Mol/                 I                0
Force Field                                I                0
Atom Types                                 C   N=           7
                                                            
                        
Int Atom Types                             I   N=           7
           0           0           0           0           0           0
           0
MM charges                                 R   N=           7
  0.00000000E+00  0.00000000E+00  0.00000000E+00  0.00000000E+00  0.00000000E+00
  0.00000000E+00  0.00000000E+00
Integer atomic weights                     I   N=           7
          12          35           1           1           1          12
          14
Real atomic weights                        R   N=           7
  1.20000000E+01  3.49688527E+01  1.00782504E+00  1.00782504E+00  1.00782504E+00
  1.20000000E+01  1.40030740E+01
Atom fragment info                         I   N=           7
           0           0           0           0           0           0
           0
Atom residue num                           I   N=           7
           0           0           0           0           0           0
           0
Nuclear spins                              I   N=           7
           0           3           1           1           1           0
           2
Nuclear ZEff                               R   N=           7
 -3.60000000E+00 -1.42400000E+01 -1.00000000E+00 -1.00000000E+00 -1.00000000E+00
 -3.60000000E+00 -4.55000000E+00
Nuclear ZNuc                               R   N=           7
  6.00000000E+00  1.70000000E+01  1.00000000E+00  1.00000000E+00  1.00000000E+00
  6.00000000E+00  7.00000000E+00
Nuclear QMom                               R   N=           7
  0.00000000E+00 -8.16500000E+00  0.00000000E+00  0.00000000E+00  0.00000000E+00
  0.00000000E+00  2.04400000E+00
Nuclear GFac                               R   N=           7
  0.00000000E+00  8.21874000E-01  2.79284600E+00  2.79284600E+00  2.79284600E+00
  0.00000000E+00  4.03761000E-01
MicOpt                                     I   N=           7
          -1          -1          -1          -1          -1          -1
          -1
Number of residues                         I                0
Number of secondary structures             I                0
Number of contracted shells                I               33
Number of primitive shells                 I               72
Pure/Cartesian d shells                    I                1
Pure/Cartesian f shells                    I                0
Highest angular momentum                   I                2
Largest degree of contraction              I                6
Shell types                                I   N=          33
           0          -1          -1          -1           2           0
          -1          -1          -1          -1           2           0
           0           0           1           0           0           0
           1           0           0           0           1           0
          -1          -1          -1           2           0          -1
          -1          -1           2
Number of primitives per shell             I   N=          33
           6           3           1           1           1           6
           6           3           1           1           1           3
           1           1           1           3           1           1
           1           3           1           1           1           6
           3           1           1           1           6           3
           1           1           1
Shell to atom map                          I   N=          33
           1           1           1           1           1           2
           2           2           2           2           2           3
           3           3           3           4           4           4
           4           5           5           5           5           6
           6           6           6           6           7           7
           7           7           7
Primitive exponents                        R   N=          72
  3.04752488E+03  4.57369518E+02  1.03948685E+02  2.92101553E+01  9.28666296E+00
  3.16392696E+00  7.86827235E+00  1.88128854E+00  5.44249258E-01  1.68714478E-01
  4.38000000E-02  8.00000000E-01  2.51801000E+04  3.78035000E+03  8.60474000E+02
  2.42145000E+02  7.73349000E+01  2.62470000E+01  4.91765000E+02  1.16984000E+02
  3.74153000E+01  1.37834000E+01  5.45215000E+00  2.22588000E+00  3.18649000E+00
  1.14427000E+00  4.20377000E-01  1.42657000E-01  4.83000000E-02  7.50000000E-01
  1.87311370E+01  2.82539436E+00  6.40121692E-01  1.61277759E-01  3.60000000E-02
  1.10000000E+00  1.87311370E+01  2.82539436E+00  6.40121692E-01  1.61277759E-01
  3.60000000E-02  1.10000000E+00  1.87311370E+01  2.82539436E+00  6.40121692E-01
  1.61277759E-01  3.60000000E-02  1.10000000E+00  3.04752488E+03  4.57369518E+02
  1.03948685E+02  2.92101553E+01  9.28666296E+00  3.16392696E+00  7.86827235E+00
  1.88128854E+00  5.44249258E-01  1.68714478E-01  4.38000000E-02  8.00000000E-01
  4.17351146E+03  6.27457911E+02  1.42902093E+02  4.02343293E+01  1.28202129E+01
  4.39043701E+00  1.16263619E+01  2.71627981E+00  7.72218397E-01  2.12031498E-01
  6.39000000E-02  8.00000000E-01
Contraction coefficients                   R   N=          72
  1.83473713E-03  1.40373228E-02  6.88426223E-02  2.32184443E-01  4.67941348E-01
  3.62311985E-01 -1.19332420E-01 -1.60854152E-01  1.14345644E+00  1.00000000E+00
  1.00000000E+00  1.00000000E+00  1.83295985E-03  1.40341988E-02  6.90973943E-02
  2.37451980E-01  4.83033960E-01  3.39855972E-01 -2.29739142E-03 -3.07137189E-02
 -1.12528069E-01  4.50163278E-02  5.89353363E-01  4.65206287E-01 -2.51828028E-01
  6.15892514E-02  1.06018433E+00  1.00000000E+00  1.00000000E+00  1.00000000E+00
  3.34946043E-02  2.34726953E-01  8.13757326E-01  1.00000000E+00  1.00000000E+00
  1.00000000E+00  3.34946043E-02  2.34726953E-01  8.13757326E-01  1.00000000E+00
  1.00000000E+00  1.00000000E+00  3.34946043E-02  2.34726953E-01  8.13757326E-01
  1.00000000E+00  1.00000000E+00  1.00000000E+00  1.83473713E-03  1.40373228E-02
  6.88426223E-02  2.32184443E-01  4.67941348E-01  3.62311985E-01 -1.19332420E-01
 -1.60854152E-01  1.14345644E+00  1.00000000E+00  1.00000000E+00  1.00000000E+00
  1.83477216E-03  1.39946270E-02  6.85865518E-02  2.32240873E-01  4.69069948E-01
  3.60455199E-01 -1.14961182E-01 -1.69117479E-01  1.14585195E+00  1.00000000E+00
  1.00000000E+00  1.00000000E+00
P(S=P) Contraction coefficients            R   N=          72
  0.00000000E+00  0.00000000E+00  0.00000000E+00  0.00000000E+00  0.00000000E+00
  0.00000000E+00  6.89990666E-02  3.16423961E-01  7.44308291E-01  1.00000000E+00
  1.00000000E+00  0.00000000E+00  0.00000000E+00  0.00000000E+00  0.00000000E+00
  0.00000000E+00  0.00000000E+00  0.00000000E+00  3.98940088E-03  3.03177067E-02
  1.29880029E-01  3.27951072E-01  4.53527100E-01  2.52154056E-01 -1.42993147E-02
  3.23572333E-01  7.43507765E-01  1.00000000E+00  1.00000000E+00  0.00000000E+00
  0.00000000E+00  0.00000000E+00  0.00000000E+00  0.00000000E+00  0.00000000E+00
  0.00000000E+00  0.00000000E+00  0.00000000E+00  0.00000000E+00  0.00000000E+00
  0.00000000E+00  0.00000000E+00  0.00000000E+00  0.00000000E+00  0.00000000E+00
  0.00000000E+00  0.00000000E+00  0.00000000E+00  0.00000000E+00  0.00000000E+00
  0.00000000E+00  0.00000000E+00  0.00000000E+00  0.00000000E+00  6.89990666E-02
  3.16423961E-01  7.44308291E-01  1.00000000E+00  1.00000000E+00  0.00000000E+00
  0.00000000E+00  0.00000000E+00  0.00000000E+00  0.00000000E+00  0.00000000E+00
  0.00000000E+00  6.75797439E-02  3.23907296E-01  7.40895140E-01  1.00000000E+00
  1.00000000E+00  0.00000000E+00
Coordinates of each shell                  R   N=          99
 -7.85128292E-01 -5.66917837E-05  2.48687958E-03 -7.85128292E-01 -5.66917837E-05
  2.48687958E-03 -7.85128292E-01 -5.66917837E-05  2.48687958E-03 -7.85128292E-01
 -5.66917837E-05  2.48687958E-03 -7.85128292E-01 -5.66917837E-05  2.48687958E-03
 -4.24006165E+00  2.45664396E-05 -1.68185625E-04 -4.24006165E+00  2.45664396E-05
 -1.68185625E-04 -4.24006165E+00  2.45664396E-05 -1.68185625E-04 -4.24006165E+00
  2.45664396E-05 -1.68185625E-04 -4.24006165E+00  2.45664396E-05 -1.68185625E-04
 -4.24006165E+00  2.45664396E-05 -1.68185625E-04 -1.49044589E-01  4.15550775E-03
 -1.94883298E+00 -1.49044589E-01  4.15550775E-03 -1.94883298E+00 -1.49044589E-01
  4.15550775E-03 -1.94883298E+00 -1.49044589E-01  4.15550775E-03 -1.94883298E+00
 -1.58445977E-01  1.68777676E+00  9.81982953E-01 -1.58445977E-01  1.68777676E+00
  9.81982953E-01 -1.58445977E-01  1.68777676E+00  9.81982953E-01 -1.58445977E-01
  1.68777676E+00  9.81982953E-01 -1.56029017E-01 -1.69280343E+00  9.74376805E-01
 -1.56029017E-01 -1.69280343E+00  9.74376805E-01 -1.56029017E-01 -1.69280343E+00
  9.74376805E-01 -1.56029017E-01 -1.69280343E+00  9.74376805E-01  4.88067881E+00
  1.39839733E-04 -3.56213374E-03  4.88067881E+00  1.39839733E-04 -3.56213374E-03
  4.88067881E+00  1.39839733E-04 -3.56213374E-03  4.88067881E+00  1.39839733E-04
 -3.56213374E-03  4.88067881E+00  1.39839733E-04 -3.56213374E-03  7.11205230E+00
 -6.99198666E-05  7.99354151E-04  7.11205230E+00 -6.99198666E-05  7.99354151E-04
  7.11205230E+00 -6.99198666E-05  7.99354151E-04  7.11205230E+00 -6.99198666E-05
  7.99354151E-04  7.11205230E+00 -6.99198666E-05  7.99354151E-04
Num ILSW                                   I              100
ILSW                                       I   N=         100
           0           1           0           0           2           0
           0           0           0           0         402          -1
           5           0           0           0           2           0
           0           0           0           0           1           0
           1           1           0           0           0           0
           0           0      100000           0          -1           0
           0           0           0           0           0           0
           0           0           0           1           0           0
           0 -2000000000           1           0           0           0
           0           0           4          52           0           0
           0           0           5           0           0           0
           0           0           0           7           0           1
           0           0           0           0           0           0
           0           0           0           0           0           0
           0           0           0           0           0           0
           0           0           0           0           0           0
           0           0           0           0
Num RLSW                                   I               52
RLSW                                       R   N=          52
  8.00000000E-01  7.20000000E-01  1.00000000E+00  8.10000000E-01  2.00000000E-01
  0.00000000E+00  0.00000000E+00  1.00000000E+00  0.00000000E+00  0.00000000E+00
  0.00000000E+00  0.00000000E+00  1.00000000E+00  0.00000000E+00  0.00000000E+00
  0.00000000E+00  0.00000000E+00  1.00000000E+00  0.00000000E+00  0.00000000E+00
  0.00000000E+00  0.00000000E+00  1.00000000E+00  0.00000000E+00  0.00000000E+00
  0.00000000E+00  0.00000000E+00  1.00000000E+00  0.00000000E+00  0.00000000E+00
  0.00000000E+00  0.00000000E+00  1.00000000E+00  0.00000000E+00  0.00000000E+00
  0.00000000E+00  0.00000000E+00  0.00000000E+00  1.00000000E+00  1.00000000E+00
  0.00000000E+00  1.00000000E+00  0.00000000E+00  0.00000000E+00  0.00000000E+00
  0.00000000E+00  0.00000000E+00  0.00000000E+00  0.00000000E+00  0.00000000E+00
  0.00000000E+00  0.00000000E+00
MxBond                                     I                4
NBond                                      I   N=           7
           4           1           1           1           1           1
           1
IBond                                      I   N=          28
           2           3           4           5           1           0
           0           0           1           0           0           0
           1           0           0           0           1           0
           0           0           7           0           0           0
           6           0           0           0
RBond                                      R   N=          28
  1.00000000E+00  1.00000000E+00  1.00000000E+00  1.00000000E+00  1.00000000E+00
  0.00000000E+00  0.00000000E+00  0.00000000E+00  1.00000000E+00  0.00000000E+00
  0.00000000E+00  0.00000000E+00  1.00000000E+00  0.00000000E+00  0.00000000E+00
  0.00000000E+00  1.00000000E+00  0.00000000E+00  0.00000000E+00  0.00000000E+00
  2.00000000E+00  0.00000000E+00  0.00000000E+00  0.00000000E+00  2.00000000E+00
  0.00000000E+00  0.00000000E+00  0.00000000E+00
Virial Ratio                               R      2.004581087233695E+00
SCF Energy                                 R     -5.929950748314702E+02
Total Energy                               R     -5.929950748314702E+02
RMS Force                                  R      2.692532764273774E-03
RMS Density                                R      1.765945712782730E-09
NImag                                      I                2
Job Status                                 I                1
Nuclear derivative order                   I                2
External E-field                           R   N=          35
  0.00000000E+00  0.00000000E+00  0.00000000E+00  0.00000000E+00  0.00000000E+00
  0.00000000E+00  0.00000000E+00  0.00000000E+00  0.00000000E+00  0.00000000E+00
  0.00000000E+00  0.00000000E+00  0.00000000E+00  0.00000000E+00  0.00000000E+00
  0.00000000E+00  0.00000000E+00  0.00000000E+00  0.00000000E+00  0.00000000E+00
  0.00000000E+00  0.00000000E+00  0.00000000E+00  0.00000000E+00  0.00000000E+00
  0.00000000E+00  0.00000000E+00  0.00000000E+00  0.00000000E+00  0.00000000E+00
  0.00000000E+00  0.00000000E+00  0.00000000E+00  0.00000000E+00  0.00000000E+00
IOpCl                                      I                0
IROHF                                      I                0
Alpha Orbital Energies                     R   N=          98
 -1.01415686E+02 -1.40935314E+01 -1.01050866E+01 -9.95948602E+00 -9.33184396E+00
 -7.09495678E+00 -7.08644630E+00 -7.08644542E+00 -7.21214083E-01 -6.46325643E-01
 -5.43538970E-01 -3.11833177E-01 -3.11381085E-01 -2.81504474E-01 -1.81814056E-01
 -1.79671701E-01 -1.79630972E-01 -9.54881096E-02 -9.54879124E-02 -6.80924105E-02
  1.07092592E-01  1.24185137E-01  1.43275296E-01  1.43323578E-01  1.73178860E-01
  1.99779814E-01  2.01108669E-01  2.01111495E-01  2.19444818E-01  2.19581127E-01
  2.38183682E-01  2.47615832E-01  2.47699020E-01  2.68817282E-01  2.76976394E-01
  2.77099836E-01  3.12175232E-01  3.30057252E-01  3.30284730E-01  3.58971340E-01
  3.85135022E-01  3.85237015E-01  3.89311188E-01  4.62495138E-01  4.76836364E-01
  6.37467552E-01  7.24020729E-01  7.40934974E-01  7.40960933E-01  7.69310804E-01
  7.69401253E-01  8.70004583E-01  8.96939695E-01  8.96995604E-01  9.68106742E-01
  9.89426057E-01  9.89482553E-01  1.04027955E+00  1.04036744E+00  1.07756667E+00
  1.09020337E+00  1.09054638E+00  1.12266057E+00  1.18883783E+00  1.18890861E+00
  1.20186059E+00  1.26496814E+00  1.37378670E+00  1.45631283E+00  1.59658378E+00
  1.59677544E+00  1.71924608E+00  1.78340047E+00  1.78340151E+00  1.80506744E+00
  1.80508757E+00  2.15292754E+00  2.20272270E+00  2.20274115E+00  2.21141549E+00
  2.21216263E+00  2.29156177E+00  2.48217055E+00  2.48323216E+00  2.68037435E+00
  2.80509504E+00  2.83581501E+00  2.83583619E+00  2.94812754E+00  2.94824654E+00
  3.25326987E+00  3.37630379E+00  3.55023409E+00  3.55127571E+00  4.20469623E+00
  4.40635849E+00  4.45165653E+00  4.56704958E+00
Alpha MO coefficients                      R   N=        9604
 -6.65285962E-06  2.58544040E-05 -5.42823453E-05  1.97359851E-08 -1.18598880E-08
  1.18289416E-04 -2.38788565E-05  2.89730208E-08  1.16879694E-08 -4.36973885E-05
 -4.90441487E-05 -5.34752245E-08 -5.90793948E-08 -2.23862465E-05  1.18801423E-05
  1.17714127E-05 -1.50229635E-08 -7.88069631E-08  2.58514232E-08  9.95996927E-01
  1.51504878E-02  4.09021921E-05 -7.70892359E-09  1.74748838E-08 -2.10655325E-02
 -1.77830493E-05 -6.88792831E-10 -1.26711144E-08  1.88928299E-03 -4.41443531E-05
  5.39821700E-09 -3.25392539E-08 -3.76759697E-04 -1.64319174E-05  4.15385611E-09
 -1.90812538E-08  7.50352597E-03  7.52436917E-03  7.52436855E-03 -1.58938818E-09
 -2.47050130E-08  3.49439034E-10 -2.78448956E-05 -3.46366399E-05  4.42549919E-05
  2.34907208E-05  2.76715112E-08 -1.23677208E-05 -2.81395257E-05 -3.44410146E-05
  4.43813085E-05  2.32798549E-05  1.07267381E-05  6.24684365E-06 -2.80384504E-05
 -3.44542970E-05  4.42406176E-05  2.33495405E-05 -1.07459056E-05  6.19270307E-06
 -3.79294535E-08  2.02863776E-06 -3.86734074E-07  1.85602599E-09 -1.46528597E-08
 -9.54618483E-05 -7.00159126E-05  4.77875093E-10 -9.79895864E-08 -4.15689507E-05
 -5.79460862E-05 -4.38072302E-09  5.49865166E-08 -8.16406898E-06  1.42052583E-06
  1.42308429E-06  1.60083018E-09 -1.99906118E-08 -3.17473029E-10 -1.49107743E-06
 -5.92580515E-06 -5.93283052E-07 -3.27742222E-10 -2.80365308E-09  8.97244292E-05
 -5.15978231E-05  6.39134762E-09 -9.61877448E-08  9.33459296E-05  4.43208690E-06
  8.46784488E-09 -1.15604744E-07  3.41796494E-06 -4.62245923E-06 -4.62276364E-06
 -1.42785371E-09  2.33068801E-08  1.98539243E-12  3.94701761E-06  1.39193844E-05
  6.36833098E-06  3.58890092E-10 -2.73700415E-08 -3.74329725E-05 -4.26469211E-05
  3.39417138E-08  1.39530774E-07  9.40198464E-04  1.23648295E-04 -4.33519860E-08
 -1.12401471E-06  5.34103512E-06  9.77394724E-06  9.74558511E-06 -1.03881940E-09
  2.38140715E-09  4.72367550E-09  1.55090194E-07  2.65050761E-06 -7.95594784E-08
  6.50511655E-10 -8.70538614E-10  7.17054813E-06  1.14044211E-06 -3.64466335E-09
  5.99047157E-09 -6.73296668E-05 -3.21478272E-05  1.03577294E-08 -5.89794396E-08
 -1.09989428E-04 -5.60649256E-05 -1.90628210E-09  4.87224333E-07  2.30553336E-06
  5.23700418E-06  5.23331108E-06  2.32349538E-10  2.59270080E-10  8.03575899E-10
  1.06194263E-05 -4.11692573E-05 -1.58364081E-04  2.47075172E-06  2.89215029E-09
 -2.08916060E-06  1.05365830E-05 -4.11374430E-05 -1.58240261E-04  2.55325264E-06
  1.81362235E-06  1.04393158E-06  1.05457573E-05 -4.10820184E-05 -1.58513120E-04
  2.53945943E-06 -1.80892717E-06  1.02820969E-06  8.32935931E-05  2.10143936E-04
 -2.79582817E-04  2.57145190E-08 -5.30094823E-07 -2.35921160E-04 -4.17270387E-04
  4.55742452E-08 -8.97111879E-07  1.45483288E-03  9.91265515E-04 -1.46347653E-07
  1.49968178E-06 -7.56749112E-04 -1.39141841E-05 -1.39138389E-05  8.15814009E-08
 -1.67458036E-06 -2.78826426E-10  9.92699592E-01  3.44392328E-02 -1.39479789E-03
  1.31543896E-07 -2.72457113E-06  5.19462273E-03  1.12568541E-04 -1.63374471E-08
  2.05328429E-07 -2.98516940E-03  6.18888295E-05  2.15582375E-08  3.81290539E-07
 -7.70729554E-03 -8.41921774E-03 -8.41921542E-03 -7.65935343E-08  1.59938485E-06
 -2.95867515E-10  9.92988179E-01  4.96245028E-02 -7.42173090E-04  3.16005453E-07
  1.33646573E-06 -1.64406606E-02  9.83931316E-04 -1.72062295E-06 -3.64274849E-06
  7.06601222E-03 -3.65265490E-03  8.84314429E-07  7.14915335E-07 -9.28007162E-03
 -8.86952222E-03 -8.87167005E-03 -6.97849003E-08 -4.69253222E-07  4.07025021E-07
 -9.48034753E-06 -5.21123055E-05 -2.94306447E-06 -2.85064271E-08 -8.43631241E-08
 -2.37042466E-05  1.91433280E-04  1.74825600E-07  6.65993119E-07  3.32180496E-03
  1.88699911E-03 -6.26443829E-07 -2.03372602E-07 -6.23401053E-03 -2.02863097E-03
  3.08034664E-07 -1.48697554E-06 -1.39976013E-04 -1.82906235E-04 -1.82565354E-04
 -9.39322207E-08 -2.59410527E-07 -7.17986964E-08 -1.61455742E-04  3.00924709E-03
 -9.81346145E-04  2.55832533E-05  4.26618125E-07 -9.65475581E-05 -1.63202781E-04
  3.01971383E-03 -9.96039728E-04  2.61000937E-05  8.27663756E-05  4.84906152E-05
 -1.62755942E-04  3.01573002E-03 -9.91161091E-04  2.60153855E-05 -8.33063741E-05
  4.85395778E-05 -1.97016882E-05 -3.62590780E-05  3.99918315E-05 -6.79314116E-08
 -6.52406187E-07 -3.66805834E-04 -7.16991274E-04  2.45496603E-07  1.44563539E-06
  2.15125134E-03  1.60982784E-04  9.60598857E-07  6.36448036E-06 -6.51335540E-05
 -3.00708536E-05 -3.02033178E-05 -1.31780537E-08 -2.71158153E-07  1.13940283E-08
 -2.68463436E-05 -9.50184474E-05 -1.38558532E-05 -1.75777771E-09  1.68570733E-07
  1.04913196E-03 -3.07227680E-04  5.93010854E-08 -1.58292540E-06 -1.06418548E-03
 -1.61342771E-05 -7.54377368E-07 -2.78929645E-06 -2.01284920E-05 -6.73568856E-05
 -6.73482435E-05  1.56540062E-08  2.87224736E-07  1.12822873E-10 -1.38141846E-05
 -6.54088686E-05 -7.23049138E-05  3.06221142E-09 -6.23913177E-09  5.02690114E-04
  3.81660908E-04  2.14666848E-07  1.40478149E-06 -6.61214112E-04  1.82245060E-03
 -3.32091705E-07  1.35911141E-07 -4.22826377E-05 -2.58710965E-05 -2.60456492E-05
 -1.35501035E-09 -1.77345064E-08  1.73095547E-08  1.26276359E-07  6.00968817E-06
  3.19712142E-06  5.22478205E-09  2.23946187E-08  1.36032276E-05 -2.26779920E-05
 -3.18380693E-08 -1.33003067E-07 -1.53815950E-04  1.88257389E-04  1.01739207E-07
  4.12810365E-07  2.67731880E-03  6.53075989E-04 -1.33343748E-08  5.61681827E-07
  3.18159681E-05  1.10966135E-06  1.05455501E-06  1.44426483E-08  6.48971602E-08
  9.98063221E-09 -2.11183394E-05 -4.59124321E-04 -3.11869618E-04 -3.55663444E-05
  3.16156043E-08 -1.99424597E-05 -2.04631062E-05 -4.62067603E-04 -3.04823671E-04
 -3.60947458E-05  1.75697846E-05  1.01292198E-05 -2.06106818E-05 -4.61484086E-04
 -3.05984466E-04 -3.59943495E-05 -1.75942460E-05  1.00215984E-05  9.92846343E-01
  4.92568977E-02  1.87702073E-03 -1.79926820E-07  3.89737935E-06 -1.13050641E-02
 -1.13870015E-03  1.25357398E-07 -3.24976502E-06 -4.99946066E-03 -1.53936779E-03
 -8.86802209E-08 -6.53207603E-06 -8.46903622E-03 -9.68895084E-03 -9.68891309E-03
 -1.24135679E-07  2.77117023E-06 -3.12525391E-09 -4.96134420E-04  6.19567772E-06
  4.40704396E-04 -3.81428541E-08  8.32810941E-07 -5.80533163E-04  2.87881784E-04
 -5.88345776E-08  8.05249479E-07  8.87288908E-03 -2.99576161E-03  4.46992820E-07
 -4.21567989E-06 -2.72121737E-04  1.46934097E-04  1.46933190E-04  4.63971932E-08
 -1.02907754E-06 -8.59956266E-11 -1.11142675E-04  1.26093388E-04  3.76172224E-04
 -3.68478527E-08  8.18751408E-08  3.02820618E-03 -1.62967438E-03 -7.95948168E-07
 -1.21272625E-06 -3.73581939E-02  3.14479632E-02  6.19679094E-07  1.14982344E-05
 -7.73294458E-04 -1.29510358E-04 -1.28856236E-04  2.44267335E-08 -5.22690006E-07
 -2.02056840E-07 -2.84605445E-01  1.02274082E+00  5.01245493E-03 -9.63173023E-07
  2.35561773E-06  7.60050057E-02  6.27422120E-04 -1.70921343E-08  3.46081488E-07
 -2.63836177E-02 -1.81225449E-03  2.22014049E-07 -7.16611912E-07  5.92542280E-02
  1.66386299E-02 -5.90431712E-07  1.79565837E-05 -1.51910214E-02 -1.55845230E-02
 -1.55845898E-02  9.87758664E-09  5.08545983E-07  6.03260830E-09 -4.34781411E-05
 -6.87397138E-04  7.36557780E-04 -7.02746512E-05 -7.34982914E-09  1.44201592E-05
 -4.21396555E-05 -6.88336429E-04  7.33602796E-04 -7.27039666E-05 -1.24294162E-05
 -7.38764728E-06 -4.25309543E-05 -6.89441966E-04  7.37221356E-04 -7.19365432E-05
  1.23609736E-05 -7.24332927E-06  1.09839338E-05  5.04953448E-05  4.36399131E-05
  9.52428638E-09  1.06759289E-06  4.65876029E-04  6.09884111E-04 -1.07897779E-07
 -2.45285067E-06 -1.44376930E-02  8.46591614E-03  1.35089893E-06 -3.24200245E-05
  7.52172109E-05  3.50350520E-07  3.71413348E-07 -1.35203753E-08  3.06558306E-07
 -1.82564814E-09  1.10927749E-05  5.93378676E-05 -1.72463763E-05 -3.49617116E-08
  5.29034205E-07 -8.03430171E-04  5.79570755E-04  1.24082583E-07 -1.23785200E-06
  3.03978273E-04 -2.39700747E-03 -7.17323397E-07  1.91148559E-05 -4.49592277E-05
  2.93308720E-05  2.93238721E-05  2.75332007E-09 -4.60221654E-07  1.50486306E-09
  7.66811788E-05  1.62781284E-03  4.29285765E-04  3.50121354E-08  8.67693696E-07
 -8.56680756E-04  1.39160029E-03 -2.22759965E-06 -8.67488066E-06  4.81155995E-02
 -4.83956797E-02  1.58948201E-06 -7.10999485E-06 -1.96177950E-03  2.17055948E-04
  2.19487919E-04  2.75965836E-07 -1.47686460E-06 -4.14725062E-07  1.47738856E-03
 -5.61723579E-03  9.90326685E-01 -1.81112643E-04  3.83323277E-04 -3.94828801E-04
  3.14824130E-02 -5.41326665E-06  1.31574686E-05  4.86083529E-03 -1.29283560E-02
  2.07734965E-06 -5.24906265E-06 -6.75594905E-02 -1.31467707E-02  2.88295430E-07
 -2.27276278E-05  7.71038992E-04 -4.53536461E-04 -4.53401063E-04  8.37158893E-09
  1.14763407E-06 -1.93326397E-08 -1.46909942E-04  1.36360976E-03 -5.02288266E-03
 -3.07350525E-04  1.75615864E-07 -2.99140684E-05 -1.42007892E-04  1.37478153E-03
 -5.03273547E-03 -3.10270896E-04  2.51549349E-05  1.48706440E-05 -1.43581243E-04
  1.37220651E-03 -5.02761649E-03 -3.09231694E-04 -2.51277367E-05  1.48281086E-05
 -2.19936265E-05 -1.46755675E-04 -8.96838896E-05  9.74427662E-09 -1.37715419E-06
  1.75021944E-03  9.53568605E-04 -1.09888063E-07  6.58102964E-06  3.29832195E-02
 -1.47207704E-02 -2.58756083E-06  5.93845225E-05  1.03247516E-04 -3.56772510E-05
 -3.56929577E-05 -1.41071100E-08  8.54132646E-08  2.88043669E-09 -2.42046891E-05
 -7.93244884E-05  3.79368868E-05  4.91369481E-08 -8.72890649E-07 -4.97806748E-05
  4.18653925E-04 -2.85835590E-07  5.05386776E-06 -6.93302365E-03  5.43978911E-03
  1.18429316E-06 -3.04120810E-05 -1.22251816E-04 -3.28055610E-05 -3.27943191E-05
  7.86054876E-09  1.68818509E-07 -7.35565357E-10  4.20433999E-07  2.60315550E-06
  6.99112738E-07  1.62254363E-05 -8.08741620E-05 -1.49331162E-05 -3.34792145E-06
 -6.41817281E-05  3.20939628E-04  2.17256637E-05 -7.73595381E-05 -9.16177957E-05
  4.61845275E-04  9.13809889E-08 -8.12886482E-05  8.12049524E-05 -2.93252232E-05
  1.46074811E-04  1.81396961E-05  1.50022248E-07 -7.88191814E-07 -4.12106044E-04
 -1.94809635E-01  9.71507709E-01 -3.17394560E-07 -1.12175339E-05 -5.81713531E-03
  2.90100956E-02  6.54435300E-06  3.60253098E-06  2.28658191E-03 -1.14043033E-02
 -8.67841695E-05 -2.33436271E-05 -1.01532818E-03  5.06591433E-03 -2.90570908E-07
  4.57710780E-06 -4.92767792E-06 -6.48202876E-05  3.23244298E-04 -1.17862077E-06
  6.05034452E-05 -5.39188992E-04  4.58513669E-03  2.60665003E-04  5.18288489E-06
 -4.63882703E-05 -1.89029809E-05  1.90056369E-04 -1.50763806E-03 -8.62132690E-05
 -1.94094678E-06 -2.90493022E-05 -3.93757651E-05  3.79003833E-04 -3.07406079E-03
 -1.75881894E-04  1.85706119E-05 -3.31124562E-05 -7.47726265E-08 -2.02616350E-07
 -2.19196311E-07 -7.14089310E-06  3.57237998E-05 -1.27787612E-05 -1.13260656E-05
  2.75059309E-05 -1.38209253E-04  4.50191061E-05 -3.23146904E-05 -1.92511961E-04
  9.70100704E-04 -9.02121933E-07  3.63280625E-06 -3.46241213E-06  1.43191824E-06
 -7.25898201E-06 -7.87793974E-07 -3.39677519E-07 -1.37087601E-06  9.59895140E-08
  3.45875608E-06 -1.75790688E-05  1.66705249E-05 -8.55302963E-06 -2.13509158E-05
  1.08304398E-04  1.28468234E-06  1.03105088E-05  8.50763411E-05 -4.31101518E-04
  2.34680222E-07  5.38604687E-07 -2.33759474E-06  1.91968337E-06 -9.63152201E-06
 -3.22135127E-07  2.36140813E-07  1.50937533E-06  1.80139103E-07 -8.13379087E-05
 -1.63018106E-05 -8.50399658E-06 -4.50587351E-07  3.14272874E-04  6.31931425E-05
  1.04851589E-05 -3.14461126E-05  4.63802692E-04  9.39949598E-05  5.27962426E-08
 -1.60465977E-05  1.59088330E-05  1.46420197E-04  2.93262322E-05 -9.53074513E-05
  3.47176024E-08 -2.38823178E-07  1.02009733E-04  9.71507756E-01  1.94809669E-01
 -1.56919218E-07  3.65762168E-06  2.90101709E-02  5.81726332E-03  3.37612824E-06
 -1.06927045E-06 -1.14034602E-02 -2.28689875E-03 -3.48893328E-05 -8.41577935E-06
  5.06502549E-03  1.01614808E-03  2.04514114E-07  7.01162161E-07 -1.07941325E-06
  3.23575089E-04  6.48821460E-05  5.91846904E-06  1.18360740E-05 -1.04767791E-04
  9.11473801E-04  5.16516383E-05 -2.55032493E-05 -9.19392320E-06 -5.50056443E-05
  5.40098203E-04 -4.42158113E-03 -2.53817857E-04 -4.47567659E-05 -1.67763654E-05
  4.44672399E-05 -4.20662227E-04  3.51000926E-03  2.01052395E-04 -4.02342256E-05
  3.85840631E-06 -4.14554534E-08 -1.39011725E-07 -3.72890160E-08  3.56748219E-05