RxCoord=4.59635 DE=45.06                                                
Freq      RB3LYP                                                      6-31++G(d,p)        
Number of atoms                            I                7
Info1-9                                    I   N=           9
          16          16           0           0           0         100
           6          18        -502
Full Title                                 C   N=           2
RxCoord=4.59635 DE=45.06
Route                                      C   N=           6
#p b3lyp 6-31++g(d,p) scf=verytight NoSymm freq=noraman int=
ultrafine   
Charge                                     I               -1
Multiplicity                               I                1
Number of electrons                        I               40
Number of alpha electrons                  I               20
Number of beta electrons                   I               20
Number of basis functions                  I               98
Number of independent functions            I               98
Number of point charges in /Mol/           I                0
Number of translation vectors              I                0
Atomic numbers                             I   N=           7
           6          17           1           1           1           6
           7
Nuclear charges                            R   N=           7
  6.00000000E+00  1.70000000E+01  1.00000000E+00  1.00000000E+00  1.00000000E+00
  6.00000000E+00  7.00000000E+00
Current cartesian coordinates              R   N=          21
 -7.93556471E-01 -3.77945225E-06  2.25444327E-03 -4.24823283E+00 -2.07869874E-05
 -3.02356180E-04 -1.61943860E-01  4.53345297E-03 -1.94819425E+00 -1.62215980E-01
  1.68830967E+00  9.82564988E-01 -1.63346036E-01 -1.69244250E+00  9.74815221E-01
  4.89644102E+00  3.96842486E-05 -3.23899058E-03  7.12789765E+00 -9.44863062E-06
  9.39193884E-04
Number of symbols in /Mol/                 I                0
Force Field                                I                0
Atom Types                                 C   N=           7
                                                            
                        
Int Atom Types                             I   N=           7
           0           0           0           0           0           0
           0
MM charges                                 R   N=           7
  0.00000000E+00  0.00000000E+00  0.00000000E+00  0.00000000E+00  0.00000000E+00
  0.00000000E+00  0.00000000E+00
Integer atomic weights                     I   N=           7
          12          35           1           1           1          12
          14
Real atomic weights                        R   N=           7
  1.20000000E+01  3.49688527E+01  1.00782504E+00  1.00782504E+00  1.00782504E+00
  1.20000000E+01  1.40030740E+01
Atom fragment info                         I   N=           7
           0           0           0           0           0           0
           0
Atom residue num                           I   N=           7
           0           0           0           0           0           0
           0
Nuclear spins                              I   N=           7
           0           3           1           1           1           0
           2
Nuclear ZEff                               R   N=           7
 -3.60000000E+00 -1.42400000E+01 -1.00000000E+00 -1.00000000E+00 -1.00000000E+00
 -3.60000000E+00 -4.55000000E+00
Nuclear ZNuc                               R   N=           7
  6.00000000E+00  1.70000000E+01  1.00000000E+00  1.00000000E+00  1.00000000E+00
  6.00000000E+00  7.00000000E+00
Nuclear QMom                               R   N=           7
  0.00000000E+00 -8.16500000E+00  0.00000000E+00  0.00000000E+00  0.00000000E+00
  0.00000000E+00  2.04400000E+00
Nuclear GFac                               R   N=           7
  0.00000000E+00  8.21874000E-01  2.79284600E+00  2.79284600E+00  2.79284600E+00
  0.00000000E+00  4.03761000E-01
MicOpt                                     I   N=           7
          -1          -1          -1          -1          -1          -1
          -1
Number of residues                         I                0
Number of secondary structures             I                0
Number of contracted shells                I               33
Number of primitive shells                 I               72
Pure/Cartesian d shells                    I                1
Pure/Cartesian f shells                    I                0
Highest angular momentum                   I                2
Largest degree of contraction              I                6
Shell types                                I   N=          33
           0          -1          -1          -1           2           0
          -1          -1          -1          -1           2           0
           0           0           1           0           0           0
           1           0           0           0           1           0
          -1          -1          -1           2           0          -1
          -1          -1           2
Number of primitives per shell             I   N=          33
           6           3           1           1           1           6
           6           3           1           1           1           3
           1           1           1           3           1           1
           1           3           1           1           1           6
           3           1           1           1           6           3
           1           1           1
Shell to atom map                          I   N=          33
           1           1           1           1           1           2
           2           2           2           2           2           3
           3           3           3           4           4           4
           4           5           5           5           5           6
           6           6           6           6           7           7
           7           7           7
Primitive exponents                        R   N=          72
  3.04752488E+03  4.57369518E+02  1.03948685E+02  2.92101553E+01  9.28666296E+00
  3.16392696E+00  7.86827235E+00  1.88128854E+00  5.44249258E-01  1.68714478E-01
  4.38000000E-02  8.00000000E-01  2.51801000E+04  3.78035000E+03  8.60474000E+02
  2.42145000E+02  7.73349000E+01  2.62470000E+01  4.91765000E+02  1.16984000E+02
  3.74153000E+01  1.37834000E+01  5.45215000E+00  2.22588000E+00  3.18649000E+00
  1.14427000E+00  4.20377000E-01  1.42657000E-01  4.83000000E-02  7.50000000E-01
  1.87311370E+01  2.82539436E+00  6.40121692E-01  1.61277759E-01  3.60000000E-02
  1.10000000E+00  1.87311370E+01  2.82539436E+00  6.40121692E-01  1.61277759E-01
  3.60000000E-02  1.10000000E+00  1.87311370E+01  2.82539436E+00  6.40121692E-01
  1.61277759E-01  3.60000000E-02  1.10000000E+00  3.04752488E+03  4.57369518E+02
  1.03948685E+02  2.92101553E+01  9.28666296E+00  3.16392696E+00  7.86827235E+00
  1.88128854E+00  5.44249258E-01  1.68714478E-01  4.38000000E-02  8.00000000E-01
  4.17351146E+03  6.27457911E+02  1.42902093E+02  4.02343293E+01  1.28202129E+01
  4.39043701E+00  1.16263619E+01  2.71627981E+00  7.72218397E-01  2.12031498E-01
  6.39000000E-02  8.00000000E-01
Contraction coefficients                   R   N=          72
  1.83473713E-03  1.40373228E-02  6.88426223E-02  2.32184443E-01  4.67941348E-01
  3.62311985E-01 -1.19332420E-01 -1.60854152E-01  1.14345644E+00  1.00000000E+00
  1.00000000E+00  1.00000000E+00  1.83295985E-03  1.40341988E-02  6.90973943E-02
  2.37451980E-01  4.83033960E-01  3.39855972E-01 -2.29739142E-03 -3.07137189E-02
 -1.12528069E-01  4.50163278E-02  5.89353363E-01  4.65206287E-01 -2.51828028E-01
  6.15892514E-02  1.06018433E+00  1.00000000E+00  1.00000000E+00  1.00000000E+00
  3.34946043E-02  2.34726953E-01  8.13757326E-01  1.00000000E+00  1.00000000E+00
  1.00000000E+00  3.34946043E-02  2.34726953E-01  8.13757326E-01  1.00000000E+00
  1.00000000E+00  1.00000000E+00  3.34946043E-02  2.34726953E-01  8.13757326E-01
  1.00000000E+00  1.00000000E+00  1.00000000E+00  1.83473713E-03  1.40373228E-02
  6.88426223E-02  2.32184443E-01  4.67941348E-01  3.62311985E-01 -1.19332420E-01
 -1.60854152E-01  1.14345644E+00  1.00000000E+00  1.00000000E+00  1.00000000E+00
  1.83477216E-03  1.39946270E-02  6.85865518E-02  2.32240873E-01  4.69069948E-01
  3.60455199E-01 -1.14961182E-01 -1.69117479E-01  1.14585195E+00  1.00000000E+00
  1.00000000E+00  1.00000000E+00
P(S=P) Contraction coefficients            R   N=          72
  0.00000000E+00  0.00000000E+00  0.00000000E+00  0.00000000E+00  0.00000000E+00
  0.00000000E+00  6.89990666E-02  3.16423961E-01  7.44308291E-01  1.00000000E+00
  1.00000000E+00  0.00000000E+00  0.00000000E+00  0.00000000E+00  0.00000000E+00
  0.00000000E+00  0.00000000E+00  0.00000000E+00  3.98940088E-03  3.03177067E-02
  1.29880029E-01  3.27951072E-01  4.53527100E-01  2.52154056E-01 -1.42993147E-02
  3.23572333E-01  7.43507765E-01  1.00000000E+00  1.00000000E+00  0.00000000E+00
  0.00000000E+00  0.00000000E+00  0.00000000E+00  0.00000000E+00  0.00000000E+00
  0.00000000E+00  0.00000000E+00  0.00000000E+00  0.00000000E+00  0.00000000E+00
  0.00000000E+00  0.00000000E+00  0.00000000E+00  0.00000000E+00  0.00000000E+00
  0.00000000E+00  0.00000000E+00  0.00000000E+00  0.00000000E+00  0.00000000E+00
  0.00000000E+00  0.00000000E+00  0.00000000E+00  0.00000000E+00  6.89990666E-02
  3.16423961E-01  7.44308291E-01  1.00000000E+00  1.00000000E+00  0.00000000E+00
  0.00000000E+00  0.00000000E+00  0.00000000E+00  0.00000000E+00  0.00000000E+00
  0.00000000E+00  6.75797439E-02  3.23907296E-01  7.40895140E-01  1.00000000E+00
  1.00000000E+00  0.00000000E+00
Coordinates of each shell                  R   N=          99
 -7.93556471E-01 -3.77945225E-06  2.25444327E-03 -7.93556471E-01 -3.77945225E-06
  2.25444327E-03 -7.93556471E-01 -3.77945225E-06  2.25444327E-03 -7.93556471E-01
 -3.77945225E-06  2.25444327E-03 -7.93556471E-01 -3.77945225E-06  2.25444327E-03
 -4.24823283E+00 -2.07869874E-05 -3.02356180E-04 -4.24823283E+00 -2.07869874E-05
 -3.02356180E-04 -4.24823283E+00 -2.07869874E-05 -3.02356180E-04 -4.24823283E+00
 -2.07869874E-05 -3.02356180E-04 -4.24823283E+00 -2.07869874E-05 -3.02356180E-04
 -4.24823283E+00 -2.07869874E-05 -3.02356180E-04 -1.61943860E-01  4.53345297E-03
 -1.94819425E+00 -1.61943860E-01  4.53345297E-03 -1.94819425E+00 -1.61943860E-01
  4.53345297E-03 -1.94819425E+00 -1.61943860E-01  4.53345297E-03 -1.94819425E+00
 -1.62215980E-01  1.68830967E+00  9.82564988E-01 -1.62215980E-01  1.68830967E+00
  9.82564988E-01 -1.62215980E-01  1.68830967E+00  9.82564988E-01 -1.62215980E-01
  1.68830967E+00  9.82564988E-01 -1.63346036E-01 -1.69244250E+00  9.74815221E-01
 -1.63346036E-01 -1.69244250E+00  9.74815221E-01 -1.63346036E-01 -1.69244250E+00
  9.74815221E-01 -1.63346036E-01 -1.69244250E+00  9.74815221E-01  4.89644102E+00
  3.96842486E-05 -3.23899058E-03  4.89644102E+00  3.96842486E-05 -3.23899058E-03
  4.89644102E+00  3.96842486E-05 -3.23899058E-03  4.89644102E+00  3.96842486E-05
 -3.23899058E-03  4.89644102E+00  3.96842486E-05 -3.23899058E-03  7.12789765E+00
 -9.44863062E-06  9.39193884E-04  7.12789765E+00 -9.44863062E-06  9.39193884E-04
  7.12789765E+00 -9.44863062E-06  9.39193884E-04  7.12789765E+00 -9.44863062E-06
  9.39193884E-04  7.12789765E+00 -9.44863062E-06  9.39193884E-04
Num ILSW                                   I              100
ILSW                                       I   N=         100
           0           1           0           0           2           0
           0           0           0           0         402          -1
           5           0           0           0           2           0
           0           0           0           0           1           0
           1           1           0           0           0           0
           0           0      100000           0          -1           0
           0           0           0           0           0           0
           0           0           0           1           0           0
           0 -2000000000           1           0           0           0
           0           0           4          52           0           0
           0           0           5           0           0           0
           0           0           0           7           0           1
           0           0           0           0           0           0
           0           0           0           0           0           0
           0           0           0           0           0           0
           0           0           0           0           0           0
           0           0           0           0
Num RLSW                                   I               52
RLSW                                       R   N=          52
  8.00000000E-01  7.20000000E-01  1.00000000E+00  8.10000000E-01  2.00000000E-01
  0.00000000E+00  0.00000000E+00  1.00000000E+00  0.00000000E+00  0.00000000E+00
  0.00000000E+00  0.00000000E+00  1.00000000E+00  0.00000000E+00  0.00000000E+00
  0.00000000E+00  0.00000000E+00  1.00000000E+00  0.00000000E+00  0.00000000E+00
  0.00000000E+00  0.00000000E+00  1.00000000E+00  0.00000000E+00  0.00000000E+00
  0.00000000E+00  0.00000000E+00  1.00000000E+00  0.00000000E+00  0.00000000E+00
  0.00000000E+00  0.00000000E+00  1.00000000E+00  0.00000000E+00  0.00000000E+00
  0.00000000E+00  0.00000000E+00  0.00000000E+00  1.00000000E+00  1.00000000E+00
  0.00000000E+00  1.00000000E+00  0.00000000E+00  0.00000000E+00  0.00000000E+00
  0.00000000E+00  0.00000000E+00  0.00000000E+00  0.00000000E+00  0.00000000E+00
  0.00000000E+00  0.00000000E+00
MxBond                                     I                4
NBond                                      I   N=           7
           4           1           1           1           1           1
           1
IBond                                      I   N=          28
           2           3           4           5           1           0
           0           0           1           0           0           0
           1           0           0           0           1           0
           0           0           7           0           0           0
           6           0           0           0
RBond                                      R   N=          28
  1.00000000E+00  1.00000000E+00  1.00000000E+00  1.00000000E+00  1.00000000E+00
  0.00000000E+00  0.00000000E+00  0.00000000E+00  1.00000000E+00  0.00000000E+00
  0.00000000E+00  0.00000000E+00  1.00000000E+00  0.00000000E+00  0.00000000E+00
  0.00000000E+00  1.00000000E+00  0.00000000E+00  0.00000000E+00  0.00000000E+00
  2.00000000E+00  0.00000000E+00  0.00000000E+00  0.00000000E+00  2.00000000E+00
  0.00000000E+00  0.00000000E+00  0.00000000E+00
Virial Ratio                               R      2.004584873863955E+00
SCF Energy                                 R     -5.929951095422965E+02
Total Energy                               R     -5.929951095422965E+02
RMS Force                                  R      2.642880097356382E-03
RMS Density                                R      1.751285467161112E-09
NImag                                      I                2
Job Status                                 I                1
Nuclear derivative order                   I                2
External E-field                           R   N=          35
  0.00000000E+00  0.00000000E+00  0.00000000E+00  0.00000000E+00  0.00000000E+00
  0.00000000E+00  0.00000000E+00  0.00000000E+00  0.00000000E+00  0.00000000E+00
  0.00000000E+00  0.00000000E+00  0.00000000E+00  0.00000000E+00  0.00000000E+00
  0.00000000E+00  0.00000000E+00  0.00000000E+00  0.00000000E+00  0.00000000E+00
  0.00000000E+00  0.00000000E+00  0.00000000E+00  0.00000000E+00  0.00000000E+00
  0.00000000E+00  0.00000000E+00  0.00000000E+00  0.00000000E+00  0.00000000E+00
  0.00000000E+00  0.00000000E+00  0.00000000E+00  0.00000000E+00  0.00000000E+00
IOpCl                                      I                0
IROHF                                      I                0
Alpha Orbital Energies                     R   N=          98
 -1.01416178E+02 -1.40934256E+01 -1.01055608E+01 -9.95944547E+00 -9.33232689E+00
 -7.09545010E+00 -7.08692449E+00 -7.08692417E+00 -7.21679749E-01 -6.46196127E-01
 -5.43965939E-01 -3.12091974E-01 -3.11962142E-01 -2.81926171E-01 -1.81730672E-01
 -1.80066285E-01 -1.80055377E-01 -9.53620645E-02 -9.53615178E-02 -6.79972983E-02
  1.06905672E-01  1.23836033E-01  1.43126448E-01  1.43159030E-01  1.73172158E-01
  1.99436607E-01  2.00918375E-01  2.00919112E-01  2.19336699E-01  2.19449588E-01
  2.37890433E-01  2.47442783E-01  2.47513078E-01  2.68618808E-01  2.77122133E-01
  2.77175192E-01  3.11996806E-01  3.29613890E-01  3.29854050E-01  3.58702745E-01
  3.85065102E-01  3.85160710E-01  3.89501294E-01  4.62237163E-01  4.76476616E-01
  6.36479655E-01  7.23534336E-01  7.40597275E-01  7.40629493E-01  7.68875238E-01
  7.69039928E-01  8.69191186E-01  8.96985240E-01  8.97012024E-01  9.67138093E-01
  9.89011699E-01  9.89051654E-01  1.03987071E+00  1.03994533E+00  1.07690385E+00
  1.08981954E+00  1.08995167E+00  1.12241671E+00  1.18871367E+00  1.18876918E+00
  1.19892619E+00  1.26470943E+00  1.37407681E+00  1.45518303E+00  1.59611886E+00
  1.59614703E+00  1.71616060E+00  1.78352426E+00  1.78352651E+00  1.80514774E+00
  1.80515823E+00  2.15250964E+00  2.20277811E+00  2.20283630E+00  2.21087230E+00
  2.21154047E+00  2.29100199E+00  2.48179701E+00  2.48223935E+00  2.68075548E+00
  2.80314796E+00  2.83590657E+00  2.83592088E+00  2.94733870E+00  2.94771990E+00
  3.25262941E+00  3.37558045E+00  3.54967735E+00  3.55063022E+00  4.20413088E+00
  4.40575535E+00  4.45115955E+00  4.56652313E+00
Alpha MO coefficients                      R   N=        9604
 -6.67312613E-06  2.58459853E-05 -5.44323942E-05 -1.12037173E-08 -7.60441184E-08
  1.18636392E-04 -2.29114035E-05 -1.32700522E-08 -7.61685455E-08 -4.45938427E-05
 -4.52984656E-05  2.33165768E-08  1.05885548E-07 -2.25150600E-05  1.17607387E-05
  1.18086908E-05  6.71636414E-09 -2.44516947E-08 -1.38058851E-08  9.95996930E-01
  1.51504656E-02  4.09805755E-05  3.04548074E-09  3.79674617E-08 -2.10655533E-02
 -1.77975481E-05  4.41203695E-10 -9.00515095E-09  1.88959724E-03 -4.36762650E-05
 -2.06068984E-09 -4.36597767E-08 -3.72712179E-04 -1.56137346E-05 -1.48249563E-09
 -2.68063751E-08  7.50359342E-03  7.52433481E-03  7.52433601E-03  9.34819083E-10
 -1.63906428E-08 -1.53483871E-10 -2.81112637E-05 -3.48598282E-05  4.45914321E-05
  2.33354837E-05  2.81004398E-08 -1.24076391E-05 -2.80255361E-05 -3.47360879E-05
  4.42458350E-05  2.33736486E-05  1.07256467E-05  6.24403701E-06 -2.80761519E-05
 -3.47303018E-05  4.43098756E-05  2.33430455E-05 -1.07586687E-05  6.19777552E-06
 -9.41808786E-09  2.04239397E-06 -4.34496553E-07 -2.69607215E-10 -1.66351099E-08
 -9.39341519E-05 -6.82406339E-05  2.57001237E-09 -8.14795826E-08 -4.42866086E-05
 -5.58709022E-05  6.93411472E-10  5.19984225E-08 -7.94983404E-06  1.46773774E-06
  1.46829106E-06  1.06982949E-11 -2.05816624E-08  1.45664483E-10 -1.44893233E-06
 -5.76493598E-06 -5.59207340E-07  1.77113146E-10 -1.41267718E-09  8.74658874E-05
 -5.05918665E-05  5.15296533E-10 -9.45477067E-08  9.29314849E-05  3.87162044E-06
 -1.59587358E-10 -1.15118782E-07  3.38465901E-06 -4.50957919E-06 -4.50980754E-06
 -1.42032124E-10  2.25908633E-08 -3.75582706E-12  3.93810862E-06  1.36689172E-05
  6.63356408E-06  4.49597934E-10 -2.36399554E-08 -3.72856520E-05 -4.29841475E-05
 -1.75762183E-08  1.41649164E-08  9.27777377E-04  1.26334361E-04  4.18521111E-08
 -7.88643801E-07  5.65589590E-06  9.72480048E-06  9.72466194E-06  3.54882779E-10
  4.81777460E-09 -2.27995222E-09  1.56632626E-07  2.66454094E-06 -7.15533215E-08
 -2.19068360E-10 -2.57909536E-09  7.25655519E-06  1.11221946E-06  1.20590975E-09
  1.54061166E-08 -6.77003048E-05 -3.22900146E-05 -2.70979078E-09 -7.96038904E-08
 -1.03995708E-04 -5.43068620E-05 -1.29176841E-08  4.02398126E-07  2.23885969E-06
  5.27097455E-06  5.27191079E-06 -1.62765434E-10 -7.00224441E-10 -3.73142830E-10
  1.06236951E-05 -4.07572791E-05 -1.56360332E-04  2.61999691E-06  5.65910778E-09
 -2.04452314E-06  1.05845116E-05 -4.05575303E-05 -1.57059217E-04  2.64230715E-06
  1.73907859E-06  1.00597534E-06  1.05779126E-05 -4.05790203E-05 -1.56977392E-04
  2.64942185E-06 -1.74787460E-06  1.00165012E-06  8.32751240E-05  2.10239320E-04
 -2.79423925E-04  5.96736161E-09 -5.08049980E-07 -2.34511862E-04 -4.16278839E-04
  8.77513492E-09 -8.64427300E-07  1.45457726E-03  9.89416595E-04  8.45768418E-09
  1.64197156E-06 -7.56559573E-04 -1.39435303E-05 -1.39456259E-05  1.84855643E-08
 -1.60647983E-06  2.24466680E-10  9.92699705E-01  3.44390678E-02 -1.39454775E-03
  3.05881635E-08 -2.61093419E-06  5.19242227E-03  1.13192069E-04  1.68866159E-11
  2.16357567E-07 -2.98333261E-03  6.20982755E-05 -1.79678717E-08  2.53317813E-07
 -7.70727794E-03 -8.41893060E-03 -8.41892915E-03 -1.81634572E-08  1.53060024E-06
  2.29219878E-11  9.92987946E-01  4.96233122E-02 -7.44050988E-04 -1.92135377E-07
  8.48176612E-08 -1.64368318E-02  9.93197159E-04  9.03484084E-07  2.26109000E-06
  7.10852310E-03 -3.69488666E-03 -4.44303756E-07 -2.21910387E-06 -9.28009583E-03
 -8.87120209E-03 -8.87087383E-03  1.80709572E-08 -2.43632788E-07 -2.10975999E-07
 -9.49958374E-06 -5.23533814E-05 -3.01312971E-06  1.33083969E-08  1.34366765E-08
 -2.43596568E-05  1.91904856E-04 -8.22868372E-08  4.78712453E-08  3.33087757E-03
  1.88975838E-03  2.69062489E-07  1.70968708E-06 -6.29203538E-03 -2.04405728E-03
 -1.13566868E-07 -2.21834584E-06 -1.40096548E-04 -1.83249606E-04 -1.83326511E-04
  4.03433204E-08  5.38620390E-08  3.43220000E-08 -1.63153327E-04  3.01585176E-03
 -9.97099407E-04  2.53763434E-05  1.17775999E-07 -9.57068624E-05 -1.63064066E-04
  3.01119000E-03 -9.93438911E-04  2.55591197E-05  8.38112607E-05  4.85663847E-05
 -1.63326627E-04  3.01334780E-03 -9.95829881E-04  2.55906670E-05 -8.38458236E-05
  4.79632245E-05 -1.95824972E-05 -3.46885147E-05  3.95398806E-05  3.59986256E-08
 -3.49589048E-07 -3.64419182E-04 -7.06954927E-04 -9.98856314E-08  5.14255419E-07
  2.18275828E-03  1.28812693E-04 -4.94764638E-07  2.56975398E-06 -6.63813716E-05
 -2.94313853E-05 -2.94870908E-05  1.12531184E-08 -1.80151684E-07 -5.14826218E-09
 -2.65845915E-05 -9.37773283E-05 -1.42322489E-05 -1.98707847E-09  1.39444080E-07
  1.03892615E-03 -3.03884138E-04  1.16907325E-08 -1.45349002E-06 -1.06595613E-03
 -3.76151221E-06  3.33646373E-07 -2.12162369E-07 -1.96341766E-05 -6.68328200E-05
 -6.68249710E-05 -1.16629050E-08  1.95235857E-07 -8.07109952E-11 -1.34147972E-05
 -6.36090081E-05 -7.04308386E-05 -2.10267071E-09 -1.35504775E-08  5.01809953E-04
  3.68459705E-04 -1.16562529E-07  5.08737526E-07 -5.73058032E-04  1.70079096E-03
  1.38655757E-07  1.14466052E-06 -4.29405688E-05 -2.53157643E-05 -2.53737063E-05
 -6.89185246E-10 -1.49649431E-08 -8.40748021E-09  1.27284902E-07  6.01046040E-06
  3.13206523E-06 -2.36673921E-09  3.35162041E-09  1.36591862E-05 -2.22456660E-05
  1.43931923E-08 -1.77924940E-08 -1.54892597E-04  1.79154478E-04 -4.48811597E-08
  4.93948408E-08  2.52615053E-03  6.18132375E-04  2.00737013E-10  4.58866678E-07
  3.09239275E-05  1.31419287E-06  1.31796894E-06 -6.53457456E-09  1.20008505E-08
 -4.61869418E-09 -1.96330398E-05 -4.57789018E-04 -3.18936755E-04 -3.54852041E-05
  5.25579311E-08 -2.01970169E-05 -1.95387040E-05 -4.58307379E-04 -3.16706078E-04
 -3.55989527E-05  1.76339814E-05  1.02094966E-05 -1.94722169E-05 -4.58612499E-04
 -3.16168054E-04 -3.56452883E-05 -1.76903936E-05  1.01427556E-05  9.92846589E-01
  4.92536023E-02  1.87649492E-03 -4.49483303E-08  3.70366820E-06 -1.13215760E-02
 -1.15513795E-03  4.23808079E-08 -3.02378363E-06 -4.91608240E-03 -1.58792056E-03
  1.85480088E-07 -4.97934721E-06 -8.46996614E-03 -9.68804858E-03 -9.68803060E-03
 -3.39954257E-08  2.62336072E-06  1.29586833E-09 -4.96401720E-04  4.34388292E-06
  4.40646673E-04 -9.94595729E-09  7.91521297E-07 -5.56984931E-04  2.76267037E-04
 -1.98888219E-09  8.07793347E-07  8.87189522E-03 -2.98159853E-03 -2.18289191E-08
 -4.80627512E-06 -2.71759884E-04  1.45747277E-04  1.45745454E-04  1.22591753E-08
 -9.71313623E-07  1.08030795E-10 -1.11292235E-04  1.25877844E-04  3.76989492E-04
  1.90412600E-08  1.93699962E-07  3.03125396E-03 -1.63541210E-03  3.23878498E-07
  1.21519110E-06 -3.72812693E-02  3.11291694E-02 -2.38944902E-07  8.65905852E-06
 -7.73823855E-04 -1.29240635E-04 -1.29705302E-04 -7.34821700E-09 -5.25768511E-07
  9.26489890E-08 -2.84605529E-01  1.02274059E+00  5.02243978E-03  3.78869714E-07
  4.88761133E-06  7.60021491E-02  6.29294967E-04  4.50349061E-09  3.58684088E-07
 -2.63706317E-02 -1.82066701E-03 -9.18171189E-08 -1.31066220E-06  5.89240001E-02
  1.65633167E-02  9.19829438E-08  1.71154310E-05 -1.51913121E-02 -1.55850313E-02
 -1.55850561E-02 -8.92630963E-09  4.08049372E-07 -3.22220242E-09 -4.28620074E-05
 -6.81061278E-04  7.05680694E-04 -7.17053168E-05 -4.29965821E-08  1.48360899E-05
 -4.30045022E-05 -6.85161637E-04  7.14505903E-04 -7.13074684E-05 -1.24038912E-05
 -7.40140378E-06 -4.28122590E-05 -6.84768290E-04  7.12995649E-04 -7.16602925E-05
  1.24855899E-05 -7.38341397E-06  1.07162278E-05  4.93800131E-05  4.34551445E-05
 -2.88205254E-08  8.40097415E-07  4.80031578E-04  6.14746634E-04  9.43929618E-08
 -1.65282348E-06 -1.41094316E-02  8.33972199E-03  4.29978679E-08 -3.02903129E-05
  7.46076571E-05 -1.20239185E-07 -1.11355143E-07 -1.19060482E-09  2.94935135E-07
  8.42921509E-10  1.11326338E-05  5.95317497E-05 -1.71961550E-05  3.38458418E-09
  5.33324397E-07 -8.07705476E-04  5.81454451E-04 -3.89616702E-08 -1.37486907E-06
  2.67742586E-04 -2.36738731E-03 -6.92167027E-08  1.77418872E-05 -4.48629450E-05
  2.94202284E-05  2.94212347E-05  1.06558647E-08 -3.84003505E-07 -5.80338940E-10
  7.72984385E-05  1.63071489E-03  4.32848616E-04 -2.99895184E-08  6.22336285E-07
 -8.69342093E-04  1.37720492E-03  1.09491184E-06 -6.55749507E-07  4.80196255E-02
 -4.79281618E-02 -8.91358596E-07 -1.19474904E-05 -1.96134573E-03  2.19382699E-04
  2.19369770E-04 -1.20168782E-07 -2.12996952E-06  1.88341752E-07  1.48036237E-03
 -5.62715776E-03  9.90326632E-01  7.56841863E-05  8.76613867E-04 -3.92537387E-04
  3.14805115E-02  2.24894284E-06  2.76760955E-05  4.83414188E-03 -1.29259246E-02
 -8.66235980E-07 -1.08133116E-05 -6.70959988E-02 -1.30401724E-02  1.04589460E-07
 -2.01300316E-05  7.72569142E-04 -4.52313083E-04 -4.52294973E-04 -1.41924319E-08
  9.69799109E-07  9.04247641E-09 -1.42002684E-04  1.36849577E-03 -4.98559585E-03
 -3.08468102E-04  1.73719121E-08 -2.98188738E-05 -1.42856442E-04  1.36949761E-03
 -4.97645148E-03 -3.07622955E-04  2.51146167E-05  1.45667047E-05 -1.42141941E-04
  1.37081298E-03 -4.97926353E-03 -3.08091330E-04 -2.52310176E-05  1.44226470E-05
 -2.18085982E-05 -1.45187778E-04 -8.92353176E-05  2.71662388E-08 -1.15899365E-06
  1.67129401E-03  8.98105513E-04 -1.24519546E-07  5.59329607E-06  3.24214821E-02
 -1.45657850E-02 -1.07330245E-07  5.58607285E-05  1.00446028E-04 -3.49684437E-05
 -3.49660503E-05 -2.05078544E-09  8.94538648E-08 -1.49384825E-09 -2.53677129E-05
 -8.43663795E-05  3.78347559E-05 -2.63759021E-09 -8.55519548E-07  1.88573020E-05
  3.82878094E-04  1.04139105E-08  4.91089640E-06 -6.81926578E-03  5.40446311E-03
  7.00562611E-08 -2.84616319E-05 -1.21195492E-04 -3.57736862E-05 -3.57667978E-05
 -5.34060143E-09  1.26750009E-07  2.00637917E-10 -7.82721620E-08 -5.24835390E-07
  8.53886303E-08 -8.01243282E-05 -1.99003340E-05  2.94165599E-06 -8.39516182E-07
  3.15410483E-04  7.85492493E-05 -2.82520044E-06  2.14544850E-06  4.57322299E-04
  1.14728457E-04 -3.58649712E-08 -1.94231226E-05  1.95486230E-05  1.45001982E-04
  3.59909568E-05 -9.32132945E-05  1.58673057E-08 -3.76163935E-08 -2.84893652E-04
  9.61608212E-01  2.38931903E-01  3.32777164E-08 -8.71122639E-06  2.87132644E-02
  7.13447713E-03 -8.87090695E-07  2.73947309E-06 -1.12864730E-02 -2.80461987E-03
  2.04827323E-06 -5.34747785E-07  5.01065861E-03  1.24554344E-03 -3.34818606E-07
  1.25894440E-06 -9.99223654E-07  3.20522867E-04  7.96389176E-05  5.92971483E-06
  1.42246020E-05 -1.35071359E-04  1.11739049E-03  6.39024282E-05 -2.48640289E-05
 -1.16701861E-05 -5.79517401E-05  5.38312991E-04 -4.47311201E-03 -2.55896275E-04
 -4.37728215E-05 -1.72938755E-05  4.32224471E-05 -4.06603649E-04  3.35758505E-03
  1.92604532E-04 -3.93082361E-05  2.19018328E-06  1.30316989E-08  6.23730723E-08
 -4.60357377E-08  3.46160304E-05  8.62674566E-06 -2.41522994E-06 -1.37291691E-06
 -1.33528161E-04 -3.34042054E-05 -4.52498819E-07 -4.50152887E-08  9.49345196E-04
  2.37994731E-04 -9.17002180E-08  9.03326754E-07 -7.90962605E-07 -7.20155623E-06
 -1.81447234E-06  4.03544934E-06 -5.78693395E-08 -2.17915109E-07  1.57152006E-08
 -1.69958955E-05 -4.29318466E-06  2.47975834E-06 -1.20697759E-06  1.04981117E-04
  2.64743161E-05  1.28087518E-07  2.14331833E-07 -4.22614408E-04 -1.06444240E-04
  1.14708397E-08  1.80124748E-07 -4.96387566E-07 -9.28783064E-06 -2.32074309E-06
  1.62286434E-06 -3.39214949E-08 -3.14484706E-07  4.63458844E-07  1.99514632E-05
 -8.02635375E-05  1.52506591E-06 -3.21899504E-06 -7.78291082E-05  3.13951660E-04
  1.93829102E-06 -2.32593710E-05 -1.14313751E-04  4.64479452E-04 -3.86136782E-08
 -8.11470708E-05  8.14007933E-05 -3.60473727E-05  1.44923402E-04  2.26263364E-05
  1.02982923E-07 -4.15739516E-07 -8.32874164E-04 -2.38932065E-01  9.61607787E-01
 -3.40821905E-08 -2.49546284E-05 -7.13445486E-03  2.87136193E-02  2.82832041E-07
  7.86997347E-06  2.80439551E-03 -1.12876242E-02 -2.71116175E-05 -9.91173116E-06
 -1.24513901E-03  5.01334960E-03 -9.08875516E-07  4.89506753E-06 -4.40137493E-06
 -7.96705310E-05  3.20635921E-04 -1.42159641E-06  5.75318190E-05 -5.45004183E-04
  4.54629921E-03  2.59707995E-04  6.22224046E-06 -4.70685263E-05 -1.66725063E-05
  1.57353533E-04 -1.30581072E-03 -7.41062194E-05  7.28926582E-07 -2.82898131E-05
 -4.12071292E-05  3.90532475E-04 -3.23512886E-03 -1.84688268E-04  2.00269111E-05
 -3.30288872E-05  5.65317988E-09  8.27463878E-08 -1.95419640E-07 -8.60693330E-06