RxCoord=4.69622 DE=44.99                                                
Freq      RB3LYP                                                      6-31++G(d,p)        
Number of atoms                            I                7
Info1-9                                    I   N=           9
          16          16           0           0           0         100
           6          18        -502
Full Title                                 C   N=           2
RxCoord=4.69622 DE=44.99
Route                                      C   N=           6
#p b3lyp 6-31++g(d,p) scf=verytight NoSymm freq=noraman int=
ultrafine   
Charge                                     I               -1
Multiplicity                               I                1
Number of electrons                        I               40
Number of alpha electrons                  I               20
Number of beta electrons                   I               20
Number of basis functions                  I               98
Number of independent functions            I               98
Number of point charges in /Mol/           I                0
Number of translation vectors              I                0
Atomic numbers                             I   N=           7
           6          17           1           1           1           6
           7
Nuclear charges                            R   N=           7
  6.00000000E+00  1.70000000E+01  1.00000000E+00  1.00000000E+00  1.00000000E+00
  6.00000000E+00  7.00000000E+00
Current cartesian coordinates              R   N=          21
 -8.02050790E-01 -1.88972612E-06  1.79712954E-03 -4.25641723E+00 -7.55890450E-06
 -2.89128097E-04 -1.67966417E-01  4.43707694E-03 -1.94931108E+00 -1.72150270E-01
  1.68794684E+00  9.81661699E-01 -1.71609809E-01 -1.69248785E+00  9.73987521E-01
  4.91226936E+00  8.31479495E-05 -2.47365150E-03  7.14379781E+00 -4.34637009E-05
  8.44707578E-04
Number of symbols in /Mol/                 I                0
Force Field                                I                0
Atom Types                                 C   N=           7
                                                            
                        
Int Atom Types                             I   N=           7
           0           0           0           0           0           0
           0
MM charges                                 R   N=           7
  0.00000000E+00  0.00000000E+00  0.00000000E+00  0.00000000E+00  0.00000000E+00
  0.00000000E+00  0.00000000E+00
Integer atomic weights                     I   N=           7
          12          35           1           1           1          12
          14
Real atomic weights                        R   N=           7
  1.20000000E+01  3.49688527E+01  1.00782504E+00  1.00782504E+00  1.00782504E+00
  1.20000000E+01  1.40030740E+01
Atom fragment info                         I   N=           7
           0           0           0           0           0           0
           0
Atom residue num                           I   N=           7
           0           0           0           0           0           0
           0
Nuclear spins                              I   N=           7
           0           3           1           1           1           0
           2
Nuclear ZEff                               R   N=           7
 -3.60000000E+00 -1.42400000E+01 -1.00000000E+00 -1.00000000E+00 -1.00000000E+00
 -3.60000000E+00 -4.55000000E+00
Nuclear ZNuc                               R   N=           7
  6.00000000E+00  1.70000000E+01  1.00000000E+00  1.00000000E+00  1.00000000E+00
  6.00000000E+00  7.00000000E+00
Nuclear QMom                               R   N=           7
  0.00000000E+00 -8.16500000E+00  0.00000000E+00  0.00000000E+00  0.00000000E+00
  0.00000000E+00  2.04400000E+00
Nuclear GFac                               R   N=           7
  0.00000000E+00  8.21874000E-01  2.79284600E+00  2.79284600E+00  2.79284600E+00
  0.00000000E+00  4.03761000E-01
MicOpt                                     I   N=           7
          -1          -1          -1          -1          -1          -1
          -1
Number of residues                         I                0
Number of secondary structures             I                0
Number of contracted shells                I               33
Number of primitive shells                 I               72
Pure/Cartesian d shells                    I                1
Pure/Cartesian f shells                    I                0
Highest angular momentum                   I                2
Largest degree of contraction              I                6
Shell types                                I   N=          33
           0          -1          -1          -1           2           0
          -1          -1          -1          -1           2           0
           0           0           1           0           0           0
           1           0           0           0           1           0
          -1          -1          -1           2           0          -1
          -1          -1           2
Number of primitives per shell             I   N=          33
           6           3           1           1           1           6
           6           3           1           1           1           3
           1           1           1           3           1           1
           1           3           1           1           1           6
           3           1           1           1           6           3
           1           1           1
Shell to atom map                          I   N=          33
           1           1           1           1           1           2
           2           2           2           2           2           3
           3           3           3           4           4           4
           4           5           5           5           5           6
           6           6           6           6           7           7
           7           7           7
Primitive exponents                        R   N=          72
  3.04752488E+03  4.57369518E+02  1.03948685E+02  2.92101553E+01  9.28666296E+00
  3.16392696E+00  7.86827235E+00  1.88128854E+00  5.44249258E-01  1.68714478E-01
  4.38000000E-02  8.00000000E-01  2.51801000E+04  3.78035000E+03  8.60474000E+02
  2.42145000E+02  7.73349000E+01  2.62470000E+01  4.91765000E+02  1.16984000E+02
  3.74153000E+01  1.37834000E+01  5.45215000E+00  2.22588000E+00  3.18649000E+00
  1.14427000E+00  4.20377000E-01  1.42657000E-01  4.83000000E-02  7.50000000E-01
  1.87311370E+01  2.82539436E+00  6.40121692E-01  1.61277759E-01  3.60000000E-02
  1.10000000E+00  1.87311370E+01  2.82539436E+00  6.40121692E-01  1.61277759E-01
  3.60000000E-02  1.10000000E+00  1.87311370E+01  2.82539436E+00  6.40121692E-01
  1.61277759E-01  3.60000000E-02  1.10000000E+00  3.04752488E+03  4.57369518E+02
  1.03948685E+02  2.92101553E+01  9.28666296E+00  3.16392696E+00  7.86827235E+00
  1.88128854E+00  5.44249258E-01  1.68714478E-01  4.38000000E-02  8.00000000E-01
  4.17351146E+03  6.27457911E+02  1.42902093E+02  4.02343293E+01  1.28202129E+01
  4.39043701E+00  1.16263619E+01  2.71627981E+00  7.72218397E-01  2.12031498E-01
  6.39000000E-02  8.00000000E-01
Contraction coefficients                   R   N=          72
  1.83473713E-03  1.40373228E-02  6.88426223E-02  2.32184443E-01  4.67941348E-01
  3.62311985E-01 -1.19332420E-01 -1.60854152E-01  1.14345644E+00  1.00000000E+00
  1.00000000E+00  1.00000000E+00  1.83295985E-03  1.40341988E-02  6.90973943E-02
  2.37451980E-01  4.83033960E-01  3.39855972E-01 -2.29739142E-03 -3.07137189E-02
 -1.12528069E-01  4.50163278E-02  5.89353363E-01  4.65206287E-01 -2.51828028E-01
  6.15892514E-02  1.06018433E+00  1.00000000E+00  1.00000000E+00  1.00000000E+00
  3.34946043E-02  2.34726953E-01  8.13757326E-01  1.00000000E+00  1.00000000E+00
  1.00000000E+00  3.34946043E-02  2.34726953E-01  8.13757326E-01  1.00000000E+00
  1.00000000E+00  1.00000000E+00  3.34946043E-02  2.34726953E-01  8.13757326E-01
  1.00000000E+00  1.00000000E+00  1.00000000E+00  1.83473713E-03  1.40373228E-02
  6.88426223E-02  2.32184443E-01  4.67941348E-01  3.62311985E-01 -1.19332420E-01
 -1.60854152E-01  1.14345644E+00  1.00000000E+00  1.00000000E+00  1.00000000E+00
  1.83477216E-03  1.39946270E-02  6.85865518E-02  2.32240873E-01  4.69069948E-01
  3.60455199E-01 -1.14961182E-01 -1.69117479E-01  1.14585195E+00  1.00000000E+00
  1.00000000E+00  1.00000000E+00
P(S=P) Contraction coefficients            R   N=          72
  0.00000000E+00  0.00000000E+00  0.00000000E+00  0.00000000E+00  0.00000000E+00
  0.00000000E+00  6.89990666E-02  3.16423961E-01  7.44308291E-01  1.00000000E+00
  1.00000000E+00  0.00000000E+00  0.00000000E+00  0.00000000E+00  0.00000000E+00
  0.00000000E+00  0.00000000E+00  0.00000000E+00  3.98940088E-03  3.03177067E-02
  1.29880029E-01  3.27951072E-01  4.53527100E-01  2.52154056E-01 -1.42993147E-02
  3.23572333E-01  7.43507765E-01  1.00000000E+00  1.00000000E+00  0.00000000E+00
  0.00000000E+00  0.00000000E+00  0.00000000E+00  0.00000000E+00  0.00000000E+00
  0.00000000E+00  0.00000000E+00  0.00000000E+00  0.00000000E+00  0.00000000E+00
  0.00000000E+00  0.00000000E+00  0.00000000E+00  0.00000000E+00  0.00000000E+00
  0.00000000E+00  0.00000000E+00  0.00000000E+00  0.00000000E+00  0.00000000E+00
  0.00000000E+00  0.00000000E+00  0.00000000E+00  0.00000000E+00  6.89990666E-02
  3.16423961E-01  7.44308291E-01  1.00000000E+00  1.00000000E+00  0.00000000E+00
  0.00000000E+00  0.00000000E+00  0.00000000E+00  0.00000000E+00  0.00000000E+00
  0.00000000E+00  6.75797439E-02  3.23907296E-01  7.40895140E-01  1.00000000E+00
  1.00000000E+00  0.00000000E+00
Coordinates of each shell                  R   N=          99
 -8.02050790E-01 -1.88972612E-06  1.79712954E-03 -8.02050790E-01 -1.88972612E-06
  1.79712954E-03 -8.02050790E-01 -1.88972612E-06  1.79712954E-03 -8.02050790E-01
 -1.88972612E-06  1.79712954E-03 -8.02050790E-01 -1.88972612E-06  1.79712954E-03
 -4.25641723E+00 -7.55890450E-06 -2.89128097E-04 -4.25641723E+00 -7.55890450E-06
 -2.89128097E-04 -4.25641723E+00 -7.55890450E-06 -2.89128097E-04 -4.25641723E+00
 -7.55890450E-06 -2.89128097E-04 -4.25641723E+00 -7.55890450E-06 -2.89128097E-04
 -4.25641723E+00 -7.55890450E-06 -2.89128097E-04 -1.67966417E-01  4.43707694E-03
 -1.94931108E+00 -1.67966417E-01  4.43707694E-03 -1.94931108E+00 -1.67966417E-01
  4.43707694E-03 -1.94931108E+00 -1.67966417E-01  4.43707694E-03 -1.94931108E+00
 -1.72150270E-01  1.68794684E+00  9.81661699E-01 -1.72150270E-01  1.68794684E+00
  9.81661699E-01 -1.72150270E-01  1.68794684E+00  9.81661699E-01 -1.72150270E-01
  1.68794684E+00  9.81661699E-01 -1.71609809E-01 -1.69248785E+00  9.73987521E-01
 -1.71609809E-01 -1.69248785E+00  9.73987521E-01 -1.71609809E-01 -1.69248785E+00
  9.73987521E-01 -1.71609809E-01 -1.69248785E+00  9.73987521E-01  4.91226936E+00
  8.31479495E-05 -2.47365150E-03  4.91226936E+00  8.31479495E-05 -2.47365150E-03
  4.91226936E+00  8.31479495E-05 -2.47365150E-03  4.91226936E+00  8.31479495E-05
 -2.47365150E-03  4.91226936E+00  8.31479495E-05 -2.47365150E-03  7.14379781E+00
 -4.34637009E-05  8.44707578E-04  7.14379781E+00 -4.34637009E-05  8.44707578E-04
  7.14379781E+00 -4.34637009E-05  8.44707578E-04  7.14379781E+00 -4.34637009E-05
  8.44707578E-04  7.14379781E+00 -4.34637009E-05  8.44707578E-04
Num ILSW                                   I              100
ILSW                                       I   N=         100
           0           1           0           0           2           0
           0           0           0           0         402          -1
           5           0           0           0           2           0
           0           0           0           0           1           0
           1           1           0           0           0           0
           0           0      100000           0          -1           0
           0           0           0           0           0           0
           0           0           0           1           0           0
           0 -2000000000           1           0           0           0
           0           0           4          52           0           0
           0           0           5           0           0           0
           0           0           0           7           0           1
           0           0           0           0           0           0
           0           0           0           0           0           0
           0           0           0           0           0           0
           0           0           0           0           0           0
           0           0           0           0
Num RLSW                                   I               52
RLSW                                       R   N=          52
  8.00000000E-01  7.20000000E-01  1.00000000E+00  8.10000000E-01  2.00000000E-01
  0.00000000E+00  0.00000000E+00  1.00000000E+00  0.00000000E+00  0.00000000E+00
  0.00000000E+00  0.00000000E+00  1.00000000E+00  0.00000000E+00  0.00000000E+00
  0.00000000E+00  0.00000000E+00  1.00000000E+00  0.00000000E+00  0.00000000E+00
  0.00000000E+00  0.00000000E+00  1.00000000E+00  0.00000000E+00  0.00000000E+00
  0.00000000E+00  0.00000000E+00  1.00000000E+00  0.00000000E+00  0.00000000E+00
  0.00000000E+00  0.00000000E+00  1.00000000E+00  0.00000000E+00  0.00000000E+00
  0.00000000E+00  0.00000000E+00  0.00000000E+00  1.00000000E+00  1.00000000E+00
  0.00000000E+00  1.00000000E+00  0.00000000E+00  0.00000000E+00  0.00000000E+00
  0.00000000E+00  0.00000000E+00  0.00000000E+00  0.00000000E+00  0.00000000E+00
  0.00000000E+00  0.00000000E+00
MxBond                                     I                4
NBond                                      I   N=           7
           4           1           1           1           1           1
           1
IBond                                      I   N=          28
           2           3           4           5           1           0
           0           0           1           0           0           0
           1           0           0           0           1           0
           0           0           7           0           0           0
           6           0           0           0
RBond                                      R   N=          28
  1.00000000E+00  1.00000000E+00  1.00000000E+00  1.00000000E+00  1.00000000E+00
  0.00000000E+00  0.00000000E+00  0.00000000E+00  1.00000000E+00  0.00000000E+00
  0.00000000E+00  0.00000000E+00  1.00000000E+00  0.00000000E+00  0.00000000E+00
  0.00000000E+00  1.00000000E+00  0.00000000E+00  0.00000000E+00  0.00000000E+00
  2.00000000E+00  0.00000000E+00  0.00000000E+00  0.00000000E+00  2.00000000E+00
  0.00000000E+00  0.00000000E+00  0.00000000E+00
Virial Ratio                               R      2.004588411626559E+00
SCF Energy                                 R     -5.929951378766395E+02
Total Energy                               R     -5.929951378766395E+02
RMS Force                                  R      2.601536292102321E-03
RMS Density                                R      1.735578127251551E-09
NImag                                      I                2
Job Status                                 I                1
Nuclear derivative order                   I                2
External E-field                           R   N=          35
  0.00000000E+00  0.00000000E+00  0.00000000E+00  0.00000000E+00  0.00000000E+00
  0.00000000E+00  0.00000000E+00  0.00000000E+00  0.00000000E+00  0.00000000E+00
  0.00000000E+00  0.00000000E+00  0.00000000E+00  0.00000000E+00  0.00000000E+00
  0.00000000E+00  0.00000000E+00  0.00000000E+00  0.00000000E+00  0.00000000E+00
  0.00000000E+00  0.00000000E+00  0.00000000E+00  0.00000000E+00  0.00000000E+00
  0.00000000E+00  0.00000000E+00  0.00000000E+00  0.00000000E+00  0.00000000E+00
  0.00000000E+00  0.00000000E+00  0.00000000E+00  0.00000000E+00  0.00000000E+00
IOpCl                                      I                0
IROHF                                      I                0
Alpha Orbital Energies                     R   N=          98
 -1.01416668E+02 -1.40933176E+01 -1.01060308E+01 -9.95940082E+00 -9.33280791E+00
 -7.09594140E+00 -7.08740104E+00 -7.08740075E+00 -7.22150426E-01 -6.46068353E-01
 -5.44393660E-01 -3.12524545E-01 -3.12377797E-01 -2.82352401E-01 -1.81644423E-01
 -1.80475023E-01 -1.80461960E-01 -9.52364431E-02 -9.52361394E-02 -6.78992211E-02
  1.06718603E-01  1.23488920E-01  1.42970334E-01  1.43000064E-01  1.73166807E-01
  1.99100321E-01  2.00727185E-01  2.00729543E-01  2.19223679E-01  2.19322560E-01
  2.37596152E-01  2.47267777E-01  2.47326811E-01  2.68420420E-01  2.77227092E-01
  2.77294515E-01  3.11816600E-01  3.29284218E-01  3.29311367E-01  3.58428193E-01
  3.85004583E-01  3.85081905E-01  3.89690661E-01  4.61977962E-01  4.76110642E-01
  6.35527745E-01  7.23065191E-01  7.40278468E-01  7.40282621E-01  7.68544447E-01
  7.68571117E-01  8.68377259E-01  8.97025909E-01  8.97046110E-01  9.66151679E-01
  9.88587364E-01  9.88625427E-01  1.03945728E+00  1.03951961E+00  1.07622071E+00
  1.08935839E+00  1.08944574E+00  1.12217383E+00  1.18858879E+00  1.18863872E+00
  1.19604453E+00  1.26445196E+00  1.37436162E+00  1.45406581E+00  1.59556425E+00
  1.59563094E+00  1.71311167E+00  1.78364833E+00  1.78364887E+00  1.80522906E+00
  1.80523958E+00  2.15208198E+00  2.20287976E+00  2.20289382E+00  2.21056535E+00
  2.21072365E+00  2.29041294E+00  2.48120855E+00  2.48149571E+00  2.68111932E+00
  2.80122261E+00  2.83600230E+00  2.83601522E+00  2.94683551E+00  2.94694311E+00
  3.25198003E+00  3.37488019E+00  3.54946862E+00  3.54966844E+00  4.20357142E+00
  4.40516350E+00  4.45066905E+00  4.56599367E+00
Alpha MO coefficients                      R   N=        9604
 -6.69264591E-06  2.58556400E-05 -5.45797916E-05  4.03411746E-09 -2.98788344E-08
  1.18991079E-04 -2.19617348E-05  8.03572795E-09 -1.28704710E-08 -4.54997979E-05
 -4.16251196E-05 -1.23529552E-08  5.10877559E-09 -2.26646932E-05  1.17578802E-05
  1.17286472E-05 -3.22523597E-09 -4.27318350E-08  4.91158129E-09  9.95996933E-01
  1.51504445E-02  4.10585289E-05 -1.33302690E-09  2.13720391E-08 -2.10655780E-02
 -1.78117495E-05 -2.89858264E-10 -9.23777595E-09  1.88990255E-03 -4.32159642E-05
  5.89742813E-10 -2.94430125E-08 -3.68726465E-04 -1.48064845E-05  9.60731220E-10
 -1.53594285E-08  7.50366344E-03  7.52430336E-03  7.52430338E-03 -6.01025900E-10
 -1.68838465E-08  8.60678772E-11 -2.80777789E-05 -3.51193473E-05  4.45127185E-05
  2.33738061E-05  2.82749014E-08 -1.24153801E-05 -2.81756487E-05 -3.50070562E-05
  4.44581216E-05  2.32961394E-05  1.07501237E-05  6.25482289E-06 -2.81540023E-05
 -3.50074499E-05  4.44271838E-05  2.33111101E-05 -1.07762813E-05  6.20437853E-06
  1.80440456E-08  2.05322887E-06 -4.80837067E-07  6.73120091E-10 -1.11356470E-08
 -9.23996608E-05 -6.64864578E-05  1.71493793E-09 -6.97320531E-08 -4.69029296E-05
 -5.38281628E-05 -1.17651124E-09  3.19758403E-08 -7.73706342E-06  1.51108981E-06
  1.51229925E-06  7.26887031E-10 -1.52704161E-08 -6.49154693E-11 -1.40698188E-06
 -5.60517763E-06 -5.25612660E-07 -5.41573460E-11 -1.66711591E-09  8.52245279E-05
 -4.95901621E-05  3.17447685E-09 -7.11599508E-08  9.25014437E-05  3.31828089E-06
  3.52183226E-09 -8.28852443E-08  3.35131054E-06 -4.39690204E-06 -4.39710906E-06
 -7.16803032E-10  1.70525191E-08  7.00670497E-13  3.92524758E-06  1.34141903E-05
  6.88173942E-06  4.25969135E-10 -1.95101159E-08 -3.70869293E-05 -4.32637840E-05
  7.23108402E-09  6.58155169E-08  9.15398676E-04  1.28948676E-04  2.60267354E-09
 -7.21417716E-07  5.95357476E-06  9.68756910E-06  9.67493116E-06 -1.58624094E-10
  2.58828406E-09  1.08169566E-09  1.58081616E-07  2.67710330E-06 -6.40084579E-08
  1.60617408E-10 -1.26620608E-09  7.33707752E-06  1.08560570E-06 -9.00937885E-10
  7.94358750E-09 -6.80293786E-05 -3.24101893E-05  2.47944918E-09 -5.41255909E-08
 -9.80933049E-05 -5.25753509E-05 -7.48235662E-09  3.42216309E-07  2.17443998E-06
  5.30513804E-06  5.30391456E-06 -1.00807925E-10 -4.41518611E-10  1.52692927E-10
  1.06482490E-05 -4.02030014E-05 -1.55058316E-04  2.72160614E-06  4.24185321E-09
 -1.96704603E-06  1.05966866E-05 -4.01275688E-05 -1.55267371E-04  2.76159455E-06
  1.69550290E-06  9.78951514E-07  1.05977810E-05 -4.01112202E-05 -1.55341165E-04
  2.75865463E-06 -1.69748120E-06  9.69509469E-07  8.32597550E-05  2.10316973E-04
 -2.79291986E-04  1.54917175E-08 -4.03187690E-07 -2.33091540E-04 -4.15270437E-04
  2.61422013E-08 -6.80607047E-07  1.45437136E-03  9.87561844E-04 -6.34396215E-08
  1.20879730E-06 -7.56383966E-04 -1.39707379E-05 -1.39709236E-05  4.88545804E-08
 -1.27403733E-06 -3.37799098E-11  9.92699811E-01  3.44389500E-02 -1.39432435E-03
  7.90906068E-08 -2.07290065E-06  5.19022585E-03  1.13817443E-04 -7.59460862E-09
  1.64477059E-07 -2.98152918E-03  6.23136453E-05 -3.18541836E-10  2.51538183E-07
 -7.70725114E-03 -8.41865987E-03 -8.41865882E-03 -4.63460419E-08  1.21568679E-06
 -1.01656522E-10  9.92987696E-01  4.96223372E-02 -7.45917528E-04  7.08886544E-08
  6.16320869E-07 -1.64333001E-02  1.00244007E-03 -4.27618241E-07 -1.08823369E-06
  7.15050801E-03 -3.73468838E-03  1.14096041E-07 -6.32204185E-07 -9.28016121E-03
 -8.87112241E-03 -8.87190977E-03 -1.83656285E-08 -2.95992726E-07  7.87755637E-08
 -9.51935466E-06 -5.25800838E-05 -3.07557340E-06 -5.90680204E-09 -3.17879798E-08
 -2.49529288E-05  1.92348173E-04  3.70465682E-08  3.05818427E-07  3.33986488E-03
  1.89259557E-03 -1.06220642E-07  5.78322956E-07 -6.34751631E-03 -2.05887648E-03
  5.60249930E-08 -1.45922201E-06 -1.40251771E-04 -1.83892035E-04 -1.83769796E-04
 -1.60138922E-08 -8.05104604E-08 -1.51036233E-08 -1.63443401E-04  3.01008010E-03
 -9.98464428E-04  2.49581415E-05  2.64800858E-07 -9.64013333E-05 -1.64140258E-04
  3.01340004E-03 -1.00313437E-03  2.51951871E-05  8.33553163E-05  4.85628214E-05
 -1.64055537E-04  3.01247242E-03 -1.00222503E-03  2.51864430E-05 -8.36485203E-05
  4.82755402E-05 -1.94406341E-05 -3.31578903E-05  3.90688489E-05 -1.13764964E-08
 -3.88529017E-07 -3.61960994E-04 -6.96805702E-04  5.79009165E-08  7.41109941E-07
  2.21191788E-03  9.76414815E-05  1.83531225E-07  3.64551534E-06 -6.74766280E-05
 -2.87259515E-05 -2.87978917E-05 -8.33895189E-11 -1.69405340E-07  2.44587161E-09
 -2.63209000E-05 -9.25403184E-05 -1.45746316E-05 -2.03699871E-09  1.08589759E-07
  1.02853750E-03 -3.00436386E-04  3.50844754E-08 -1.12385693E-06 -1.06739756E-03
  8.34033763E-06 -1.70285401E-07 -1.32163137E-06 -1.91790860E-05 -6.62917892E-05
 -6.62856040E-05  5.37540905E-10  1.88960607E-07 -4.51926058E-11 -1.30148025E-05
 -6.18266440E-05 -6.85188132E-05  2.43241249E-10 -5.14691826E-09  5.00562367E-04
  3.55299561E-04  5.93708593E-08  7.81994221E-07 -4.85512549E-04  1.58197142E-03
 -5.48584155E-08  5.41400991E-07 -4.34912733E-05 -2.46593070E-05 -2.47510403E-05
  4.54991086E-10 -1.01587700E-08  3.83800186E-09  1.28444560E-07  6.01255479E-06
  3.06685532E-06  1.13111243E-09  1.01361506E-08  1.37222414E-05 -2.18081285E-05
 -6.84648299E-09 -5.96725085E-08 -1.55955210E-04  1.70122140E-04  2.07203098E-08
  1.79203215E-07  2.37763765E-03  5.83738482E-04  5.14859410E-09  3.34160021E-07
  3.00341128E-05  1.56433448E-06  1.54243400E-06  2.82654749E-09  2.91828426E-08
  2.13981021E-09 -1.85465847E-05 -4.54463736E-04 -3.28894325E-04 -3.50772925E-05
  4.30377707E-08 -2.03354007E-05 -1.82396643E-05 -4.55890319E-04 -3.25368430E-04
 -3.53102128E-05  1.77732681E-05  1.02803378E-05 -1.82711225E-05 -4.55745245E-04
 -3.25579665E-04 -3.52913685E-05 -1.78147533E-05  1.01922783E-05  9.92846818E-01
  4.92504829E-02  1.87601530E-03 -1.09531035E-07  2.93953001E-06 -1.13378657E-02
 -1.17126541E-03  8.20263856E-08 -2.42290138E-06 -4.83617927E-03 -1.63504119E-03
  4.54925813E-08 -4.29455712E-06 -8.47089846E-03 -9.68720665E-03 -9.68718563E-03
 -7.74456867E-08  2.09003573E-06 -7.64186044E-10 -4.96689743E-04  2.52113921E-06
  4.40587921E-04 -2.33269039E-08  6.30673899E-07 -5.33889913E-04  2.64867955E-04
 -2.84718373E-08  5.97698645E-07  8.87126584E-03 -2.96781970E-03  2.08691129E-07
 -3.60119714E-06 -2.71392950E-04  1.44572616E-04  1.44571907E-04  2.83498952E-08
 -7.69675875E-07  1.03400223E-11 -1.11443052E-04  1.25687230E-04  3.77854289E-04
 -6.71515053E-09  1.05828542E-07  3.03414635E-03 -1.64120041E-03 -1.64087442E-07
 -1.37585167E-07 -3.72045737E-02  3.08147198E-02  3.41953296E-07  8.73644811E-06
 -7.74355638E-04 -1.29830808E-04 -1.29696009E-04  1.47817740E-09 -4.14136654E-07
 -4.27485050E-08 -2.84605609E-01  1.02274036E+00  5.03243664E-03 -1.67669246E-07
  2.78438238E-06  7.59993817E-02  6.31193980E-04  1.36789465E-09  2.94557454E-07
 -2.63579424E-02 -1.82908756E-03  3.07603229E-08 -8.26254731E-07  5.85985923E-02
  1.64889340E-02 -9.08693550E-09  1.37204224E-05 -1.51915785E-02 -1.55855197E-02
 -1.55855553E-02  4.23831267E-09  3.62365502E-07  1.06483428E-09 -4.33699466E-05
 -6.77509333E-04  6.85542365E-04 -7.09503018E-05 -3.01244177E-08  1.48837068E-05
 -4.28554361E-05 -6.79339038E-04  6.87058655E-04 -7.18357682E-05 -1.27152587E-05
 -7.52137499E-06 -4.29347210E-05 -6.79557819E-04  6.87892538E-04 -7.16739342E-05
  1.27267309E-05 -7.44579132E-06  1.04515306E-05  4.82762286E-05  4.32703472E-05
 -9.19538345E-09  7.23794745E-07  4.94232646E-04  6.19635385E-04 -4.56194615E-09
 -1.51695551E-06 -1.37876132E-02  8.21526081E-03  4.40348849E-07 -2.31636357E-05
  7.40119464E-05 -5.93945808E-07 -5.82484114E-07 -5.88766591E-09  2.32950863E-07
 -3.05829417E-10  1.11790736E-05  5.97485584E-05 -1.71461196E-05 -1.10011500E-08
  3.96213619E-07 -8.12170371E-04  5.83404650E-04  1.86804729E-08 -9.40781704E-07
  2.32150121E-04 -2.33802677E-03 -2.57978541E-07  1.37966185E-05 -4.47631589E-05
  2.95327172E-05  2.95304331E-05  6.64269688E-09 -3.24210232E-07  3.56369233E-10
  7.78880046E-05  1.63357154E-03  4.36431777E-04  1.40047215E-08  6.04285546E-07
 -8.81885934E-04  1.36369840E-03 -4.90975721E-07 -4.04208814E-06  4.79207152E-02
 -4.74639697E-02  8.71040855E-08 -8.18980066E-06 -1.96103436E-03  2.19902026E-04
  2.20936195E-04  4.24657039E-08 -1.39970859E-06 -8.75534310E-08  1.48334245E-03
 -5.63713048E-03  9.90327117E-01 -3.18354569E-05  4.80594154E-04 -3.90350331E-04
  3.14787580E-02 -9.38243140E-07  1.56368717E-05  4.80824891E-03 -1.29230742E-02
  3.56721634E-07 -6.16034348E-06 -6.66355413E-02 -1.29340456E-02 -5.01473840E-08
 -1.66243903E-05  7.74238221E-04 -4.51222520E-04 -4.51156912E-04  1.20605775E-08
  8.61139525E-07 -4.37650388E-09 -1.41582596E-04  1.36567749E-03 -4.93280751E-03
 -3.06659615E-04  8.95457319E-08 -2.95446958E-05 -1.39806748E-04  1.37089638E-03
 -4.93417867E-03 -3.07594678E-04  2.50139247E-05  1.46312898E-05 -1.40143600E-04
  1.37033032E-03 -4.93314413E-03 -3.07374717E-04 -2.50629849E-05  1.45327630E-05
 -2.16120243E-05 -1.43553918E-04 -8.88171941E-05  1.67452372E-08 -9.67436008E-07
  1.59286094E-03  8.43593354E-04 -1.12481662E-07  4.53051545E-06  3.18665938E-02
 -1.44117758E-02 -8.84099351E-07  4.28316309E-05  9.76306629E-05 -3.42274327E-05
 -3.42329942E-05 -9.43263896E-09  5.32909324E-08  4.41516505E-10 -2.65180840E-05
 -8.93448028E-05  3.77347055E-05  1.51119767E-08 -6.46702690E-07  8.65732503E-05
  3.47421791E-04 -9.11671895E-08  3.68976283E-06 -6.70605284E-03  5.36895449E-03
  3.83678206E-07 -2.21289485E-05 -1.20123630E-04 -3.87256046E-05 -3.87189375E-05
  9.08105706E-10  1.21853657E-07 -2.80146500E-10  1.71845439E-07  1.03376893E-06
  4.40172471E-07  1.14358637E-05 -8.16759353E-05 -6.03878172E-06 -2.36661131E-06
 -4.50516297E-05  3.22516081E-04  1.08903725E-05 -4.05977822E-05 -6.58727612E-05
  4.74210458E-04  1.74069271E-08 -8.23138249E-05  8.23583664E-05 -2.07453349E-05
  1.48092134E-04  1.26391167E-05  1.05010462E-07 -5.02654081E-07 -4.80797572E-04
 -1.37344306E-01  9.81282709E-01 -1.49657291E-07 -1.38985598E-05 -4.10090912E-03
  2.92999256E-02  3.00592581E-06  4.54442303E-06  1.61195302E-03 -1.15177608E-02
 -4.62232835E-05 -1.35279813E-05 -7.15430746E-04  5.11330239E-03 -4.30670656E-07
  4.82470254E-06 -4.80762266E-06 -4.58503373E-05  3.27578425E-04 -7.98449435E-07
  5.98713483E-05 -5.50521776E-04  4.62798967E-03  2.63996459E-04  3.63766421E-06
 -4.72833450E-05 -2.24087162E-05  2.15884285E-04 -1.76267755E-03 -1.00692186E-04
 -4.06229044E-06 -2.98914003E-05 -3.65928430E-05  3.48460858E-04 -2.86227402E-03
 -1.63673944E-04  1.58132234E-05 -3.26048708E-05 -2.74192895E-08 -4.93184760E-08
 -1.61802988E-07 -4.85300741E-06  3.47551057E-05 -8.91653777E-06 -7.18663156E-06
  1.87498249E-05 -1.34702956E-04  2.37345592E-05 -1.75227567E-05 -1.35440192E-04
  9.74766577E-04 -5.59588524E-07  3.67261298E-06 -3.47970622E-06  1.04605253E-06
 -7.55860534E-06 -5.46946628E-07 -2.31133727E-07 -9.18821645E-07  6.63861337E-08
  2.41495820E-06 -1.74923101E-05  1.10209598E-05 -5.60988521E-06 -1.49262618E-05
  1.07962276E-04  7.54098973E-07  5.81938641E-06  6.07115076E-05 -4.38632277E-04
  1.35736688E-07  7.91391132E-07 -2.02482243E-06  1.29929734E-06 -9.32576967E-06
 -2.16649666E-07  5.52800156E-08  3.48495012E-07  6.80809853E-08 -8.18440635E-05
 -1.14510631E-05 -1.97234682E-06 -2.67227510E-07  3.20173465E-04  4.49019293E-05
  3.11703460E-06 -9.04930606E-06  4.72312386E-04  6.66065200E-05  7.47599379E-09
 -1.10131557E-05  1.09951522E-05  1.48272812E-04  2.07350245E-05 -9.55034482E-05
  1.68748168E-08 -9.18197138E-08 -3.51674919E-05  9.81282841E-01  1.37344298E-01
 -4.03285905E-08 -9.02334421E-07  2.92998272E-02  4.10094912E-03  8.58393451E-07
  3.37212933E-07 -1.15169878E-02 -1.61208337E-03 -1.02536820E-05 -2.75206473E-06
  5.11203315E-03  7.15747012E-04 -8.72416999E-09  6.06045318E-07 -6.65101206E-07
  3.27681132E-04  4.58624765E-05  5.96069568E-06  8.21016423E-06 -7.53655966E-05
  6.37493474E-04  3.63317576E-05 -2.55794231E-05 -6.55802115E-06 -5.49076762E-05
  5.22255767E-04 -4.31696442E-03 -2.47426944E-04 -4.38469120E-05 -1.44503281E-05
  4.69991827E-05 -4.43225220E-04  3.67958408E-03  2.10862908E-04 -4.10496380E-05
  5.56892383E-06 -9.38465200E-09 -2.78494503E-08 -2.08980734E-08  3.46863582E-05