 Entering Gaussian System, Link 0=g16
 Initial command:
 /usr/local/g16_AVX//g16/l1.exe "/scratch/alanqf/0148-54590.ixchel.mda.cinvestav.mx/Gau-45138.inp" -scrdir="/scratch/alanqf/0148-54590.ixchel.mda.cinvestav.mx/"
 Entering Link 1 = /usr/local/g16_AVX//g16/l1.exe PID=     45142.
  
 Copyright (c) 1988-2017, Gaussian, Inc.  All Rights Reserved.
  
 This is part of the Gaussian(R) 16 program.  It is based on
 the Gaussian(R) 09 system (copyright 2009, Gaussian, Inc.),
 the Gaussian(R) 03 system (copyright 2003, Gaussian, Inc.),
 the Gaussian(R) 98 system (copyright 1998, Gaussian, Inc.),
 the Gaussian(R) 94 system (copyright 1995, Gaussian, Inc.),
 the Gaussian 92(TM) system (copyright 1992, Gaussian, Inc.),
 the Gaussian 90(TM) system (copyright 1990, Gaussian, Inc.),
 the Gaussian 88(TM) system (copyright 1988, Gaussian, Inc.),
 the Gaussian 86(TM) system (copyright 1986, Carnegie Mellon
 University), and the Gaussian 82(TM) system (copyright 1983,
 Carnegie Mellon University). Gaussian is a federally registered
 trademark of Gaussian, Inc.
  
 This software contains proprietary and confidential information,
 including trade secrets, belonging to Gaussian, Inc.
  
 This software is provided under written license and may be
 used, copied, transmitted, or stored only in accord with that
 written license.
  
 The following legend is applicable only to US Government
 contracts under FAR:
  
                    RESTRICTED RIGHTS LEGEND
  
 Use, reproduction and disclosure by the US Government is
 subject to restrictions as set forth in subparagraphs (a)
 and (c) of the Commercial Computer Software - Restricted
 Rights clause in FAR 52.227-19.
  
 Gaussian, Inc.
 340 Quinnipiac St., Bldg. 40, Wallingford CT 06492
  
  
 ---------------------------------------------------------------
 Warning -- This program may not be used in any manner that
 competes with the business of Gaussian, Inc. or will provide
 assistance to any competitor of Gaussian, Inc.  The licensee
 of this program is prohibited from giving any competitor of
 Gaussian, Inc. access to this program.  By using this program,
 the user acknowledges that Gaussian, Inc. is engaged in the
 business of creating and licensing software in the field of
 computational chemistry and represents and warrants to the
 licensee that it is not a competitor of Gaussian, Inc. and that
 it will not use this program in any manner prohibited above.
 ---------------------------------------------------------------
  

 Cite this work as:
 Gaussian 16, Revision B.01,
 M. J. Frisch, G. W. Trucks, H. B. Schlegel, G. E. Scuseria, 
 M. A. Robb, J. R. Cheeseman, G. Scalmani, V. Barone, 
 G. A. Petersson, H. Nakatsuji, X. Li, M. Caricato, A. V. Marenich, 
 J. Bloino, B. G. Janesko, R. Gomperts, B. Mennucci, H. P. Hratchian, 
 J. V. Ortiz, A. F. Izmaylov, J. L. Sonnenberg, D. Williams-Young, 
 F. Ding, F. Lipparini, F. Egidi, J. Goings, B. Peng, A. Petrone, 
 T. Henderson, D. Ranasinghe, V. G. Zakrzewski, J. Gao, N. Rega, 
 G. Zheng, W. Liang, M. Hada, M. Ehara, K. Toyota, R. Fukuda, 
 J. Hasegawa, M. Ishida, T. Nakajima, Y. Honda, O. Kitao, H. Nakai, 
 T. Vreven, K. Throssell, J. A. Montgomery, Jr., J. E. Peralta, 
 F. Ogliaro, M. J. Bearpark, J. J. Heyd, E. N. Brothers, K. N. Kudin, 
 V. N. Staroverov, T. A. Keith, R. Kobayashi, J. Normand, 
 K. Raghavachari, A. P. Rendell, J. C. Burant, S. S. Iyengar, 
 J. Tomasi, M. Cossi, J. M. Millam, M. Klene, C. Adamo, R. Cammi, 
 J. W. Ochterski, R. L. Martin, K. Morokuma, O. Farkas, 
 J. B. Foresman, and D. J. Fox, Gaussian, Inc., Wallingford CT, 2016.
 
 ******************************************
 Gaussian 16:  ES64L-G16RevB.01 20-Dec-2017
                13-Oct-2024 
 ******************************************
 %NProcShared=26
 Will use up to   26 processors via shared memory.
 %MEM=20GB
 %chk=CHKfiles/0148.chk
 ---------------------------------------------------------------------
 #p b3lyp 6-31++g(d,p) scf=verytight NoSymm freq=noraman int=ultrafine
 ---------------------------------------------------------------------
 1/10=4,30=1,38=1/1,3;
 2/12=2,15=1,17=6,18=5,40=1/2;
 3/5=1,6=6,7=1111,11=2,25=1,30=1,71=2,74=-5,75=-5,140=1/1,2,3;
 4//1;
 5/5=2,17=3,38=5,98=1/2;
 8/6=4,10=90,11=11/1;
 11/6=1,8=1,9=11,15=111,16=1,31=1/1,2,10;
 10/6=1,31=1/2;
 6/7=2,8=2,9=2,10=2,28=1/1;
 7/8=1,10=1,25=1,30=1/1,2,3,16;
 1/10=4,30=1/3;
 99//99;
 Leave Link    1 at Sun Oct 13 09:52:18 2024, MaxMem=  2684354560 cpu:               1.3 elap:               0.1
 (Enter /usr/local/g16_AVX//g16/l101.exe)
 ------------------------
 RxCoord=4.69622 DE=44.99
 ------------------------
 Symbolic Z-matrix:
 Charge = -1 Multiplicity = 1
 C                    -0.42443  0.         0.00095 
 Cl                   -2.2524   0.        -0.00015 
 H                    -0.08888   0.00235  -1.03153 
 H                    -0.0911    0.89322   0.51947 
 H                    -0.09081  -0.89563   0.51541 
 C                     2.59946   0.00004  -0.00131 
 N                     3.78034  -0.00002   0.00045 
 
 ITRead=  0  0  0  0  0  0  0
 MicOpt= -1 -1 -1 -1 -1 -1 -1
 NAtoms=      7 NQM=        7 NQMF=       0 NMMI=      0 NMMIF=      0
                NMic=       0 NMicF=      0.
                    Isotopes and Nuclear Properties:
 (Nuclear quadrupole moments (NQMom) in fm**2, nuclear magnetic moments (NMagM)
  in nuclear magnetons)

  Atom         1           2           3           4           5           6           7
 IAtWgt=          12          35           1           1           1          12          14
 AtmWgt=  12.0000000  34.9688527   1.0078250   1.0078250   1.0078250  12.0000000  14.0030740
 NucSpn=           0           3           1           1           1           0           2
 AtZEff=  -0.0000000  -0.0000000  -0.0000000  -0.0000000  -0.0000000  -0.0000000  -0.0000000
 NQMom=    0.0000000  -8.1650000   0.0000000   0.0000000   0.0000000   0.0000000   2.0440000
 NMagM=    0.0000000   0.8218740   2.7928460   2.7928460   2.7928460   0.0000000   0.4037610
 AtZNuc=   6.0000000  17.0000000   1.0000000   1.0000000   1.0000000   6.0000000   7.0000000
 Leave Link  101 at Sun Oct 13 09:52:18 2024, MaxMem=  2684354560 cpu:               2.8 elap:               0.2
 (Enter /usr/local/g16_AVX//g16/l103.exe)

 GradGradGradGradGradGradGradGradGradGradGradGradGradGradGradGradGradGrad
 Berny optimization.
 Initialization pass.
 Trust Radius=3.00D-01 FncErr=1.00D-07 GrdErr=1.00D-07 EigMax=2.50D+02 EigMin=1.00D-04
 Number of steps in this run=      2 maximum allowed number of steps=      2.
 GradGradGradGradGradGradGradGradGradGradGradGradGradGradGradGradGradGrad

 Leave Link  103 at Sun Oct 13 09:52:18 2024, MaxMem=  2684354560 cpu:               0.5 elap:               0.1
 (Enter /usr/local/g16_AVX//g16/l202.exe)
                          Input orientation:                          
 ---------------------------------------------------------------------
 Center     Atomic      Atomic             Coordinates (Angstroms)
 Number     Number       Type             X           Y           Z
 ---------------------------------------------------------------------
      1          6           0       -0.424427   -0.000001    0.000951
      2         17           0       -2.252399   -0.000004   -0.000153
      3          1           0       -0.088884    0.002348   -1.031531
      4          1           0       -0.091098    0.893223    0.519473
      5          1           0       -0.090812   -0.895626    0.515412
      6          6           0        2.599461    0.000044   -0.001309
      7          7           0        3.780335   -0.000023    0.000447
 ---------------------------------------------------------------------
                    Distance matrix (angstroms):
                    1          2          3          4          5
     1  C    0.000000
     2  Cl   1.827972   0.000000
     3  H    1.085640   2.396778   0.000000
     4  H    1.085275   2.395639   1.788652   0.000000
     5  H    1.085409   2.395914   1.788685   1.788854   0.000000
     6  C    3.023889   4.851860   2.878986   2.882376   2.882151
     7  N    4.204762   6.032734   4.004477   4.006903   4.006629
                    6          7
     6  C    0.000000
     7  N    1.180875   0.000000
 Symmetry turned off by external request.
 This structure is nearly, but not quite of a higher symmetry.
 Consider Symm=Loose if the higher symmetry is desired.
 Stoichiometry    C2H3ClN(1-)
 Framework group  C1[X(C2H3ClN)]
 Deg. of freedom    15
 Full point group                 C1      NOp   1
 Rotational constants (GHZ):         156.7247437           1.0929257           1.0929248
 Leave Link  202 at Sun Oct 13 09:52:19 2024, MaxMem=  2684354560 cpu:               0.2 elap:               0.0
 (Enter /usr/local/g16_AVX//g16/l301.exe)
 Standard basis: 6-31++G(d,p) (6D, 7F)
 Ernie: Thresh=  0.10000D-02 Tol=  0.10000D-05 Strict=F.
    98 basis functions,   176 primitive gaussians,    98 cartesian basis functions
    20 alpha electrons       20 beta electrons
       nuclear repulsion energy       108.5041877603 Hartrees.
 IExCor=  402 DFT=T Ex+Corr=B3LYP ExCW=0 ScaHFX=  0.200000
 ScaDFX=  0.800000  0.720000  1.000000  0.810000 ScalE2=  1.000000  1.000000
 IRadAn=      5 IRanWt=     -1 IRanGd=            0 ICorTp=0 IEmpDi=  4
 NAtoms=    7 NActive=    7 NUniq=    7 SFac= 1.00D+00 NAtFMM=   60 NAOKFM=F Big=F
 Integral buffers will be    131072 words long.
 Raffenetti 2 integral format.
 Two-electron integral symmetry is turned off.
 Leave Link  301 at Sun Oct 13 09:52:19 2024, MaxMem=  2684354560 cpu:               1.3 elap:               0.1
 (Enter /usr/local/g16_AVX//g16/l302.exe)
 NPDir=0 NMtPBC=     1 NCelOv=     1 NCel=       1 NClECP=     1 NCelD=      1
         NCelK=      1 NCelE2=     1 NClLst=     1 CellRange=     0.0.
 One-electron integrals computed using PRISM.
 NBasis=    98 RedAO= T EigKep=  1.56D-04  NBF=    98
 NBsUse=    98 1.00D-06 EigRej= -1.00D+00 NBFU=    98
 Precomputing XC quadrature grid using
 IXCGrd= 4 IRadAn=           5 IRanWt=          -1 IRanGd=           0 AccXCQ= 0.00D+00.
 Generated NRdTot=       0 NPtTot=           0 NUsed=           0 NTot=          32
 NSgBfM=    98    98    98    98    98 MxSgAt=     7 MxSgA2=     7.
 Leave Link  302 at Sun Oct 13 09:52:19 2024, MaxMem=  2684354560 cpu:               3.8 elap:               0.2
 (Enter /usr/local/g16_AVX//g16/l303.exe)
 DipDrv:  MaxL=1.
 Leave Link  303 at Sun Oct 13 09:52:19 2024, MaxMem=  2684354560 cpu:               0.8 elap:               0.1
 (Enter /usr/local/g16_AVX//g16/l401.exe)
 ExpMin= 3.60D-02 ExpMax= 2.52D+04 ExpMxC= 3.78D+03 IAcc=3 IRadAn=         5 AccDes= 0.00D+00
 Harris functional with IExCor=  402 and IRadAn=       5 diagonalized for initial guess.
 HarFok:  IExCor=  402 AccDes= 0.00D+00 IRadAn=         5 IDoV= 1 UseB2=F ITyADJ=14
 ICtDFT=  3500011 ScaDFX=  1.000000  1.000000  1.000000  1.000000
 FoFCou: FMM=F IPFlag=           0 FMFlag=      100000 FMFlg1=           0
         NFxFlg=           0 DoJE=T BraDBF=F KetDBF=T FulRan=T
         wScrn=  0.000000 ICntrl=       500 IOpCl=  0 I1Cent=   200000004 NGrid=           0
         NMat0=    1 NMatS0=      1 NMatT0=    0 NMatD0=    1 NMtDS0=    0 NMtDT0=    0
 Symmetry not used in FoFCou.
 Harris En= -593.079589521618    
 JPrj=0 DoOrth=F DoCkMO=F.
 Leave Link  401 at Sun Oct 13 09:52:19 2024, MaxMem=  2684354560 cpu:               5.7 elap:               0.3
 (Enter /usr/local/g16_AVX//g16/l502.exe)
 Keep R1 ints in memory in canonical form, NReq=35752935.
 FoFCou: FMM=F IPFlag=           0 FMFlag=           0 FMFlg1=           0
         NFxFlg=           0 DoJE=F BraDBF=F KetDBF=F FulRan=T
         wScrn=  0.000000 ICntrl=       600 IOpCl=  0 I1Cent=           0 NGrid=           0
         NMat0=    1 NMatS0=   4851 NMatT0=    0 NMatD0=    1 NMtDS0=    0 NMtDT0=    0
 Symmetry not used in FoFCou.
 Two-electron integral symmetry not used.
 Closed shell SCF:
 Using DIIS extrapolation, IDIIS=  1040.
 NGot=  2684354560 LenX=  2672563405 LenY=  2672553360
 Requested convergence on RMS density matrix=1.00D-08 within 128 cycles.
 Requested convergence on MAX density matrix=1.00D-06.
 Requested convergence on             energy=1.00D-06.
 No special actions if energy rises.

 Cycle   1  Pass 1  IDiag  1:
 E= -592.843210334742    
 DIIS: error= 3.50D-02 at cycle   1 NSaved=   1.
 NSaved= 1 IEnMin= 1 EnMin= -592.843210334742     IErMin= 1 ErrMin= 3.50D-02
 ErrMax= 3.50D-02  0.00D+00 EMaxC= 1.00D-01 BMatC= 1.31D-01 BMatP= 1.31D-01
 IDIUse=3 WtCom= 6.50D-01 WtEn= 3.50D-01
 Coeff-Com:  0.100D+01
 Coeff-En:   0.100D+01
 Coeff:      0.100D+01
 Gap=     0.634 Goal=   None    Shift=    0.000
 GapD=    0.634 DampG=2.000 DampE=0.500 DampFc=1.0000 IDamp=-1.
 RMSDP=6.62D-02 MaxDP=2.34D+00              OVMax= 3.80D-01

 Cycle   2  Pass 1  IDiag  1:
 E= -592.639068701453     Delta-E=        0.204141633289 Rises=F Damp=F
 DIIS: error= 5.08D-02 at cycle   2 NSaved=   2.
 NSaved= 2 IEnMin= 1 EnMin= -592.843210334742     IErMin= 1 ErrMin= 3.50D-02
 ErrMax= 5.08D-02  0.00D+00 EMaxC= 1.00D-01 BMatC= 3.01D-01 BMatP= 1.31D-01
 IDIUse=2 WtCom= 0.00D+00 WtEn= 1.00D+00
 Coeff-En:   0.687D+00 0.313D+00
 Coeff:      0.687D+00 0.313D+00
 Gap=     0.151 Goal=   None    Shift=    0.000
 RMSDP=6.48D-02 MaxDP=2.34D+00 DE= 2.04D-01 OVMax= 2.40D-01

 Cycle   3  Pass 1  IDiag  1:
 E= -592.983504752814     Delta-E=       -0.344436051361 Rises=F Damp=F
 DIIS: error= 8.02D-03 at cycle   3 NSaved=   3.
 NSaved= 3 IEnMin= 3 EnMin= -592.983504752814     IErMin= 3 ErrMin= 8.02D-03
 ErrMax= 8.02D-03  0.00D+00 EMaxC= 1.00D-01 BMatC= 1.07D-02 BMatP= 1.31D-01
 IDIUse=3 WtCom= 9.20D-01 WtEn= 8.02D-02
 Coeff-Com:  0.276D+00 0.112D+00 0.612D+00
 Coeff-En:   0.000D+00 0.000D+00 0.100D+01
 Coeff:      0.254D+00 0.103D+00 0.643D+00
 Gap=     0.182 Goal=   None    Shift=    0.000
 RMSDP=2.40D-03 MaxDP=3.97D-02 DE=-3.44D-01 OVMax= 5.11D-02

 Cycle   4  Pass 1  IDiag  1:
 E= -592.988547449365     Delta-E=       -0.005042696552 Rises=F Damp=F
 DIIS: error= 1.23D-02 at cycle   4 NSaved=   4.
 NSaved= 4 IEnMin= 4 EnMin= -592.988547449365     IErMin= 3 ErrMin= 8.02D-03
 ErrMax= 1.23D-02  0.00D+00 EMaxC= 1.00D-01 BMatC= 7.01D-03 BMatP= 1.07D-02
 IDIUse=3 WtCom= 8.77D-01 WtEn= 1.23D-01
 Coeff-Com:  0.507D-01-0.226D-01 0.484D+00 0.488D+00
 Coeff-En:   0.000D+00 0.000D+00 0.376D+00 0.624D+00
 Coeff:      0.445D-01-0.198D-01 0.470D+00 0.505D+00
 Gap=     0.172 Goal=   None    Shift=    0.000
 RMSDP=8.88D-04 MaxDP=1.49D-02 DE=-5.04D-03 OVMax= 2.94D-02

 Cycle   5  Pass 1  IDiag  1:
 E= -592.994881569793     Delta-E=       -0.006334120427 Rises=F Damp=F
 DIIS: error= 2.45D-03 at cycle   5 NSaved=   5.
 NSaved= 5 IEnMin= 5 EnMin= -592.994881569793     IErMin= 5 ErrMin= 2.45D-03
 ErrMax= 2.45D-03  0.00D+00 EMaxC= 1.00D-01 BMatC= 2.58D-04 BMatP= 7.01D-03
 IDIUse=3 WtCom= 9.75D-01 WtEn= 2.45D-02
 Coeff-Com:  0.160D-01-0.108D-01 0.215D+00 0.273D+00 0.507D+00
 Coeff-En:   0.000D+00 0.000D+00 0.000D+00 0.000D+00 0.100D+01
 Coeff:      0.156D-01-0.106D-01 0.210D+00 0.266D+00 0.519D+00
 Gap=     0.175 Goal=   None    Shift=    0.000
 RMSDP=2.42D-04 MaxDP=3.73D-03 DE=-6.33D-03 OVMax= 6.39D-03

 Cycle   6  Pass 1  IDiag  1:
 E= -592.995110570810     Delta-E=       -0.000229001017 Rises=F Damp=F
 DIIS: error= 8.31D-04 at cycle   6 NSaved=   6.
 NSaved= 6 IEnMin= 6 EnMin= -592.995110570810     IErMin= 6 ErrMin= 8.31D-04
 ErrMax= 8.31D-04  0.00D+00 EMaxC= 1.00D-01 BMatC= 2.79D-05 BMatP= 2.58D-04
 IDIUse=3 WtCom= 9.92D-01 WtEn= 8.31D-03
 Coeff-Com:  0.291D-02-0.555D-02 0.585D-01 0.754D-01 0.271D+00 0.598D+00
 Coeff-En:   0.000D+00 0.000D+00 0.000D+00 0.000D+00 0.858D-01 0.914D+00
 Coeff:      0.289D-02-0.551D-02 0.581D-01 0.748D-01 0.269D+00 0.600D+00
 Gap=     0.174 Goal=   None    Shift=    0.000
 RMSDP=6.65D-05 MaxDP=1.13D-03 DE=-2.29D-04 OVMax= 1.60D-03

 Cycle   7  Pass 1  IDiag  1:
 E= -592.995137413597     Delta-E=       -0.000026842788 Rises=F Damp=F
 DIIS: error= 6.22D-05 at cycle   7 NSaved=   7.
 NSaved= 7 IEnMin= 7 EnMin= -592.995137413597     IErMin= 7 ErrMin= 6.22D-05
 ErrMax= 6.22D-05  0.00D+00 EMaxC= 1.00D-01 BMatC= 3.80D-07 BMatP= 2.79D-05
 IDIUse=1 WtCom= 1.00D+00 WtEn= 0.00D+00
 Coeff-Com:  0.335D-03-0.819D-03 0.279D-02 0.224D-02 0.425D-01 0.178D+00
 Coeff-Com:  0.775D+00
 Coeff:      0.335D-03-0.819D-03 0.279D-02 0.224D-02 0.425D-01 0.178D+00
 Coeff:      0.775D+00
 Gap=     0.175 Goal=   None    Shift=    0.000
 RMSDP=1.26D-05 MaxDP=2.17D-04 DE=-2.68D-05 OVMax= 2.56D-04

 Cycle   8  Pass 1  IDiag  1:
 E= -592.995137861741     Delta-E=       -0.000000448144 Rises=F Damp=F
 DIIS: error= 8.96D-06 at cycle   8 NSaved=   8.
 NSaved= 8 IEnMin= 8 EnMin= -592.995137861741     IErMin= 8 ErrMin= 8.96D-06
 ErrMax= 8.96D-06  0.00D+00 EMaxC= 1.00D-01 BMatC= 1.26D-08 BMatP= 3.80D-07
 IDIUse=1 WtCom= 1.00D+00 WtEn= 0.00D+00
 Coeff-Com:  0.850D-04-0.110D-03 0.204D-04 0.167D-03 0.853D-02 0.396D-01
 Coeff-Com:  0.225D+00 0.727D+00
 Coeff:      0.850D-04-0.110D-03 0.204D-04 0.167D-03 0.853D-02 0.396D-01
 Coeff:      0.225D+00 0.727D+00
 Gap=     0.175 Goal=   None    Shift=    0.000
 RMSDP=2.16D-06 MaxDP=5.42D-05 DE=-4.48D-07 OVMax= 4.57D-05

 Cycle   9  Pass 1  IDiag  1:
 E= -592.995137875194     Delta-E=       -0.000000013453 Rises=F Damp=F
 DIIS: error= 2.81D-06 at cycle   9 NSaved=   9.
 NSaved= 9 IEnMin= 9 EnMin= -592.995137875194     IErMin= 9 ErrMin= 2.81D-06
 ErrMax= 2.81D-06  0.00D+00 EMaxC= 1.00D-01 BMatC= 1.30D-09 BMatP= 1.26D-08
 IDIUse=1 WtCom= 1.00D+00 WtEn= 0.00D+00
 Coeff-Com: -0.618D-05 0.586D-05-0.141D-03 0.910D-04 0.131D-02 0.536D-02
 Coeff-Com:  0.414D-01 0.286D+00 0.666D+00
 Coeff:     -0.618D-05 0.586D-05-0.141D-03 0.910D-04 0.131D-02 0.536D-02
 Coeff:      0.414D-01 0.286D+00 0.666D+00
 Gap=     0.175 Goal=   None    Shift=    0.000
 RMSDP=6.20D-07 MaxDP=1.87D-05 DE=-1.35D-08 OVMax= 1.09D-05

 Cycle  10  Pass 1  IDiag  1:
 E= -592.995137876608     Delta-E=       -0.000000001414 Rises=F Damp=F
 DIIS: error= 4.66D-07 at cycle  10 NSaved=  10.
 NSaved=10 IEnMin=10 EnMin= -592.995137876608     IErMin=10 ErrMin= 4.66D-07
 ErrMax= 4.66D-07  0.00D+00 EMaxC= 1.00D-01 BMatC= 2.61D-11 BMatP= 1.30D-09
 IDIUse=1 WtCom= 1.00D+00 WtEn= 0.00D+00
 Coeff-Com: -0.700D-05 0.616D-05-0.115D-04 0.448D-04 0.279D-04-0.480D-03
 Coeff-Com: -0.125D-02 0.264D-01 0.156D+00 0.819D+00
 Coeff:     -0.700D-05 0.616D-05-0.115D-04 0.448D-04 0.279D-04-0.480D-03
 Coeff:     -0.125D-02 0.264D-01 0.156D+00 0.819D+00
 Gap=     0.175 Goal=   None    Shift=    0.000
 RMSDP=1.46D-07 MaxDP=3.21D-06 DE=-1.41D-09 OVMax= 1.81D-06

 Cycle  11  Pass 1  IDiag  1:
 E= -592.995137876639     Delta-E=       -0.000000000031 Rises=F Damp=F
 DIIS: error= 4.40D-08 at cycle  11 NSaved=  11.
 NSaved=11 IEnMin=11 EnMin= -592.995137876639     IErMin=11 ErrMin= 4.40D-08
 ErrMax= 4.40D-08  0.00D+00 EMaxC= 1.00D-01 BMatC= 2.12D-13 BMatP= 2.61D-11
 IDIUse=1 WtCom= 1.00D+00 WtEn= 0.00D+00
 Coeff-Com: -0.102D-05 0.583D-06-0.707D-05-0.954D-05-0.456D-04-0.140D-03
 Coeff-Com: -0.244D-03-0.217D-02 0.486D-02 0.650D-01 0.933D+00
 Coeff:     -0.102D-05 0.583D-06-0.707D-05-0.954D-05-0.456D-04-0.140D-03
 Coeff:     -0.244D-03-0.217D-02 0.486D-02 0.650D-01 0.933D+00
 Gap=     0.175 Goal=   None    Shift=    0.000
 RMSDP=2.77D-08 MaxDP=5.24D-07 DE=-3.13D-11 OVMax= 3.29D-07

 Cycle  12  Pass 1  IDiag  1:
 E= -592.995137876640     Delta-E=       -0.000000000000 Rises=F Damp=F
 DIIS: error= 6.01D-09 at cycle  12 NSaved=  12.
 NSaved=12 IEnMin=12 EnMin= -592.995137876640     IErMin=12 ErrMin= 6.01D-09
 ErrMax= 6.01D-09  0.00D+00 EMaxC= 1.00D-01 BMatC= 3.25D-15 BMatP= 2.12D-13
 IDIUse=1 WtCom= 1.00D+00 WtEn= 0.00D+00
 Coeff-Com: -0.551D-07 0.146D-07-0.879D-06-0.200D-05-0.834D-05-0.180D-04
 Coeff-Com: -0.389D-04-0.818D-03-0.207D-02-0.164D-02 0.114D+00 0.891D+00
 Coeff:     -0.551D-07 0.146D-07-0.879D-06-0.200D-05-0.834D-05-0.180D-04
 Coeff:     -0.389D-04-0.818D-03-0.207D-02-0.164D-02 0.114D+00 0.891D+00
 Gap=     0.175 Goal=   None    Shift=    0.000
 RMSDP=1.74D-09 MaxDP=3.04D-08 DE=-3.41D-13 OVMax= 3.68D-08

 SCF Done:  E(RB3LYP) =  -592.995137877     A.U. after   12 cycles
            NFock= 12  Conv=0.17D-08     -V/T= 2.0046
 KE= 5.902866597043D+02 PE=-1.626500720787D+03 EE= 3.347147354456D+02
 Leave Link  502 at Sun Oct 13 09:52:21 2024, MaxMem=  2684354560 cpu:              34.0 elap:               1.6
 (Enter /usr/local/g16_AVX//g16/l801.exe)
 DoSCS=F DFT=T ScalE2(SS,OS)=  1.000000  1.000000
 Range of M.O.s used for correlation:     1    98
 NBasis=    98 NAE=    20 NBE=    20 NFC=     0 NFV=     0
 NROrb=     98 NOA=    20 NOB=    20 NVA=    78 NVB=    78

 **** Warning!!: The largest alpha MO coefficient is  0.29357113D+02

 Leave Link  801 at Sun Oct 13 09:52:21 2024, MaxMem=  2684354560 cpu:               0.7 elap:               0.1
 (Enter /usr/local/g16_AVX//g16/l1101.exe)
 Using compressed storage, NAtomX=     7.
 Will process      8 centers per pass.
 Leave Link 1101 at Sun Oct 13 09:52:21 2024, MaxMem=  2684354560 cpu:               3.3 elap:               0.2
 (Enter /usr/local/g16_AVX//g16/l1102.exe)
 Symmetrizing basis deriv contribution to polar:
 IMax=3 JMax=2 DiffMx= 0.00D+00
 Leave Link 1102 at Sun Oct 13 09:52:21 2024, MaxMem=  2684354560 cpu:               0.7 elap:               0.1
 (Enter /usr/local/g16_AVX//g16/l1110.exe)
 Forming Gx(P) for the SCF density, NAtomX=     7.
 Integral derivatives from FoFJK, PRISM(SPDF).
 Do as many integral derivatives as possible in FoFJK.
 G2DrvN: MDV=    2684353864.
 G2DrvN: will do     8 centers at a time, making    1 passes.
 Calling FoFCou, ICntrl=  3107 FMM=F I1Cent=   0 AccDes= 0.00D+00.
 FoFJK:  IHMeth= 1 ICntrl=    3107 DoSepK=F KAlg= 0 I1Cent=           0 FoldK=F
 IRaf=         0 NMat=       1 IRICut=       1 DoRegI=T DoRafI=F ISym2E= 0 IDoP0=0 IntGTp=1.
 FoFCou: FMM=F IPFlag=           0 FMFlag=      100000 FMFlg1=           0
         NFxFlg=           0 DoJE=F BraDBF=F KetDBF=F FulRan=T
         wScrn=  0.000000 ICntrl=      3107 IOpCl=  0 I1Cent=           0 NGrid=           0
         NMat0=    1 NMatS0=      1 NMatT0=    0 NMatD0=    1 NMtDS0=    0 NMtDT0=    0
 Symmetry not used in FoFCou.
 End of G2Drv F.D. properties file   721 does not exist.
 End of G2Drv F.D. properties file   722 does not exist.
 End of G2Drv F.D. properties file   788 does not exist.
 Leave Link 1110 at Sun Oct 13 09:52:23 2024, MaxMem=  2684354560 cpu:              36.9 elap:               1.5
 (Enter /usr/local/g16_AVX//g16/l1002.exe)
 Minotr:  Closed shell wavefunction.
          IDoAtm=1111111
          Direct CPHF calculation.
          Differentiating once with respect to electric field.
                with respect to dipole field.
          Differentiating once with respect to nuclear coordinates.
          Requested convergence is 1.0D-08 RMS, and 1.0D-07 maximum.
          Secondary convergence is 1.0D-12 RMS, and 1.0D-12 maximum.
          NewPWx=T KeepS1=F KeepF1=F KeepIn=T MapXYZ=F SortEE=F KeepMc=T.
         2136 words used for storage of precomputed grid.
 Keep R1 ints in memory in canonical form, NReq=35668397.
 FoFCou: FMM=F IPFlag=           0 FMFlag=           0 FMFlg1=           0
         NFxFlg=           0 DoJE=F BraDBF=F KetDBF=F FulRan=T
         wScrn=  0.000000 ICntrl=       600 IOpCl=  0 I1Cent=           0 NGrid=           0
         NMat0=    1 NMatS0=   4851 NMatT0=    0 NMatD0=    1 NMtDS0=    0 NMtDT0=    0
 Symmetry not used in FoFCou.
 Two-electron integral symmetry not used.
          MDV=    2684354560 using IRadAn=       1.
          Solving linear equations simultaneously, MaxMat=       0.
          There are    24 degrees of freedom in the 1st order CPHF.  IDoFFX=6 NUNeed=     3.
     21 vectors produced by pass  0 Test12= 6.50D-15 4.17D-09 XBig12= 7.87D+01 4.27D+00.
 AX will form    21 AO Fock derivatives at one time.
     21 vectors produced by pass  1 Test12= 6.50D-15 4.17D-09 XBig12= 4.76D+01 2.27D+00.
     21 vectors produced by pass  2 Test12= 6.50D-15 4.17D-09 XBig12= 1.50D+00 3.32D-01.
     21 vectors produced by pass  3 Test12= 6.50D-15 4.17D-09 XBig12= 3.54D-02 6.04D-02.
     21 vectors produced by pass  4 Test12= 6.50D-15 4.17D-09 XBig12= 8.65D-05 2.46D-03.
     16 vectors produced by pass  5 Test12= 6.50D-15 4.17D-09 XBig12= 1.68D-07 9.11D-05.
      6 vectors produced by pass  6 Test12= 6.50D-15 4.17D-09 XBig12= 1.79D-10 3.35D-06.
      1 vectors produced by pass  7 Test12= 6.50D-15 4.17D-09 XBig12= 2.24D-13 1.41D-07.
      1 vectors produced by pass  8 Test12= 6.50D-15 4.17D-09 XBig12= 3.56D-16 5.01D-09.
 InvSVY:  IOpt=1 It=  1 EMax= 7.11D-15
 Solved reduced A of dimension   129 with    24 vectors.
 FullF1:  Do perturbations      1 to       3.
 Isotropic polarizability for W=    0.000000       55.75 Bohr**3.
 End of Minotr F.D. properties file   721 does not exist.
 End of Minotr F.D. properties file   722 does not exist.
 End of Minotr F.D. properties file   788 does not exist.
 Leave Link 1002 at Sun Oct 13 09:52:25 2024, MaxMem=  2684354560 cpu:              50.4 elap:               2.0
 (Enter /usr/local/g16_AVX//g16/l601.exe)
 Copying SCF densities to generalized density rwf, IOpCl= 0 IROHF=0.

 **********************************************************************

            Population analysis using the SCF Density.

 **********************************************************************

 Alpha  occ. eigenvalues -- -101.41667 -14.09332 -10.10603  -9.95940  -9.33281
 Alpha  occ. eigenvalues --   -7.09594  -7.08740  -7.08740  -0.72215  -0.64607
 Alpha  occ. eigenvalues --   -0.54439  -0.31252  -0.31238  -0.28235  -0.18164
 Alpha  occ. eigenvalues --   -0.18048  -0.18046  -0.09524  -0.09524  -0.06790
 Alpha virt. eigenvalues --    0.10672   0.12349   0.14297   0.14300   0.17317
 Alpha virt. eigenvalues --    0.19910   0.20073   0.20073   0.21922   0.21932
 Alpha virt. eigenvalues --    0.23760   0.24727   0.24733   0.26842   0.27723
 Alpha virt. eigenvalues --    0.27729   0.31182   0.32928   0.32931   0.35843
 Alpha virt. eigenvalues --    0.38500   0.38508   0.38969   0.46198   0.47611
 Alpha virt. eigenvalues --    0.63553   0.72307   0.74028   0.74028   0.76854
 Alpha virt. eigenvalues --    0.76857   0.86838   0.89703   0.89705   0.96615
 Alpha virt. eigenvalues --    0.98859   0.98863   1.03946   1.03952   1.07622
 Alpha virt. eigenvalues --    1.08936   1.08945   1.12217   1.18859   1.18864
 Alpha virt. eigenvalues --    1.19604   1.26445   1.37436   1.45407   1.59556
 Alpha virt. eigenvalues --    1.59563   1.71311   1.78365   1.78365   1.80523
 Alpha virt. eigenvalues --    1.80524   2.15208   2.20288   2.20289   2.21057
 Alpha virt. eigenvalues --    2.21072   2.29041   2.48121   2.48150   2.68112
 Alpha virt. eigenvalues --    2.80122   2.83600   2.83602   2.94684   2.94694
 Alpha virt. eigenvalues --    3.25198   3.37488   3.54947   3.54967   4.20357
 Alpha virt. eigenvalues --    4.40516   4.45067   4.56599
          Condensed to atoms (all electrons):
               1          2          3          4          5          6
     1  C    5.302643   0.014904   0.406467   0.406463   0.406472  -0.093595
     2  Cl   0.014904  17.279589  -0.046408  -0.046859  -0.046846   0.038675
     3  H    0.406467  -0.046408   0.505543  -0.022593  -0.022606  -0.036687
     4  H    0.406463  -0.046859  -0.022593   0.505889  -0.022572  -0.036074
     5  H    0.406472  -0.046846  -0.022606  -0.022572   0.505876  -0.036086
     6  C   -0.093595   0.038675  -0.036687  -0.036074  -0.036086   6.029381
     7  N   -0.001808  -0.001191   0.001009   0.000975   0.000975   0.654608
               7
     1  C   -0.001808
     2  Cl  -0.001191
     3  H    0.001009
     4  H    0.000975
     5  H    0.000975
     6  C    0.654608
     7  N    6.836638
 Mulliken charges:
               1
     1  C   -0.441545
     2  Cl  -0.191863
     3  H    0.215276
     4  H    0.214771
     5  H    0.214787
     6  C   -0.520221
     7  N   -0.491206
 Sum of Mulliken charges =  -1.00000
 Mulliken charges with hydrogens summed into heavy atoms:
               1
     1  C    0.203290
     2  Cl  -0.191863
     6  C   -0.520221
     7  N   -0.491206
 APT charges:
               1
     1  C    0.546314
     2  Cl  -0.592778
     3  H    0.018391
     4  H    0.017973
     5  H    0.018008
     6  C   -0.394051
     7  N   -0.613857
 Sum of APT charges =  -1.00000
 APT charges with hydrogens summed into heavy atoms:
               1
     1  C    0.600686
     2  Cl  -0.592778
     6  C   -0.394051
     7  N   -0.613857
 Electronic spatial extent (au):  <R**2>=            948.0811
 Charge=             -1.0000 electrons
 Dipole moment (field-independent basis, Debye):
    X=            -10.8865    Y=             -0.0000    Z=              0.0033  Tot=             10.8865
 Quadrupole moment (field-independent basis, Debye-Ang):
   XX=            -94.0895   YY=            -35.4717   ZZ=            -35.4723
   XY=             -0.0003   XZ=             -0.0012   YZ=              0.0001
 Traceless Quadrupole moment (field-independent basis, Debye-Ang):
   XX=            -39.0784   YY=             19.5395   ZZ=             19.5389
   XY=             -0.0003   XZ=             -0.0012   YZ=              0.0001
 Octapole moment (field-independent basis, Debye-Ang**2):
  XXX=           -209.7029  YYY=             -0.0061  ZZZ=             -0.8710  XYY=            -12.9327
  XXY=              0.0013  XXZ=             -0.0133  XZZ=            -12.9296  YZZ=              0.0060
  YYZ=              0.8842  XYZ=             -0.0002
 Hexadecapole moment (field-independent basis, Debye-Ang**3):
 XXXX=          -2121.4190 YYYY=            -56.2672 ZZZZ=            -56.2709 XXXY=              0.0030
 XXXZ=             -0.0457 YYYX=             -0.0011 YYYZ=              0.0002 ZZZX=              0.0507
 ZZZY=              0.0004 XXYY=           -245.7053 XXZZ=           -245.7044 YYZZ=            -18.7542
 XXYZ=              0.0000 YYXZ=              0.0005 ZZXY=             -0.0005
 N-N= 1.085041877603D+02 E-N=-1.626500720637D+03  KE= 5.902866597043D+02
  Exact polarizability:  86.601  -0.002  40.325   0.015  -0.000  40.324
 Approx polarizability: 106.835  -0.003  49.963   0.035  -0.001  49.962
 No NMR shielding tensors so no spin-rotation constants.
 Leave Link  601 at Sun Oct 13 09:52:25 2024, MaxMem=  2684354560 cpu:               2.7 elap:               0.1
 (Enter /usr/local/g16_AVX//g16/l701.exe)
 ... and contract with generalized density number  0.
 Compute integral second derivatives.
 Leave Link  701 at Sun Oct 13 09:52:25 2024, MaxMem=  2684354560 cpu:               4.5 elap:               0.2
 (Enter /usr/local/g16_AVX//g16/l702.exe)
 L702 exits ... SP integral derivatives will be done elsewhere.
 Leave Link  702 at Sun Oct 13 09:52:25 2024, MaxMem=  2684354560 cpu:               0.5 elap:               0.0
 (Enter /usr/local/g16_AVX//g16/l703.exe)
 Integral derivatives from FoFJK, PRISM(SPDF).
 Compute integral second derivatives, UseDBF=F ICtDFT=           0.
 Calling FoFJK, ICntrl=    100127 FMM=F ISym2X=0 I1Cent= 0 IOpClX= 0 NMat=1 NMatS=1 NMatT=0.
 FoFJK:  IHMeth= 1 ICntrl=  100127 DoSepK=F KAlg= 0 I1Cent=           0 FoldK=F
 IRaf=         0 NMat=       1 IRICut=       1 DoRegI=T DoRafI=F ISym2E= 0 IDoP0=0 IntGTp=1.
 FoFCou: FMM=F IPFlag=           0 FMFlag=      100000 FMFlg1=         800
         NFxFlg=           0 DoJE=F BraDBF=F KetDBF=F FulRan=T
         wScrn=  0.000000 ICntrl=    100127 IOpCl=  0 I1Cent=           0 NGrid=           0
         NMat0=    1 NMatS0=      1 NMatT0=    0 NMatD0=    1 NMtDS0=    0 NMtDT0=    0
 Symmetry not used in FoFCou.
 Leave Link  703 at Sun Oct 13 09:52:28 2024, MaxMem=  2684354560 cpu:              64.7 elap:               2.5
 (Enter /usr/local/g16_AVX//g16/l716.exe)
 Dipole        =-4.28307958D+00-1.92093646D-05 1.28393569D-03
 Polarizability= 8.66009594D+01-1.86742020D-03 4.03251515D+01
                 1.51016233D-02-3.48376883D-04 4.03243845D+01
 Full mass-weighted force constant matrix:
 Low frequencies ---  -56.6348  -56.4655  -30.5765  -30.5149   -0.0037   -0.0028
 Low frequencies ---    0.0029   76.4561   76.5349
 ******    2 imaginary frequencies (negative Signs) ****** 
 Diagonal vibrational polarizability:
      111.4960577      61.7406265      61.6762920
 Harmonic frequencies (cm**-1), IR intensities (KM/Mole), Raman scattering
 activities (A**4/AMU), depolarization ratios for plane and unpolarized
 incident light, reduced masses (AMU), force constants (mDyne/A),
 and normal coordinates:
                      1                      2                      3
                      A                      A                      A
 Frequencies --    -55.2029               -55.0796                74.0819
 Red. masses --      7.2861                 7.3172                 4.0663
 Frc consts  --      0.0131                 0.0131                 0.0131
 IR Inten    --      0.3545                 0.3433                11.9479
  Atom  AN      X      Y      Z        X      Y      Z        X      Y      Z
     1   6    -0.00   0.29   0.07    -0.00  -0.07   0.29    -0.00   0.29   0.23
     2  17    -0.00  -0.12  -0.03    -0.00   0.03  -0.12    -0.00  -0.07  -0.06
     3   1     0.06   0.36   0.09     0.22  -0.09   0.36     0.17   0.35   0.29
     4   1    -0.22   0.36   0.09    -0.06  -0.09   0.36    -0.27   0.37   0.29
     5   1     0.17   0.36   0.09    -0.16  -0.09   0.36     0.10   0.35   0.27
     6   6    -0.00   0.45   0.11    -0.00  -0.12   0.45     0.00  -0.25  -0.20
     7   7     0.00  -0.42  -0.11     0.00   0.11  -0.42     0.00   0.07   0.05
                      4                      5                      6
                      A                      A                      A
 Frequencies --     74.1935               114.6455               630.1728
 Red. masses --      4.0607                11.7380                 8.8016
 Frc consts  --      0.0132                 0.0909                 2.0593
 IR Inten    --     11.9550                47.7621               196.5516
  Atom  AN      X      Y      Z        X      Y      Z        X      Y      Z
     1   6    -0.00  -0.23   0.29    -0.30  -0.00  -0.00     0.69  -0.00   0.00
     2  17    -0.00   0.06  -0.07    -0.28   0.00   0.00    -0.28   0.00  -0.00
     3   1     0.21  -0.28   0.37    -0.28  -0.00  -0.00     0.38   0.00  -0.09
     4   1     0.04  -0.28   0.34    -0.28  -0.00  -0.00     0.38   0.08   0.05
     5   1    -0.26  -0.30   0.36    -0.28   0.00  -0.00     0.38  -0.08   0.04
     6   6     0.00   0.20  -0.25     0.54   0.00   0.00     0.01   0.00  -0.00
     7   7     0.00  -0.05   0.07     0.55  -0.00   0.00     0.01   0.00   0.00
                      7                      8                      9
                      A                      A                      A
 Frequencies --   1006.7200              1006.9037              1329.2280
 Red. masses --      1.1562                 1.1561                 1.1026
 Frc consts  --      0.6904                 0.6906                 1.1478
 IR Inten    --      0.3116                 0.3087                15.5807
  Atom  AN      X      Y      Z        X      Y      Z        X      Y      Z
     1   6    -0.00  -0.03  -0.11    -0.00  -0.11   0.03    -0.09  -0.00  -0.00
     2  17     0.00   0.01   0.02     0.00   0.02  -0.01    -0.02   0.00  -0.00
     3   1     0.74   0.06   0.13    -0.21   0.22  -0.04     0.55  -0.00   0.18
     4   1    -0.55  -0.00   0.19    -0.54   0.16  -0.10     0.55  -0.16  -0.09
     5   1    -0.19   0.08   0.21     0.74   0.14  -0.01     0.55   0.16  -0.09
     6   6    -0.00   0.00   0.00     0.00   0.00  -0.00     0.00  -0.00   0.00
     7   7    -0.00  -0.00  -0.00     0.00  -0.00   0.00    -0.00  -0.00  -0.00
                     10                     11                     12
                      A                      A                      A
 Frequencies --   1463.7909              1464.2837              2145.3490
 Red. masses --      1.0604                 1.0605                12.8393
 Frc consts  --      1.3387                 1.3397                34.8168
 IR Inten    --      7.8498                 7.8726                17.9457
  Atom  AN      X      Y      Z        X      Y      Z        X      Y      Z
     1   6     0.00   0.01  -0.07     0.00  -0.07  -0.01    -0.00   0.00   0.00
     2  17    -0.00   0.00  -0.00    -0.00  -0.00  -0.00     0.00  -0.00   0.00
     3   1    -0.28  -0.10  -0.13    -0.04   0.75  -0.02    -0.01   0.00  -0.00
     4   1     0.10  -0.39   0.58     0.26   0.03  -0.31    -0.01   0.00   0.00
     5   1     0.17   0.37   0.47    -0.22   0.14   0.45    -0.01  -0.00   0.00
     6   6    -0.00   0.00  -0.00    -0.00  -0.00  -0.00     0.76  -0.00   0.00
     7   7    -0.00  -0.00   0.00     0.00   0.00   0.00    -0.65   0.00  -0.00
                     13                     14                     15
                      A                      A                      A
 Frequencies --   3124.4768              3246.2316              3248.2997
 Red. masses --      1.0252                 1.1112                 1.1112
 Frc consts  --      5.8970                 6.8991                 6.9083
 IR Inten    --     12.9526                 0.3634                 0.3666
  Atom  AN      X      Y      Z        X      Y      Z        X      Y      Z
     1   6     0.04  -0.00  -0.00    -0.00   0.02  -0.10    -0.00  -0.10  -0.02
     2  17    -0.00   0.00   0.00    -0.00  -0.00   0.00     0.00   0.00   0.00
     3   1    -0.16  -0.00   0.56    -0.23   0.00   0.76    -0.04  -0.02   0.14
     4   1    -0.16  -0.47  -0.28     0.08   0.23   0.11     0.22   0.63   0.38
     5   1    -0.16   0.48  -0.28     0.16  -0.45   0.24    -0.18   0.50  -0.30
     6   6     0.00   0.00   0.00     0.00  -0.00   0.00    -0.00   0.00   0.00
     7   7     0.00  -0.00  -0.00    -0.00   0.00  -0.00    -0.00  -0.00  -0.00

 -------------------
 - Thermochemistry -
 -------------------
 Temperature   298.150 Kelvin.  Pressure   1.00000 Atm.
 Atom     1 has atomic number  6 and mass  12.00000
 Atom     2 has atomic number 17 and mass  34.96885
 Atom     3 has atomic number  1 and mass   1.00783
 Atom     4 has atomic number  1 and mass   1.00783
 Atom     5 has atomic number  1 and mass   1.00783
 Atom     6 has atomic number  6 and mass  12.00000
 Atom     7 has atomic number  7 and mass  14.00307
 Molecular mass:    75.99540 amu.
 Principal axes and moments of inertia in atomic units:
                           1         2         3
     Eigenvalues --    11.515361651.293541651.29502
           X            1.00000  -0.00000   0.00003
           Y            0.00000   0.99657   0.08280
           Z           -0.00003  -0.08280   0.99657
 This molecule is an asymmetric top.
 Rotational symmetry number  1.
 Rotational temperatures (Kelvin)      7.52160     0.05245     0.05245
 Rotational constants (GHZ):         156.72474     1.09293     1.09292
    2 imaginary frequencies ignored.
 Zero-point vibrational energy     113216.8 (Joules/Mol)
                                   27.05947 (Kcal/Mol)
 Warning -- explicit consideration of   3 degrees of freedom as
           vibrations may cause significant error
 Vibrational temperatures:    106.59   106.75   164.95   906.68  1448.45
          (Kelvin)           1448.71  1912.46  2106.07  2106.78  3086.68
                             4495.43  4670.60  4673.58
 
 Zero-point correction=                           0.043122 (Hartree/Particle)
 Thermal correction to Energy=                    0.048470
 Thermal correction to Enthalpy=                  0.049414
 Thermal correction to Gibbs Free Energy=         0.013418
 Sum of electronic and zero-point Energies=           -592.952016
 Sum of electronic and thermal Energies=              -592.946668
 Sum of electronic and thermal Enthalpies=            -592.945724
 Sum of electronic and thermal Free Energies=         -592.981719
 
                     E (Thermal)             CV                S
                      KCal/Mol        Cal/Mol-Kelvin    Cal/Mol-Kelvin
 Total                   30.415             13.851             75.759
 Electronic               0.000              0.000              0.000
 Translational            0.889              2.981             38.900
 Rotational               0.889              2.981             24.955
 Vibrational             28.638              7.889             11.904
 Vibration     1          0.599              1.966              4.042
 Vibration     2          0.599              1.966              4.039
 Vibration     3          0.608              1.937              3.189
                       Q            Log10(Q)             Ln(Q)
 Total Bot       0.672916D-06         -6.172039        -14.211646
 Total V=0       0.459932D+14         13.662694         31.459515
 Vib (Bot)       0.407396D-18        -18.389983        -42.344500
 Vib (Bot)    1  0.278240D+01          0.444419          1.023313
 Vib (Bot)    2  0.277817D+01          0.443758          1.021792
 Vib (Bot)    3  0.178468D+01          0.251560          0.579238
 Vib (V=0)       0.278452D+02          1.444750          3.326660
 Vib (V=0)    1  0.332697D+01          0.522048          1.202061
 Vib (V=0)    2  0.332280D+01          0.521505          1.200809
 Vib (V=0)    3  0.235340D+01          0.371695          0.855859
 Electronic      0.100000D+01          0.000000          0.000000
 Translational   0.260396D+08          7.415635         17.075130
 Rotational      0.634321D+05          4.802309         11.057725
 
                                                       RxCoord=4.69622 DE=44.99
                                                             IR Spectrum
 
     33   3                                      2                         1     1           1                                       
     22   1                                      1                         4     3           0              6                   1    
     44   2                                      4                         6     2           0              3                   1 7  
     86   4                                      5                         4     9           7              0                   5 4  
 
     XX   X                                      X                         X     X           X              X                   X X  
                                                 X                         X     X                          X                   X X  
                                                                                                            X                   X    
                                                                                                            X                   X    
                                                                                                            X                   X    
                                                                                                            X                        
                                                                                                            X                        
                                                                                                            X                        
                                                                                                            X                        
                                                                                                            X                        
                                                                                                            X                        
                                                                                                            X                        
                                                                                                            X                        
                                                                                                            X                        
                                                                                                            X                        
                                                                                                            X                        
                                                                                                            X                        
                                                                                                            X                        
                                                                                                            X                        
                                                                                                            X                        
 
 -------------------------------------------------------------------
 Center     Atomic                   Forces (Hartrees/Bohr)
 Number     Number              X              Y              Z
 -------------------------------------------------------------------
      1        6           0.005042408   -0.000065587   -0.000178999
      2       17          -0.010140072   -0.000008624   -0.000038634
      3        1           0.001235264    0.000001495    0.001093941
      4        1           0.001400542   -0.000772371   -0.000424219
      5        1           0.001354652    0.000845133   -0.000456818
      6        6          -0.001029331   -0.000000019    0.000003616
      7        7           0.002136537   -0.000000026    0.000001112
 -------------------------------------------------------------------
 Cartesian Forces:  Max     0.010140072 RMS     0.002601536
 Z-matrix is all fixed cartesians, so copy forces.
 Force constants in Cartesian coordinates: 
                1             2             3             4             5 
      1  0.267227D+00
      2  0.400999D-04  0.597631D+00
      3 -0.175169D-03  0.148285D-03  0.596777D+00
      4 -0.991978D-01 -0.720546D-05 -0.693521D-04  0.182690D+00
      5 -0.172395D-05 -0.334801D-01  0.000000D+00  0.952155D-05  0.187343D-01
      6 -0.524157D-04  0.000000D+00 -0.334853D-01  0.141064D-03  0.127069D-05
      7 -0.577011D-01 -0.193526D-03  0.843301D-01 -0.246586D-01 -0.460416D-04
      8 -0.190726D-03 -0.499147D-01  0.624479D-03  0.116783D-04  0.605065D-03
      9  0.833459D-01  0.619869D-03 -0.323752D+00 -0.576706D-02 -0.175773D-04
     10 -0.573703D-01 -0.726939D-01 -0.422091D-01 -0.247191D-01 -0.174549D-01
     11 -0.718729D-01 -0.255456D+00 -0.119365D+00  0.495310D-02  0.635977D-02
     12 -0.417221D-01 -0.119371D+00 -0.119107D+00  0.285366D-02  0.331522D-02
     13 -0.574158D-01  0.728550D-01 -0.418606D-01 -0.247016D-01  0.174927D-01
     14  0.720260D-01 -0.256331D+00  0.118592D+00 -0.496694D-02  0.639189D-02
     15 -0.413734D-01  0.118603D+00 -0.117971D+00  0.282987D-02 -0.329844D-02
     16 -0.359609D-03  0.000000D+00 -0.108547D-04 -0.414065D-02  0.000000D+00
     17  0.000000D+00 -0.310547D-02  0.000000D+00  0.000000D+00  0.165212D-02
     18 -0.375836D-04  0.000000D+00 -0.312420D-02  0.250349D-04  0.000000D+00
     19  0.481738D-02  0.000000D+00 -0.501880D-05 -0.527212D-02  0.000000D+00
     20  0.000000D+00  0.655897D-03  0.000000D+00  0.000000D+00 -0.263100D-03
     21  0.147067D-04  0.000000D+00  0.660979D-03 -0.132176D-04  0.000000D+00
                6             7             8             9            10 
      6  0.187200D-01
      7  0.201151D-01  0.744453D-01
      8 -0.158622D-04  0.197734D-03  0.462012D-01
      9  0.831969D-02 -0.872710D-01 -0.661711D-03  0.336286D+00
     10 -0.101471D-01  0.458789D-02  0.756852D-02  0.430316D-02  0.741681D-01
     11  0.333536D-02  0.975501D-04  0.213473D-02  0.236450D-02  0.752511D-01
     12  0.254283D-02 -0.866254D-02 -0.251089D-01 -0.111548D-01  0.436924D-01
     13 -0.100628D-01  0.458841D-02 -0.758417D-02  0.426809D-02  0.457868D-02
     14 -0.332032D-02 -0.555265D-04  0.202509D-02 -0.229953D-02  0.745953D-02
     15  0.251065D-02 -0.866503D-02  0.251676D-01 -0.110525D-01  0.443563D-02
     16  0.431045D-05 -0.154213D-02 -0.150241D-05  0.490685D-03 -0.152033D-02
     17  0.000000D+00  0.000000D+00 -0.130449D-02 -0.690825D-05 -0.236077D-03
     18  0.165598D-02  0.276376D-03 -0.710389D-05  0.171996D-02 -0.136839D-03
     19  0.189995D-05  0.280214D-03 -0.153495D-05  0.630141D-03  0.275082D-03
     20  0.000000D+00  0.000000D+00  0.253187D-03  0.136199D-05  0.105745D-03
     21 -0.263838D-03 -0.123074D-03  0.143312D-05 -0.366631D-03  0.619496D-04
               11            12            13            14            15 
     11  0.263869D+00
     12  0.126429D+00  0.119479D+00
     13 -0.747418D-02  0.439957D-02  0.741962D-01
     14 -0.176566D-01  0.136919D-01 -0.754201D-01  0.264812D+00
     15 -0.138069D-01  0.867780D-02  0.433300D-01 -0.125626D+00  0.118282D+00
     16 -0.417392D-03 -0.245214D-03 -0.152123D-02  0.418212D-03 -0.243600D-03
     17  0.960424D-03  0.131320D-02  0.236953D-03  0.972399D-03 -0.130673D-02
     18  0.131324D-02 -0.530986D-03 -0.135679D-03 -0.130658D-02 -0.542995D-03
     19 -0.537349D-03 -0.315751D-03  0.275407D-03  0.538892D-03 -0.313470D-03
     20 -0.211391D-03 -0.269463D-03 -0.106148D-03 -0.213972D-03  0.268186D-03
     21 -0.270141D-03  0.931754D-04  0.614541D-04  0.268791D-03  0.956376D-04
               16            17            18            19            20 
     16  0.113205D+01
     17 -0.626419D-04  0.452854D-03
     18  0.167372D-02  0.000000D+00  0.450736D-03
     19 -0.112297D+01  0.633433D-04 -0.166503D-02  0.112259D+01
     20  0.634159D-04  0.372160D-03  0.000000D+00 -0.634772D-04 -0.592781D-03
     21 -0.166904D-02  0.000000D+00  0.371499D-03  0.166722D-02  0.000000D+00
               21 
     21 -0.590822D-03
 Leave Link  716 at Sun Oct 13 09:52:28 2024, MaxMem=  2684354560 cpu:               0.9 elap:               0.1
 (Enter /usr/local/g16_AVX//g16/l103.exe)

 GradGradGradGradGradGradGradGradGradGradGradGradGradGradGradGradGradGrad
 Berny optimization.
 Search for a local minimum.
 Step number   1 out of a maximum of    2
 All quantities printed in internal units (Hartrees-Bohrs-Radians)
 Second derivative matrix not updated -- analytic derivatives used.
 ITU=  0
     Eigenvalues ---   -0.00117  -0.00116   0.00111   0.00112   0.00571
     Eigenvalues ---    0.06270   0.06271   0.10965   0.10973   0.11693
     Eigenvalues ---    0.22259   0.50056   0.88236   0.88364   2.24928
 Eigenvalue     1 is  -1.17D-03 should be greater than     0.000000 Eigenvector:
                          Y7        Y6        Y3        Y5        Y4
   1                    0.56267  -0.54314  -0.22877  -0.22864  -0.22840
                          Y2        X4        Z7        Z6        Y1
   1                    0.22428   0.20979   0.17942  -0.17335  -0.16215
 Eigenvalue     2 is  -1.16D-03 should be greater than     0.000000 Eigenvector:
                          Z7        Z6        Z4        Z5        Z3
   1                    0.56320  -0.54479  -0.22802  -0.22757  -0.22735
                          Z2        X3        Y7        Y6        Z1
   1                    0.22379  -0.20323  -0.17945   0.17343  -0.16142
 Angle between quadratic step and forces=  62.20 degrees.
 Linear search not attempted -- first point.
 B after Tr=    -0.003287   -0.000042    0.000834
         Rot=    1.000000   -0.000000   -0.000028   -0.000005 Ang=  -0.00 deg.
 Variable       Old X    -DE/DX   Delta X   Delta X   Delta X     New X
                                 (Linear)    (Quad)   (Total)
    X1       -0.80205   0.00504   0.00000  -0.01374  -0.01702  -0.81907
    Y1       -0.00000  -0.00007   0.00000   0.00005  -0.00000  -0.00001
    Z1        0.00180  -0.00018   0.00000  -0.00220  -0.00132   0.00048
    X2       -4.25642  -0.01014   0.00000  -0.06286  -0.06615  -4.32257
    Y2       -0.00001  -0.00001   0.00000  -0.00007  -0.00016  -0.00016
    Z2       -0.00029  -0.00004   0.00000   0.00122   0.00229   0.00200
    X3       -0.16797   0.00124   0.00000  -0.01178  -0.01517  -0.18314
    Y3        0.00444   0.00000   0.00000   0.00008   0.00003   0.00447
    Z3       -1.94931   0.00109   0.00000   0.00006   0.00090  -1.94841
    X4       -0.17215   0.00140   0.00000  -0.00648  -0.00973  -0.18188
    Y4        1.68795  -0.00077   0.00000  -0.00265  -0.00269   1.68525
    Z4        0.98166  -0.00042   0.00000  -0.00413  -0.00329   0.97837
    X5       -0.17161   0.00135   0.00000  -0.00688  -0.01010  -0.18171
    Y5       -1.69249   0.00085   0.00000   0.00289   0.00285  -1.68964
    Z5        0.97399  -0.00046   0.00000  -0.00416  -0.00332   0.97067
    X6        4.91227  -0.00103   0.00000   0.06152   0.05824   4.97051
    Y6        0.00008  -0.00000   0.00000  -0.00007  -0.00006   0.00002
    Z6       -0.00247   0.00000   0.00000   0.00662   0.00717   0.00470
    X7        7.14380   0.00214   0.00000   0.06323   0.05994   7.20374
    Y7       -0.00004  -0.00000   0.00000   0.00002   0.00004  -0.00000
    Z7        0.00084   0.00000   0.00000  -0.00287  -0.00244  -0.00160
         Item               Value     Threshold  Converged?
 Maximum Force            0.010140     0.000450     NO 
 RMS     Force            0.002602     0.000300     NO 
 Maximum Displacement     0.066150     0.001800     NO 
 RMS     Displacement     0.024082     0.001200     NO 
 Predicted change in Energy=-3.077821D-04
 GradGradGradGradGradGradGradGradGradGradGradGradGradGradGradGradGradGrad

 Leave Link  103 at Sun Oct 13 09:52:28 2024, MaxMem=  2684354560 cpu:               0.6 elap:               0.1
 (Enter /usr/local/g16_AVX//g16/l9999.exe)

 ----------------------------------------------------------------------

 Electric dipole moment (input orientation):
 (Debye = 10**-18 statcoulomb cm , SI units = C m)
                  (au)            (Debye)         (10**-30 SI)
   Tot        0.428308D+01      0.108865D+02      0.363135D+02
   x         -0.428308D+01     -0.108865D+02     -0.363135D+02
   y         -0.192094D-04     -0.488253D-04     -0.162864D-03
   z          0.128394D-02      0.326344D-02      0.108857D-01

 Dipole polarizability, Alpha (input orientation).
 (esu units = cm**3 , SI units = C**2 m**2 J**-1)
 Alpha(0;0):
               (au)            (10**-24 esu)      (10**-40 SI)
   iso        0.557502D+02      0.826132D+01      0.919196D+01
   aniso      0.462762D+02      0.685743D+01      0.762991D+01
   xx         0.866010D+02      0.128329D+02      0.142786D+02
   yx        -0.186742D-02     -0.276723D-03     -0.307896D-03
   yy         0.403252D+02      0.597557D+01      0.664872D+01
   zx         0.151016D-01      0.223783D-02      0.248992D-02
   zy        -0.348377D-03     -0.516241D-04     -0.574396D-04
   zz         0.403244D+02      0.597546D+01      0.664859D+01

 ----------------------------------------------------------------------

 Dipole orientation:
     6          0.00155670          0.00000171          0.80205129
    17         -0.00156507          0.00001152          4.25641696
     1         -1.94936136          0.00442909          0.16738205
     1          0.98160248          1.68795201          0.17243696
     1          0.97394362         -1.69248271          0.17190936
     6         -0.00100110          0.00006111         -4.91226988
     7          0.00298620         -0.00007549         -7.14379723

 Electric dipole moment (dipole orientation):
 (Debye = 10**-18 statcoulomb cm , SI units = C m)
                  (au)            (Debye)         (10**-30 SI)
   Tot        0.428308D+01      0.108865D+02      0.363135D+02
   x          0.000000D+00      0.000000D+00      0.000000D+00
   y          0.000000D+00      0.000000D+00      0.000000D+00
   z          0.428308D+01      0.108865D+02      0.363135D+02

 Dipole polarizability, Alpha (dipole orientation).
 (esu units = cm**3 , SI units = C**2 m**2 J**-1)
 Alpha(0;0):
               (au)            (10**-24 esu)      (10**-40 SI)
   iso        0.557502D+02      0.826132D+01      0.919196D+01
   aniso      0.462762D+02      0.685743D+01      0.762991D+01
   xx         0.403244D+02      0.597546D+01      0.664860D+01
   yx        -0.349070D-03     -0.517268D-04     -0.575539D-04
   yy         0.403252D+02      0.597557D+01      0.664872D+01
   zx        -0.289739D-01     -0.429349D-02     -0.477715D-02
   zy         0.207473D-02      0.307443D-03      0.342077D-03
   zz         0.866009D+02      0.128329D+02      0.142786D+02

 ----------------------------------------------------------------------
 1\1\GINC-NODO6\Freq\RB3LYP\6-31++G(d,p)\C2H3Cl1N1(1-)\ALANQF\13-Oct-20
 24\0\\#p b3lyp 6-31++g(d,p) scf=verytight NoSymm freq=noraman int=ultr
 afine\\RxCoord=4.69622 DE=44.99\\-1,1\C,-0.424427,-0.000001,0.000951\C
 l,-2.252399,-0.000004,-0.000153\H,-0.088884,0.002348,-1.031531\H,-0.09
 1098,0.893223,0.519473\H,-0.090812,-0.895626,0.515412\C,2.599461,0.000
 044,-0.001309\N,3.780335,-0.000023,0.000447\\Version=ES64L-G16RevB.01\
 HF=-592.9951379\RMSD=1.736e-09\RMSF=2.602e-03\ZeroPoint=0.043122\Therm
 al=0.0484697\Dipole=-4.2370007,-0.0000205,0.001368\DipoleDeriv=1.50728
 52,-0.0000451,0.000191,0.0000074,0.0659226,-0.0000365,0.0008371,-0.000
 0366,0.0657349,-1.2296063,-0.0000014,-0.0001228,0.0000288,-0.2743779,-
 0.0000035,-0.0002723,-0.0000035,-0.2743503,-0.0216069,-0.0000089,0.004
 26,-0.0000719,0.0848598,0.0002274,0.0275233,0.000221,-0.00808,-0.02253
 83,-0.0036487,-0.0022481,-0.0240536,0.0151479,-0.0404482,-0.0142139,-0
 .0404395,0.0613103,-0.0224206,0.0037052,-0.0022573,0.0241142,0.0147685
 ,0.0402642,-0.0141123,0.040262,0.0616755,-0.211188,-0.0000232,0.000567
 5,-0.0000672,-0.4855116,-0.0000041,0.0012651,-0.0000041,-0.485453,-0.9
 999251,0.0000221,-0.0003903,0.0000424,-0.4208092,0.0000007,-0.001027,0
 .0000007,-0.4208374\Polar=86.6009594,-0.0018674,40.3251515,0.0151016,-
 0.0003484,40.3243845\Quadrupole=-29.0537958,14.5271071,14.5266888,-0.0
 002265,-0.0008648,0.0000411\PG=C01 [X(C2H3Cl1N1)]\NImag=2\\0.26722720,
 0.00004010,0.59763131,-0.00017517,0.00014829,0.59677729,-0.09919778,-0
 .00000721,-0.00006935,0.18268986,-0.00000172,-0.03348006,-0.00000037,0
 .00000952,0.01873432,-0.00005242,-0.00000035,-0.03348533,0.00014106,0.
 00000127,0.01872002,-0.05770106,-0.00019353,0.08433011,-0.02465859,-0.
 00004604,0.02011511,0.07444527,-0.00019073,-0.04991474,0.00062448,0.00
 001168,0.00060506,-0.00001586,0.00019773,0.04620116,0.08334593,0.00061
 987,-0.32375165,-0.00576706,-0.00001758,0.00831969,-0.08727095,-0.0006
 6171,0.33628590,-0.05737033,-0.07269394,-0.04220913,-0.02471911,-0.017
 45492,-0.01014714,0.00458789,0.00756852,0.00430316,0.07416812,-0.07187
 286,-0.25545632,-0.11936481,0.00495310,0.00635977,0.00333536,0.0000975
 5,0.00213473,0.00236450,0.07525113,0.26386942,-0.04172210,-0.11937071,
 -0.11910655,0.00285366,0.00331522,0.00254283,-0.00866254,-0.02510887,-
 0.01115482,0.04369238,0.12642875,0.11947855,-0.05741581,0.07285500,-0.
 04186058,-0.02470161,0.01749270,-0.01006283,0.00458841,-0.00758417,0.0
 0426809,0.00457868,-0.00747418,0.00439957,0.07419615,0.07202598,-0.256
 33061,0.11859204,-0.00496694,0.00639189,-0.00332032,-0.00005553,0.0020
 2509,-0.00229953,0.00745953,-0.01765663,0.01369187,-0.07542015,0.26481
 184,-0.04137337,0.11860253,-0.11797055,0.00282987,-0.00329844,0.002510
 65,-0.00866503,0.02516764,-0.01105245,0.00443563,-0.01380690,0.0086778
 0,0.04332998,-0.12562628,0.11828190,-0.00035961,-0.00000038,-0.0000108
 5,-0.00414065,0.00000029,0.00000431,-0.00154213,-0.00000150,0.00049069
 ,-0.00152033,-0.00041739,-0.00024521,-0.00152123,0.00041821,-0.0002436
 0,1.13205429,-0.00000057,-0.00310547,0.00000046,-0.00000060,0.00165212
 ,-0.00000013,-0.00000040,-0.00130449,-0.00000691,-0.00023608,0.0009604
 2,0.00131320,0.00023695,0.00097240,-0.00130673,-0.00006264,0.00045285,
 -0.00003758,0.00000046,-0.00312420,0.00002503,-0.00000013,0.00165598,0
 .00027638,-0.00000710,0.00171996,-0.00013684,0.00131324,-0.00053099,-0
 .00013568,-0.00130658,-0.00054299,0.00167372,0.00000003,0.00045074,0.0
 0481738,-0.00000004,-0.00000502,-0.00527212,0.00000017,0.00000190,0.00
 028021,-0.00000153,0.00063014,0.00027508,-0.00053735,-0.00031575,0.000
 27541,0.00053889,-0.00031347,-1.12297033,0.00006334,-0.00166503,1.1225
 9437,-0.00000020,0.00065590,-0.00000009,0.00000045,-0.00026310,0.00000
 003,0.00000021,0.00025319,0.00000136,0.00010575,-0.00021139,-0.0002694
 6,-0.00010615,-0.00021397,0.00026819,0.00006342,0.00037216,0.00000007,
 -0.00006348,-0.00059278,0.00001471,-0.00000009,0.00066098,-0.00001322,
 0.00000003,-0.00026384,-0.00012307,0.00000143,-0.00036663,0.00006195,-
 0.00027014,0.00009318,0.00006145,0.00026879,0.00009564,-0.00166904,0.0
 0000007,0.00037150,0.00166722,-0.00000009,-0.00059082\\-0.00504241,0.0
 0006559,0.00017900,0.01014007,0.00000862,0.00003863,-0.00123526,-0.000
 00149,-0.00109394,-0.00140054,0.00077237,0.00042422,-0.00135465,-0.000
 84513,0.00045682,0.00102933,0.00000002,-0.00000362,-0.00213654,0.00000
 003,-0.00000111\\\@


      LET US REMEMBER, PLEASE, THAT THE SEARCH FOR THE CONSTITUTION
      OF THE WORLD IS ONE OF THE GREATEST AND NOBLEST PROBLEMS PRESENTED 
      BY NATURE.

                                                  -- GALILEO
 Job cpu time:       0 days  0 hours  3 minutes 37.6 seconds.
 Elapsed time:       0 days  0 hours  0 minutes  9.5 seconds.
 File lengths (MBytes):  RWF=     88 Int=      0 D2E=      0 Chk=      2 Scr=      2
 Normal termination of Gaussian 16 at Sun Oct 13 09:52:28 2024.
