RxCoord=4.79617 DE=44.93                                                
Freq      RB3LYP                                                      6-31++G(d,p)        
Number of atoms                            I                7
Info1-9                                    I   N=           9
          16          16           0           0           0         100
           6          18        -502
Full Title                                 C   N=           2
RxCoord=4.79617 DE=44.93
Route                                      C   N=           6
#p b3lyp 6-31++g(d,p) scf=verytight NoSymm freq=noraman int=
ultrafine   
Charge                                     I               -1
Multiplicity                               I                1
Number of electrons                        I               40
Number of alpha electrons                  I               20
Number of beta electrons                   I               20
Number of basis functions                  I               98
Number of independent functions            I               98
Number of point charges in /Mol/           I                0
Number of translation vectors              I                0
Atomic numbers                             I   N=           7
           6          17           1           1           1           6
           7
Nuclear charges                            R   N=           7
  6.00000000E+00  1.70000000E+01  1.00000000E+00  1.00000000E+00  1.00000000E+00
  6.00000000E+00  7.00000000E+00
Current cartesian coordinates              R   N=          21
 -8.10565896E-01 -1.88972612E-06  1.37194117E-03 -4.26459975E+00 -1.13383567E-05
 -3.40150702E-04 -1.77912045E-01  4.47676119E-03 -1.94965312E+00 -1.79304774E-01
  1.68800164E+00  9.81417924E-01 -1.79159265E-01 -1.69243305E+00  9.73643591E-01
  4.92812038E+00  7.55890450E-05 -1.86515968E-03  7.15971875E+00 -3.59047964E-05
  8.82502100E-04
Number of symbols in /Mol/                 I                0
Force Field                                I                0
Atom Types                                 C   N=           7
                                                            
                        
Int Atom Types                             I   N=           7
           0           0           0           0           0           0
           0
MM charges                                 R   N=           7
  0.00000000E+00  0.00000000E+00  0.00000000E+00  0.00000000E+00  0.00000000E+00
  0.00000000E+00  0.00000000E+00
Integer atomic weights                     I   N=           7
          12          35           1           1           1          12
          14
Real atomic weights                        R   N=           7
  1.20000000E+01  3.49688527E+01  1.00782504E+00  1.00782504E+00  1.00782504E+00
  1.20000000E+01  1.40030740E+01
Atom fragment info                         I   N=           7
           0           0           0           0           0           0
           0
Atom residue num                           I   N=           7
           0           0           0           0           0           0
           0
Nuclear spins                              I   N=           7
           0           3           1           1           1           0
           2
Nuclear ZEff                               R   N=           7
 -3.60000000E+00 -1.42400000E+01 -1.00000000E+00 -1.00000000E+00 -1.00000000E+00
 -3.60000000E+00 -4.55000000E+00
Nuclear ZNuc                               R   N=           7
  6.00000000E+00  1.70000000E+01  1.00000000E+00  1.00000000E+00  1.00000000E+00
  6.00000000E+00  7.00000000E+00
Nuclear QMom                               R   N=           7
  0.00000000E+00 -8.16500000E+00  0.00000000E+00  0.00000000E+00  0.00000000E+00
  0.00000000E+00  2.04400000E+00
Nuclear GFac                               R   N=           7
  0.00000000E+00  8.21874000E-01  2.79284600E+00  2.79284600E+00  2.79284600E+00
  0.00000000E+00  4.03761000E-01
MicOpt                                     I   N=           7
          -1          -1          -1          -1          -1          -1
          -1
Number of residues                         I                0
Number of secondary structures             I                0
Number of contracted shells                I               33
Number of primitive shells                 I               72
Pure/Cartesian d shells                    I                1
Pure/Cartesian f shells                    I                0
Highest angular momentum                   I                2
Largest degree of contraction              I                6
Shell types                                I   N=          33
           0          -1          -1          -1           2           0
          -1          -1          -1          -1           2           0
           0           0           1           0           0           0
           1           0           0           0           1           0
          -1          -1          -1           2           0          -1
          -1          -1           2
Number of primitives per shell             I   N=          33
           6           3           1           1           1           6
           6           3           1           1           1           3
           1           1           1           3           1           1
           1           3           1           1           1           6
           3           1           1           1           6           3
           1           1           1
Shell to atom map                          I   N=          33
           1           1           1           1           1           2
           2           2           2           2           2           3
           3           3           3           4           4           4
           4           5           5           5           5           6
           6           6           6           6           7           7
           7           7           7
Primitive exponents                        R   N=          72
  3.04752488E+03  4.57369518E+02  1.03948685E+02  2.92101553E+01  9.28666296E+00
  3.16392696E+00  7.86827235E+00  1.88128854E+00  5.44249258E-01  1.68714478E-01
  4.38000000E-02  8.00000000E-01  2.51801000E+04  3.78035000E+03  8.60474000E+02
  2.42145000E+02  7.73349000E+01  2.62470000E+01  4.91765000E+02  1.16984000E+02
  3.74153000E+01  1.37834000E+01  5.45215000E+00  2.22588000E+00  3.18649000E+00
  1.14427000E+00  4.20377000E-01  1.42657000E-01  4.83000000E-02  7.50000000E-01
  1.87311370E+01  2.82539436E+00  6.40121692E-01  1.61277759E-01  3.60000000E-02
  1.10000000E+00  1.87311370E+01  2.82539436E+00  6.40121692E-01  1.61277759E-01
  3.60000000E-02  1.10000000E+00  1.87311370E+01  2.82539436E+00  6.40121692E-01
  1.61277759E-01  3.60000000E-02  1.10000000E+00  3.04752488E+03  4.57369518E+02
  1.03948685E+02  2.92101553E+01  9.28666296E+00  3.16392696E+00  7.86827235E+00
  1.88128854E+00  5.44249258E-01  1.68714478E-01  4.38000000E-02  8.00000000E-01
  4.17351146E+03  6.27457911E+02  1.42902093E+02  4.02343293E+01  1.28202129E+01
  4.39043701E+00  1.16263619E+01  2.71627981E+00  7.72218397E-01  2.12031498E-01
  6.39000000E-02  8.00000000E-01
Contraction coefficients                   R   N=          72
  1.83473713E-03  1.40373228E-02  6.88426223E-02  2.32184443E-01  4.67941348E-01
  3.62311985E-01 -1.19332420E-01 -1.60854152E-01  1.14345644E+00  1.00000000E+00
  1.00000000E+00  1.00000000E+00  1.83295985E-03  1.40341988E-02  6.90973943E-02
  2.37451980E-01  4.83033960E-01  3.39855972E-01 -2.29739142E-03 -3.07137189E-02
 -1.12528069E-01  4.50163278E-02  5.89353363E-01  4.65206287E-01 -2.51828028E-01
  6.15892514E-02  1.06018433E+00  1.00000000E+00  1.00000000E+00  1.00000000E+00
  3.34946043E-02  2.34726953E-01  8.13757326E-01  1.00000000E+00  1.00000000E+00
  1.00000000E+00  3.34946043E-02  2.34726953E-01  8.13757326E-01  1.00000000E+00
  1.00000000E+00  1.00000000E+00  3.34946043E-02  2.34726953E-01  8.13757326E-01
  1.00000000E+00  1.00000000E+00  1.00000000E+00  1.83473713E-03  1.40373228E-02
  6.88426223E-02  2.32184443E-01  4.67941348E-01  3.62311985E-01 -1.19332420E-01
 -1.60854152E-01  1.14345644E+00  1.00000000E+00  1.00000000E+00  1.00000000E+00
  1.83477216E-03  1.39946270E-02  6.85865518E-02  2.32240873E-01  4.69069948E-01
  3.60455199E-01 -1.14961182E-01 -1.69117479E-01  1.14585195E+00  1.00000000E+00
  1.00000000E+00  1.00000000E+00
P(S=P) Contraction coefficients            R   N=          72
  0.00000000E+00  0.00000000E+00  0.00000000E+00  0.00000000E+00  0.00000000E+00
  0.00000000E+00  6.89990666E-02  3.16423961E-01  7.44308291E-01  1.00000000E+00
  1.00000000E+00  0.00000000E+00  0.00000000E+00  0.00000000E+00  0.00000000E+00
  0.00000000E+00  0.00000000E+00  0.00000000E+00  3.98940088E-03  3.03177067E-02
  1.29880029E-01  3.27951072E-01  4.53527100E-01  2.52154056E-01 -1.42993147E-02
  3.23572333E-01  7.43507765E-01  1.00000000E+00  1.00000000E+00  0.00000000E+00
  0.00000000E+00  0.00000000E+00  0.00000000E+00  0.00000000E+00  0.00000000E+00
  0.00000000E+00  0.00000000E+00  0.00000000E+00  0.00000000E+00  0.00000000E+00
  0.00000000E+00  0.00000000E+00  0.00000000E+00  0.00000000E+00  0.00000000E+00
  0.00000000E+00  0.00000000E+00  0.00000000E+00  0.00000000E+00  0.00000000E+00
  0.00000000E+00  0.00000000E+00  0.00000000E+00  0.00000000E+00  6.89990666E-02
  3.16423961E-01  7.44308291E-01  1.00000000E+00  1.00000000E+00  0.00000000E+00
  0.00000000E+00  0.00000000E+00  0.00000000E+00  0.00000000E+00  0.00000000E+00
  0.00000000E+00  6.75797439E-02  3.23907296E-01  7.40895140E-01  1.00000000E+00
  1.00000000E+00  0.00000000E+00
Coordinates of each shell                  R   N=          99
 -8.10565896E-01 -1.88972612E-06  1.37194117E-03 -8.10565896E-01 -1.88972612E-06
  1.37194117E-03 -8.10565896E-01 -1.88972612E-06  1.37194117E-03 -8.10565896E-01
 -1.88972612E-06  1.37194117E-03 -8.10565896E-01 -1.88972612E-06  1.37194117E-03
 -4.26459975E+00 -1.13383567E-05 -3.40150702E-04 -4.26459975E+00 -1.13383567E-05
 -3.40150702E-04 -4.26459975E+00 -1.13383567E-05 -3.40150702E-04 -4.26459975E+00
 -1.13383567E-05 -3.40150702E-04 -4.26459975E+00 -1.13383567E-05 -3.40150702E-04
 -4.26459975E+00 -1.13383567E-05 -3.40150702E-04 -1.77912045E-01  4.47676119E-03
 -1.94965312E+00 -1.77912045E-01  4.47676119E-03 -1.94965312E+00 -1.77912045E-01
  4.47676119E-03 -1.94965312E+00 -1.77912045E-01  4.47676119E-03 -1.94965312E+00
 -1.79304774E-01  1.68800164E+00  9.81417924E-01 -1.79304774E-01  1.68800164E+00
  9.81417924E-01 -1.79304774E-01  1.68800164E+00  9.81417924E-01 -1.79304774E-01
  1.68800164E+00  9.81417924E-01 -1.79159265E-01 -1.69243305E+00  9.73643591E-01
 -1.79159265E-01 -1.69243305E+00  9.73643591E-01 -1.79159265E-01 -1.69243305E+00
  9.73643591E-01 -1.79159265E-01 -1.69243305E+00  9.73643591E-01  4.92812038E+00
  7.55890450E-05 -1.86515968E-03  4.92812038E+00  7.55890450E-05 -1.86515968E-03
  4.92812038E+00  7.55890450E-05 -1.86515968E-03  4.92812038E+00  7.55890450E-05
 -1.86515968E-03  4.92812038E+00  7.55890450E-05 -1.86515968E-03  7.15971875E+00
 -3.59047964E-05  8.82502100E-04  7.15971875E+00 -3.59047964E-05  8.82502100E-04
  7.15971875E+00 -3.59047964E-05  8.82502100E-04  7.15971875E+00 -3.59047964E-05
  8.82502100E-04  7.15971875E+00 -3.59047964E-05  8.82502100E-04
Num ILSW                                   I              100
ILSW                                       I   N=         100
           0           1           0           0           2           0
           0           0           0           0         402          -1
           5           0           0           0           2           0
           0           0           0           0           1           0
           1           1           0           0           0           0
           0           0      100000           0          -1           0
           0           0           0           0           0           0
           0           0           0           1           0           0
           0 -2000000000           1           0           0           0
           0           0           4          52           0           0
           0           0           5           0           0           0
           0           0           0           7           0           1
           0           0           0           0           0           0
           0           0           0           0           0           0
           0           0           0           0           0           0
           0           0           0           0           0           0
           0           0           0           0
Num RLSW                                   I               52
RLSW                                       R   N=          52
  8.00000000E-01  7.20000000E-01  1.00000000E+00  8.10000000E-01  2.00000000E-01
  0.00000000E+00  0.00000000E+00  1.00000000E+00  0.00000000E+00  0.00000000E+00
  0.00000000E+00  0.00000000E+00  1.00000000E+00  0.00000000E+00  0.00000000E+00
  0.00000000E+00  0.00000000E+00  1.00000000E+00  0.00000000E+00  0.00000000E+00
  0.00000000E+00  0.00000000E+00  1.00000000E+00  0.00000000E+00  0.00000000E+00
  0.00000000E+00  0.00000000E+00  1.00000000E+00  0.00000000E+00  0.00000000E+00
  0.00000000E+00  0.00000000E+00  1.00000000E+00  0.00000000E+00  0.00000000E+00
  0.00000000E+00  0.00000000E+00  0.00000000E+00  1.00000000E+00  1.00000000E+00
  0.00000000E+00  1.00000000E+00  0.00000000E+00  0.00000000E+00  0.00000000E+00
  0.00000000E+00  0.00000000E+00  0.00000000E+00  0.00000000E+00  0.00000000E+00
  0.00000000E+00  0.00000000E+00
MxBond                                     I                4
NBond                                      I   N=           7
           4           1           1           1           1           1
           1
IBond                                      I   N=          28
           2           3           4           5           1           0
           0           0           1           0           0           0
           1           0           0           0           1           0
           0           0           7           0           0           0
           6           0           0           0
RBond                                      R   N=          28
  1.00000000E+00  1.00000000E+00  1.00000000E+00  1.00000000E+00  1.00000000E+00
  0.00000000E+00  0.00000000E+00  0.00000000E+00  1.00000000E+00  0.00000000E+00
  0.00000000E+00  0.00000000E+00  1.00000000E+00  0.00000000E+00  0.00000000E+00
  0.00000000E+00  1.00000000E+00  0.00000000E+00  0.00000000E+00  0.00000000E+00
  2.00000000E+00  0.00000000E+00  0.00000000E+00  0.00000000E+00  2.00000000E+00
  0.00000000E+00  0.00000000E+00  0.00000000E+00
Virial Ratio                               R      2.004591732203798E+00
SCF Energy                                 R     -5.929951604107681E+02
Total Energy                               R     -5.929951604107681E+02
RMS Force                                  R      2.565547293799425E-03
RMS Density                                R      1.720485314988637E-09
NImag                                      I                2
Job Status                                 I                1
Nuclear derivative order                   I                2
External E-field                           R   N=          35
  0.00000000E+00  0.00000000E+00  0.00000000E+00  0.00000000E+00  0.00000000E+00
  0.00000000E+00  0.00000000E+00  0.00000000E+00  0.00000000E+00  0.00000000E+00
  0.00000000E+00  0.00000000E+00  0.00000000E+00  0.00000000E+00  0.00000000E+00
  0.00000000E+00  0.00000000E+00  0.00000000E+00  0.00000000E+00  0.00000000E+00
  0.00000000E+00  0.00000000E+00  0.00000000E+00  0.00000000E+00  0.00000000E+00
  0.00000000E+00  0.00000000E+00  0.00000000E+00  0.00000000E+00  0.00000000E+00
  0.00000000E+00  0.00000000E+00  0.00000000E+00  0.00000000E+00  0.00000000E+00
IOpCl                                      I                0
IROHF                                      I                0
Alpha Orbital Energies                     R   N=          98
 -1.01417150E+02 -1.40932092E+01 -1.01065000E+01 -9.95935421E+00 -9.33328233E+00
 -7.09642578E+00 -7.08787094E+00 -7.08787087E+00 -7.22622150E-01 -6.45940642E-01
 -5.44821399E-01 -3.12891575E-01 -3.12878058E-01 -2.82774414E-01 -1.81556138E-01
 -1.80873000E-01 -1.80872541E-01 -9.51109569E-02 -9.51106386E-02 -6.77985282E-02
  1.06531134E-01  1.23144051E-01  1.42816491E-01  1.42836177E-01  1.73162508E-01
  1.98771436E-01  2.00538337E-01  2.00539542E-01  2.19114330E-01  2.19186815E-01
  2.37300565E-01  2.47093947E-01  2.47138110E-01  2.68220344E-01  2.77355367E-01
  2.77392480E-01  3.11634808E-01  3.28815904E-01  3.28907669E-01  3.58149318E-01
  3.84942330E-01  3.85004141E-01  3.89882967E-01  4.61717098E-01  4.75732727E-01
  6.34621800E-01  7.22617553E-01  7.39943073E-01  7.39958147E-01  7.68121179E-01
  7.68191368E-01  8.67565050E-01  8.97079312E-01  8.97081092E-01  9.65144963E-01
  9.88167245E-01  9.88191624E-01  1.03904102E+00  1.03908355E+00  1.07552724E+00
  1.08890490E+00  1.08894104E+00  1.12191996E+00  1.18846730E+00  1.18850258E+00
  1.19322864E+00  1.26419695E+00  1.37463658E+00  1.45297816E+00  1.59507288E+00
  1.59508750E+00  1.71008636E+00  1.78377140E+00  1.78377246E+00  1.80531357E+00
  1.80531948E+00  2.15164076E+00  2.20294515E+00  2.20297531E+00  2.20997222E+00
  2.21015971E+00  2.28981461E+00  2.48068808E+00  2.48079333E+00  2.68145574E+00
  2.79927703E+00  2.83609937E+00  2.83610815E+00  2.94619575E+00  2.94633712E+00
  3.25131401E+00  3.37421927E+00  3.54884319E+00  3.54913697E+00  4.20301434E+00
  4.40458830E+00  4.45018714E+00  4.56546419E+00
Alpha MO coefficients                      R   N=        9604
 -6.71187819E-06  2.58730443E-05 -5.47252286E-05 -8.09915862E-10 -3.94448034E-08
  1.19351496E-04 -2.10392223E-05  1.89663322E-09 -3.37537696E-08 -4.64432853E-05
 -3.80128061E-05 -3.70300730E-09  4.60683602E-08 -2.28249258E-05  1.16952606E-05
  1.17088507E-05 -1.24524301E-09 -2.09668660E-08 -9.40538719E-13  9.95996936E-01
  1.51504247E-02  4.11346610E-05 -4.12314265E-10  2.33297577E-08 -2.10656045E-02
 -1.78268608E-05 -8.81181963E-11 -6.85089501E-09  1.89019380E-03 -4.27656612E-05
  9.43144930E-11 -2.70202375E-08 -3.64780334E-04 -1.40027758E-05  3.58715203E-10
 -1.41188064E-08  7.50373342E-03  7.52427237E-03  7.52427289E-03 -1.83939468E-10
 -1.17975581E-08  2.59440831E-11 -2.82070699E-05 -3.53633043E-05  4.46460900E-05
  2.33029870E-05  2.84844391E-08 -1.24420203E-05 -2.82032336E-05 -3.52889480E-05
  4.44996647E-05  2.32957043E-05  1.07632187E-05  6.25959326E-06 -2.82003428E-05
 -3.52899071E-05  4.44925493E-05  2.33003858E-05 -1.07912429E-05  6.20978834E-06
  4.44283094E-08  2.06147058E-06 -5.25392952E-07  4.67630419E-10 -9.61113563E-09
 -9.08593229E-05 -6.47559218E-05  1.88195952E-09 -5.43872997E-08 -4.94225666E-05
 -5.18159841E-05 -7.55469414E-10  2.29524718E-08 -7.52637630E-06  1.55248281E-06
  1.55295224E-06  5.68263011E-10 -1.28633260E-08 -1.60907292E-11 -1.36525950E-06
 -5.44666932E-06 -4.92620195E-07 -1.66266399E-12 -1.02042790E-09  8.30021017E-05
 -4.85935686E-05  2.56028053E-09 -5.87388645E-08  9.20569085E-05  2.77099327E-06
  2.75361202E-09 -6.73175272E-08  3.31804747E-06 -4.28456081E-06 -4.28470955E-06
 -5.87934470E-10  1.39410318E-08 -6.17671497E-13  3.90852673E-06  1.31562754E-05
  7.11182088E-06  3.79574355E-10 -1.48182846E-08 -3.68394664E-05 -4.34856187E-05
  7.30345517E-10  2.10636086E-08  9.03062792E-04  1.31509394E-04  9.76937661E-09
 -4.99777713E-07  6.23278538E-06  9.63118421E-06  9.62809970E-06 -3.44401686E-11
  2.46528254E-09  1.94184629E-10  1.59432979E-07  2.68817788E-06 -5.68836107E-08
  8.22279271E-11 -1.47646987E-09  7.41185416E-06  1.06026156E-06 -4.68606294E-10
  8.94033899E-09 -6.83171719E-05 -3.25059267E-05  1.52792509E-09 -4.99818614E-08
 -9.22563120E-05 -5.08645455E-05 -8.99903254E-09  2.60037942E-07  2.11268671E-06
  5.33422830E-06  5.33435997E-06 -9.09838458E-11 -5.65165536E-10  2.69778188E-11
  1.06455419E-05 -3.97458484E-05 -1.53379445E-04  2.83956641E-06  4.42509598E-09
 -1.90986159E-06  1.06134452E-05 -3.96478577E-05 -1.53742627E-04  2.85817818E-06
  1.63928467E-06  9.48830805E-07  1.06125279E-05 -3.96421152E-05 -1.53790496E-04
  2.85774085E-06 -1.64305127E-06  9.41030376E-07  8.32449352E-05  2.10391723E-04
 -2.79160258E-04  1.36202777E-08 -3.33979863E-07 -2.31629388E-04 -4.14231581E-04
  2.26806956E-08 -5.63040259E-07  1.45417436E-03  9.85728630E-04 -4.83970982E-08
  1.05690364E-06 -7.56202457E-04 -1.39970849E-05 -1.39977355E-05  4.28873090E-08
 -1.05527120E-06  1.76320648E-11  9.92699917E-01  3.44388436E-02 -1.39409761E-03
  6.97402301E-08 -1.71672374E-06  5.18799050E-03  1.14464599E-04 -6.14481415E-09
  1.42079300E-07 -2.97975892E-03  6.25284156E-05 -4.24573578E-09  1.76925779E-07
 -7.70722916E-03 -8.41838992E-03 -8.41838943E-03 -4.08315763E-08  1.00607476E-06
 -6.31350047E-11  9.92987444E-01  4.96215506E-02 -7.47748113E-04 -1.36870612E-08
  1.92212973E-07 -1.64301544E-02  1.01178683E-03 -2.45802373E-08  5.94129297E-07
  7.19168061E-03 -3.77271312E-03 -8.51866603E-09 -1.27249493E-06 -9.28027902E-03
 -8.87194238E-03 -8.87198440E-03 -1.63965332E-08 -1.76211830E-07  2.71240824E-09
 -9.53926552E-06 -5.27966336E-05 -3.13948866E-06 -1.46324181E-09 -7.59284366E-10
 -2.55217641E-05  1.92804720E-04  9.81157486E-09  9.20953718E-08  3.34883050E-03
  1.89549633E-03 -2.88768109E-08  9.87191354E-07 -6.40102719E-03 -2.07325732E-03
  1.54478878E-08 -1.40964758E-06 -1.40394258E-04 -1.84358456E-04 -1.84364774E-04
 -6.04270854E-09  1.68153083E-08 -2.71811958E-09 -1.64453943E-04  3.01093663E-03
 -1.00709555E-03  2.46415182E-05  2.29722866E-07 -9.63135604E-05 -1.64636197E-04
  3.01034293E-03 -1.00693774E-03  2.47580547E-05  8.36785881E-05  4.85533754E-05
 -1.64651735E-04  3.01033864E-03 -1.00680483E-03  2.47502233E-05 -8.38885560E-05
  4.81725411E-05 -1.92794782E-05 -3.16725737E-05  3.85794118E-05 -2.01443144E-09
 -2.36744725E-07 -3.59880754E-04 -6.86956280E-04  2.71379933E-08  3.40453794E-07
  2.23916452E-03  6.69810438E-05  3.22408066E-08  2.00784648E-06 -6.84520302E-05
 -2.80268312E-05 -2.80650486E-05  2.34510685E-09 -1.15650434E-07  7.08447564E-10
 -2.60655227E-05 -9.13504388E-05 -1.48822653E-05 -1.59492370E-09  7.98497432E-08
  1.01850368E-03 -2.97162867E-04  2.80423108E-08 -8.92537930E-07 -1.06822783E-03
  2.02816496E-05 -5.92993235E-08 -4.08849672E-07 -1.87528849E-05 -6.57617137E-05
 -6.57570940E-05 -1.90521924E-09  1.32632072E-07 -3.72588927E-11 -1.26176919E-05
 -6.00752745E-05 -6.65744327E-05 -3.61044358E-10 -6.62331959E-09  4.99019869E-04
  3.42196101E-04  8.29411873E-09  4.04547671E-07 -3.98727898E-04  1.46623960E-03
 -1.91243157E-08  7.16986076E-07 -4.39401728E-05 -2.40242246E-05 -2.40676756E-05
 -1.15861274E-09 -5.90344464E-09  9.26865170E-10  1.29780078E-07  6.01607663E-06
  3.00238021E-06  3.79447129E-10  3.21875161E-09  1.37938971E-05 -2.13713293E-05
 -2.28124624E-09 -1.83393806E-08 -1.57029332E-04  1.61176548E-04  7.55323488E-09
  5.18862958E-08  2.23211365E-03  5.49983090E-04  3.71807282E-09  2.26670557E-07
  2.91472645E-05  1.79457149E-06  1.79181667E-06  9.98285765E-10  1.00762178E-08
  4.90728610E-10 -1.72214235E-05 -4.51931124E-04 -3.36744683E-04 -3.47756078E-05
  4.62603181E-08 -2.05086783E-05 -1.70968620E-05 -4.52534599E-04 -3.34968375E-04
 -3.48758782E-05  1.78470466E-05  1.03429513E-05 -1.71070303E-05 -4.52516106E-04
 -3.35039627E-04 -3.48714857E-05 -1.78920131E-05  1.02587960E-05  9.92847043E-01
  4.92474606E-02  1.87554927E-03 -9.65559447E-08  2.41916456E-06 -1.13538649E-02
 -1.18700453E-03  7.45629988E-08 -1.97080242E-06 -4.75987782E-03 -1.68064420E-03
  7.45928942E-08 -3.11440988E-06 -8.47182445E-03 -9.68637582E-03 -9.68636417E-03
 -6.89081717E-08  1.72006722E-06 -2.37443783E-10 -4.96969099E-04  7.46554748E-07
  4.40530605E-04 -2.07522488E-08  5.20060555E-07 -5.11357105E-04  2.53712841E-04
 -2.24463059E-08  4.96967297E-07  8.87098027E-03 -2.95444717E-03  1.62548249E-07
 -3.24360184E-06 -2.71028900E-04  1.43426649E-04  1.43425950E-04  2.51229218E-08
 -6.30454610E-07  2.14908280E-11 -1.11584652E-04  1.25549182E-04  3.78746964E-04
  1.42890570E-09  1.18809736E-07  3.03665334E-03 -1.64706864E-03 -6.75425860E-08
  4.92457705E-07 -3.71259619E-02  3.05042855E-02  2.11074126E-07  6.76026311E-06
 -7.74857895E-04 -1.29965749E-04 -1.30142548E-04 -1.90931698E-09 -3.46953726E-07
 -9.79415070E-09 -2.84605685E-01  1.02274011E+00  5.04222490E-03 -5.23345919E-08
  2.99821461E-06  7.59967242E-02  6.33109766E-04  1.14640544E-09  2.52550730E-07
 -2.63453819E-02 -1.83749111E-03  4.49292687E-09 -8.50452959E-07  5.82763859E-02
  1.64151255E-02  1.90420236E-08  1.10755426E-05 -1.51918582E-02 -1.55860415E-02
 -1.55860605E-02  1.48373496E-09  2.74754983E-07 -3.77040003E-12 -4.32530735E-05
 -6.72262689E-04  6.60314418E-04 -7.14061859E-05 -3.33750345E-08  1.51362757E-05
 -4.31601330E-05 -6.74425729E-04  6.64148982E-04 -7.14942396E-05 -1.28814810E-05
 -7.60303428E-06 -4.31720941E-05 -6.74536011E-04  6.64430027E-04 -7.14514818E-05
  1.29125168E-05 -7.54020334E-06  1.01898321E-05  4.71802590E-05  4.30804335E-05
 -1.37067978E-08  5.34625624E-07  5.08476175E-04  6.24573841E-04  1.73004143E-08
 -1.01300126E-06 -1.34723859E-02  8.09257619E-03  3.45463262E-07 -1.80151236E-05
  7.34368070E-05 -1.05890071E-06 -1.05239859E-06 -4.86835778E-09  1.90043300E-07
 -7.13844177E-11  1.12307214E-05  5.99839190E-05 -1.70953047E-05 -7.71715770E-09
  3.21855271E-07 -8.16801429E-04  5.85424539E-04  4.67845543E-09 -7.67423089E-07
  1.97109829E-04 -2.30886893E-03 -2.13893529E-07  1.07908718E-05 -4.46644837E-05
  2.96567759E-05  2.96570597E-05  7.68690680E-09 -2.49018556E-07  1.16334357E-10
  7.84790500E-05  1.63648551E-03  4.39954131E-04 -2.11981863E-10  4.33191382E-07
 -8.94994690E-04  1.35108910E-03 -9.57124808E-08 -1.19311301E-06  4.78158243E-02
 -4.70046048E-02 -2.01139343E-07 -8.52025654E-06 -1.96073261E-03  2.21318899E-04
  2.21525068E-04 -1.91679464E-09 -1.32780737E-06 -2.34158976E-08  1.48626799E-03
 -5.64692998E-03  9.90327274E-01 -7.11653559E-06  5.30716674E-04 -3.88230242E-04
  3.14771163E-02 -2.05893216E-07  1.68599118E-05  4.78322042E-03 -1.29197383E-02
  7.49449077E-08 -6.60704422E-06 -6.61778080E-02 -1.28283918E-02 -2.15656413E-08
 -1.28868086E-05  7.75999388E-04 -4.50137735E-04 -4.50114945E-04  4.50505462E-09
  6.73524175E-07 -1.04026361E-09 -1.38743711E-04  1.36737464E-03 -4.88820956E-03
 -3.06516124E-04  7.22899499E-08 -2.93310745E-05 -1.38590903E-04  1.36934358E-03
 -4.88531603E-03 -3.06438486E-04  2.49541814E-05  1.44805039E-05 -1.38683487E-04
  1.36926481E-03 -4.88541513E-03 -3.06376652E-04 -2.50255786E-05  1.43747692E-05
 -2.14068967E-05 -1.41865441E-04 -8.84249635E-05  1.89492345E-08 -7.38578712E-07
  1.51485977E-03  7.89868373E-04 -1.12335434E-07  3.45948606E-06  3.13201765E-02
 -1.42595382E-02 -7.17626539E-07  3.35257835E-05  9.47861725E-05 -3.34758795E-05
 -3.34760888E-05 -7.55142815E-09  4.72201156E-08  2.58544967E-11 -2.76567115E-05
 -9.42645226E-05  3.76354348E-05  1.12800681E-08 -5.18363006E-07  1.53506488E-04
  3.12209262E-04 -6.79552764E-08  2.94297964E-06 -6.59336691E-03  5.33339437E-03
  3.18191654E-07 -1.73410035E-05 -1.19030301E-04 -4.16607056E-05 -4.16567196E-05
 -6.42581451E-10  8.98418584E-08 -1.29782458E-10  7.08569960E-09  6.08159113E-08
 -4.99805234E-08 -8.14009974E-05  1.33813008E-05 -2.51646820E-07  3.41588196E-07
  3.20215756E-04 -5.26836464E-05 -4.23442167E-07  2.20914847E-06  4.72768789E-04
 -7.82946104E-05 -2.79511135E-09  1.40522634E-05 -1.40736180E-05  1.47952116E-04
 -2.43083654E-05 -9.46140465E-05 -1.59309884E-08  6.11109103E-08  9.31559595E-05
  9.77723811E-01 -1.60736501E-01  1.11525342E-10  2.79628314E-06  2.91925371E-02
 -4.79924226E-03  1.12919163E-08 -8.79134807E-07 -1.14746736E-02  1.88653242E-03
  2.64323521E-06  1.02071912E-06  5.09157744E-03 -8.37266651E-04  1.03134951E-07
 -8.55613500E-07  7.95965023E-07  3.26931886E-04 -5.37482141E-05  5.91105267E-06
 -9.81718287E-06  9.21928907E-05 -7.68096767E-04 -4.39196888E-05 -2.53545350E-05
  7.85214356E-06 -4.61415720E-05  4.33409324E-04 -3.59419122E-03 -2.05996689E-04
 -4.04364285E-05 -4.69173902E-06  5.59901175E-05 -5.25724420E-04  4.36190352E-03
  2.49814571E-04 -4.36792922E-05  1.48214290E-05 -1.91933852E-09 -1.36055009E-08
  2.33011448E-08  3.39028094E-05 -5.58523146E-06  1.16975187E-06  7.88148765E-07
 -1.31232669E-04  2.16709068E-05 -1.53429126E-06  1.12992083E-06  9.63167915E-04
 -1.59211488E-04  5.68530334E-08 -6.29669933E-07  5.87826594E-07 -7.57074179E-06
  1.25498939E-06  4.08979861E-06  2.94260575E-08  1.13376439E-07 -8.80280507E-09
 -1.71194000E-05  2.84284222E-06 -1.32222167E-06  6.57714071E-07  1.05864488E-04
 -1.75629004E-05  6.27883387E-09 -4.34968799E-07 -4.34858520E-04  7.20739339E-05
 -1.12094592E-08 -1.56577958E-07  3.16292739E-07 -9.05942357E-06  1.49504277E-06
  1.59404957E-06  1.25581494E-08  2.09466981E-08  2.92141411E-07 -1.33843470E-05
 -8.14083964E-05 -3.38032154E-07 -1.87923539E-06  5.25865976E-05  3.20119248E-04
  3.35515128E-06 -1.78996265E-05  7.77439790E-05  4.76379343E-04 -2.13924826E-08
 -8.20304260E-05  8.21585667E-05  2.43232745E-05  1.47862945E-04 -1.62397718E-05
  7.50897008E-08 -3.15095351E-07 -5.22812922E-04  1.60736532E-01  9.77723638E-01
 -4.13478076E-08 -1.55649405E-05  4.79921842E-03  2.91927193E-02  6.96075748E-07
  5.06342703E-06 -1.88642425E-03 -1.14753648E-02 -2.08557977E-05 -7.31006644E-06
  8.37073335E-04  5.09305075E-03 -5.30718856E-07  4.93067057E-06 -4.67341123E-06
  5.37503834E-05  3.26957736E-04  1.01083034E-06  5.88161144E-05 -5.52153278E-04
  4.60688796E-03  2.63367062E-04 -4.11303057E-06 -4.74327618E-05 -3.79052227E-05
  3.57942460E-04 -2.96543356E-03 -1.69525569E-04 -1.66300092E-05 -3.26834259E-05
 -2.09087326E-05  1.97921488E-04 -1.63856156E-03 -9.34949867E-05  2.72617254E-06
 -2.93856811E-05  1.11204652E-10  3.81125565E-08 -1.25099530E-07  5.57385077E-06