RxCoord=4.89614 DE=44.86                                                
Freq      RB3LYP                                                      6-31++G(d,p)        
Number of atoms                            I                7
Info1-9                                    I   N=           9
          16          16           0           0           0         100
           6          18        -502
Full Title                                 C   N=           2
RxCoord=4.89614 DE=44.86
Route                                      C   N=           6
#p b3lyp 6-31++g(d,p) scf=verytight NoSymm freq=noraman int=
ultrafine   
Charge                                     I               -1
Multiplicity                               I                1
Number of electrons                        I               40
Number of alpha electrons                  I               20
Number of beta electrons                   I               20
Number of basis functions                  I               98
Number of independent functions            I               98
Number of point charges in /Mol/           I                0
Number of translation vectors              I                0
Atomic numbers                             I   N=           7
           6          17           1           1           1           6
           7
Nuclear charges                            R   N=           7
  6.00000000E+00  1.70000000E+01  1.00000000E+00  1.00000000E+00  1.00000000E+00
  6.00000000E+00  7.00000000E+00
Current cartesian coordinates              R   N=          21
 -8.19082891E-01  4.15739747E-05  8.61715113E-04 -4.27277659E+00 -2.83458919E-05
 -3.36371250E-04 -1.85899918E-01  4.59392421E-03 -1.95051483E+00 -1.87438155E-01
  1.68799786E+00  9.80796205E-01 -1.87884130E-01 -1.69232344E+00  9.73021871E-01
  4.94397519E+00  4.53534270E-05 -1.14328431E-03  7.17564158E+00 -2.45664396E-05
  8.44707578E-04
Number of symbols in /Mol/                 I                0
Force Field                                I                0
Atom Types                                 C   N=           7
                                                            
                        
Int Atom Types                             I   N=           7
           0           0           0           0           0           0
           0
MM charges                                 R   N=           7
  0.00000000E+00  0.00000000E+00  0.00000000E+00  0.00000000E+00  0.00000000E+00
  0.00000000E+00  0.00000000E+00
Integer atomic weights                     I   N=           7
          12          35           1           1           1          12
          14
Real atomic weights                        R   N=           7
  1.20000000E+01  3.49688527E+01  1.00782504E+00  1.00782504E+00  1.00782504E+00
  1.20000000E+01  1.40030740E+01
Atom fragment info                         I   N=           7
           0           0           0           0           0           0
           0
Atom residue num                           I   N=           7
           0           0           0           0           0           0
           0
Nuclear spins                              I   N=           7
           0           3           1           1           1           0
           2
Nuclear ZEff                               R   N=           7
 -3.60000000E+00 -1.42400000E+01 -1.00000000E+00 -1.00000000E+00 -1.00000000E+00
 -3.60000000E+00 -4.55000000E+00
Nuclear ZNuc                               R   N=           7
  6.00000000E+00  1.70000000E+01  1.00000000E+00  1.00000000E+00  1.00000000E+00
  6.00000000E+00  7.00000000E+00
Nuclear QMom                               R   N=           7
  0.00000000E+00 -8.16500000E+00  0.00000000E+00  0.00000000E+00  0.00000000E+00
  0.00000000E+00  2.04400000E+00
Nuclear GFac                               R   N=           7
  0.00000000E+00  8.21874000E-01  2.79284600E+00  2.79284600E+00  2.79284600E+00
  0.00000000E+00  4.03761000E-01
MicOpt                                     I   N=           7
          -1          -1          -1          -1          -1          -1
          -1
Number of residues                         I                0
Number of secondary structures             I                0
Number of contracted shells                I               33
Number of primitive shells                 I               72
Pure/Cartesian d shells                    I                1
Pure/Cartesian f shells                    I                0
Highest angular momentum                   I                2
Largest degree of contraction              I                6
Shell types                                I   N=          33
           0          -1          -1          -1           2           0
          -1          -1          -1          -1           2           0
           0           0           1           0           0           0
           1           0           0           0           1           0
          -1          -1          -1           2           0          -1
          -1          -1           2
Number of primitives per shell             I   N=          33
           6           3           1           1           1           6
           6           3           1           1           1           3
           1           1           1           3           1           1
           1           3           1           1           1           6
           3           1           1           1           6           3
           1           1           1
Shell to atom map                          I   N=          33
           1           1           1           1           1           2
           2           2           2           2           2           3
           3           3           3           4           4           4
           4           5           5           5           5           6
           6           6           6           6           7           7
           7           7           7
Primitive exponents                        R   N=          72
  3.04752488E+03  4.57369518E+02  1.03948685E+02  2.92101553E+01  9.28666296E+00
  3.16392696E+00  7.86827235E+00  1.88128854E+00  5.44249258E-01  1.68714478E-01
  4.38000000E-02  8.00000000E-01  2.51801000E+04  3.78035000E+03  8.60474000E+02
  2.42145000E+02  7.73349000E+01  2.62470000E+01  4.91765000E+02  1.16984000E+02
  3.74153000E+01  1.37834000E+01  5.45215000E+00  2.22588000E+00  3.18649000E+00
  1.14427000E+00  4.20377000E-01  1.42657000E-01  4.83000000E-02  7.50000000E-01
  1.87311370E+01  2.82539436E+00  6.40121692E-01  1.61277759E-01  3.60000000E-02
  1.10000000E+00  1.87311370E+01  2.82539436E+00  6.40121692E-01  1.61277759E-01
  3.60000000E-02  1.10000000E+00  1.87311370E+01  2.82539436E+00  6.40121692E-01
  1.61277759E-01  3.60000000E-02  1.10000000E+00  3.04752488E+03  4.57369518E+02
  1.03948685E+02  2.92101553E+01  9.28666296E+00  3.16392696E+00  7.86827235E+00
  1.88128854E+00  5.44249258E-01  1.68714478E-01  4.38000000E-02  8.00000000E-01
  4.17351146E+03  6.27457911E+02  1.42902093E+02  4.02343293E+01  1.28202129E+01
  4.39043701E+00  1.16263619E+01  2.71627981E+00  7.72218397E-01  2.12031498E-01
  6.39000000E-02  8.00000000E-01
Contraction coefficients                   R   N=          72
  1.83473713E-03  1.40373228E-02  6.88426223E-02  2.32184443E-01  4.67941348E-01
  3.62311985E-01 -1.19332420E-01 -1.60854152E-01  1.14345644E+00  1.00000000E+00
  1.00000000E+00  1.00000000E+00  1.83295985E-03  1.40341988E-02  6.90973943E-02
  2.37451980E-01  4.83033960E-01  3.39855972E-01 -2.29739142E-03 -3.07137189E-02
 -1.12528069E-01  4.50163278E-02  5.89353363E-01  4.65206287E-01 -2.51828028E-01
  6.15892514E-02  1.06018433E+00  1.00000000E+00  1.00000000E+00  1.00000000E+00
  3.34946043E-02  2.34726953E-01  8.13757326E-01  1.00000000E+00  1.00000000E+00
  1.00000000E+00  3.34946043E-02  2.34726953E-01  8.13757326E-01  1.00000000E+00
  1.00000000E+00  1.00000000E+00  3.34946043E-02  2.34726953E-01  8.13757326E-01
  1.00000000E+00  1.00000000E+00  1.00000000E+00  1.83473713E-03  1.40373228E-02
  6.88426223E-02  2.32184443E-01  4.67941348E-01  3.62311985E-01 -1.19332420E-01
 -1.60854152E-01  1.14345644E+00  1.00000000E+00  1.00000000E+00  1.00000000E+00
  1.83477216E-03  1.39946270E-02  6.85865518E-02  2.32240873E-01  4.69069948E-01
  3.60455199E-01 -1.14961182E-01 -1.69117479E-01  1.14585195E+00  1.00000000E+00
  1.00000000E+00  1.00000000E+00
P(S=P) Contraction coefficients            R   N=          72
  0.00000000E+00  0.00000000E+00  0.00000000E+00  0.00000000E+00  0.00000000E+00
  0.00000000E+00  6.89990666E-02  3.16423961E-01  7.44308291E-01  1.00000000E+00
  1.00000000E+00  0.00000000E+00  0.00000000E+00  0.00000000E+00  0.00000000E+00
  0.00000000E+00  0.00000000E+00  0.00000000E+00  3.98940088E-03  3.03177067E-02
  1.29880029E-01  3.27951072E-01  4.53527100E-01  2.52154056E-01 -1.42993147E-02
  3.23572333E-01  7.43507765E-01  1.00000000E+00  1.00000000E+00  0.00000000E+00
  0.00000000E+00  0.00000000E+00  0.00000000E+00  0.00000000E+00  0.00000000E+00
  0.00000000E+00  0.00000000E+00  0.00000000E+00  0.00000000E+00  0.00000000E+00
  0.00000000E+00  0.00000000E+00  0.00000000E+00  0.00000000E+00  0.00000000E+00
  0.00000000E+00  0.00000000E+00  0.00000000E+00  0.00000000E+00  0.00000000E+00
  0.00000000E+00  0.00000000E+00  0.00000000E+00  0.00000000E+00  6.89990666E-02
  3.16423961E-01  7.44308291E-01  1.00000000E+00  1.00000000E+00  0.00000000E+00
  0.00000000E+00  0.00000000E+00  0.00000000E+00  0.00000000E+00  0.00000000E+00
  0.00000000E+00  6.75797439E-02  3.23907296E-01  7.40895140E-01  1.00000000E+00
  1.00000000E+00  0.00000000E+00
Coordinates of each shell                  R   N=          99
 -8.19082891E-01  4.15739747E-05  8.61715113E-04 -8.19082891E-01  4.15739747E-05
  8.61715113E-04 -8.19082891E-01  4.15739747E-05  8.61715113E-04 -8.19082891E-01
  4.15739747E-05  8.61715113E-04 -8.19082891E-01  4.15739747E-05  8.61715113E-04
 -4.27277659E+00 -2.83458919E-05 -3.36371250E-04 -4.27277659E+00 -2.83458919E-05
 -3.36371250E-04 -4.27277659E+00 -2.83458919E-05 -3.36371250E-04 -4.27277659E+00
 -2.83458919E-05 -3.36371250E-04 -4.27277659E+00 -2.83458919E-05 -3.36371250E-04
 -4.27277659E+00 -2.83458919E-05 -3.36371250E-04 -1.85899918E-01  4.59392421E-03
 -1.95051483E+00 -1.85899918E-01  4.59392421E-03 -1.95051483E+00 -1.85899918E-01
  4.59392421E-03 -1.95051483E+00 -1.85899918E-01  4.59392421E-03 -1.95051483E+00
 -1.87438155E-01  1.68799786E+00  9.80796205E-01 -1.87438155E-01  1.68799786E+00
  9.80796205E-01 -1.87438155E-01  1.68799786E+00  9.80796205E-01 -1.87438155E-01
  1.68799786E+00  9.80796205E-01 -1.87884130E-01 -1.69232344E+00  9.73021871E-01
 -1.87884130E-01 -1.69232344E+00  9.73021871E-01 -1.87884130E-01 -1.69232344E+00
  9.73021871E-01 -1.87884130E-01 -1.69232344E+00  9.73021871E-01  4.94397519E+00
  4.53534270E-05 -1.14328431E-03  4.94397519E+00  4.53534270E-05 -1.14328431E-03
  4.94397519E+00  4.53534270E-05 -1.14328431E-03  4.94397519E+00  4.53534270E-05
 -1.14328431E-03  4.94397519E+00  4.53534270E-05 -1.14328431E-03  7.17564158E+00
 -2.45664396E-05  8.44707578E-04  7.17564158E+00 -2.45664396E-05  8.44707578E-04
  7.17564158E+00 -2.45664396E-05  8.44707578E-04  7.17564158E+00 -2.45664396E-05
  8.44707578E-04  7.17564158E+00 -2.45664396E-05  8.44707578E-04
Num ILSW                                   I              100
ILSW                                       I   N=         100
           0           1           0           0           2           0
           0           0           0           0         402          -1
           5           0           0           0           2           0
           0           0           0           0           1           0
           1           1           0           0           0           0
           0           0      100000           0          -1           0
           0           0           0           0           0           0
           0           0           0           1           0           0
           0 -2000000000           1           0           0           0
           0           0           4          52           0           0
           0           0           5           0           0           0
           0           0           0           7           0           1
           0           0           0           0           0           0
           0           0           0           0           0           0
           0           0           0           0           0           0
           0           0           0           0           0           0
           0           0           0           0
Num RLSW                                   I               52
RLSW                                       R   N=          52
  8.00000000E-01  7.20000000E-01  1.00000000E+00  8.10000000E-01  2.00000000E-01
  0.00000000E+00  0.00000000E+00  1.00000000E+00  0.00000000E+00  0.00000000E+00
  0.00000000E+00  0.00000000E+00  1.00000000E+00  0.00000000E+00  0.00000000E+00
  0.00000000E+00  0.00000000E+00  1.00000000E+00  0.00000000E+00  0.00000000E+00
  0.00000000E+00  0.00000000E+00  1.00000000E+00  0.00000000E+00  0.00000000E+00
  0.00000000E+00  0.00000000E+00  1.00000000E+00  0.00000000E+00  0.00000000E+00
  0.00000000E+00  0.00000000E+00  1.00000000E+00  0.00000000E+00  0.00000000E+00
  0.00000000E+00  0.00000000E+00  0.00000000E+00  1.00000000E+00  1.00000000E+00
  0.00000000E+00  1.00000000E+00  0.00000000E+00  0.00000000E+00  0.00000000E+00
  0.00000000E+00  0.00000000E+00  0.00000000E+00  0.00000000E+00  0.00000000E+00
  0.00000000E+00  0.00000000E+00
MxBond                                     I                4
NBond                                      I   N=           7
           4           1           1           1           1           1
           1
IBond                                      I   N=          28
           2           3           4           5           1           0
           0           0           1           0           0           0
           1           0           0           0           1           0
           0           0           7           0           0           0
           6           0           0           0
RBond                                      R   N=          28
  1.00000000E+00  1.00000000E+00  1.00000000E+00  1.00000000E+00  1.00000000E+00
  0.00000000E+00  0.00000000E+00  0.00000000E+00  1.00000000E+00  0.00000000E+00
  0.00000000E+00  0.00000000E+00  1.00000000E+00  0.00000000E+00  0.00000000E+00
  0.00000000E+00  1.00000000E+00  0.00000000E+00  0.00000000E+00  0.00000000E+00
  2.00000000E+00  0.00000000E+00  0.00000000E+00  0.00000000E+00  2.00000000E+00
  0.00000000E+00  0.00000000E+00  0.00000000E+00
Virial Ratio                               R      2.004594960872014E+00
SCF Energy                                 R     -5.929951776490802E+02
Total Energy                               R     -5.929951776490802E+02
RMS Force                                  R      2.532985896983541E-03
RMS Density                                R      1.705271133925298E-09
NImag                                      I                2
Job Status                                 I                1
Nuclear derivative order                   I                2
External E-field                           R   N=          35
  0.00000000E+00  0.00000000E+00  0.00000000E+00  0.00000000E+00  0.00000000E+00
  0.00000000E+00  0.00000000E+00  0.00000000E+00  0.00000000E+00  0.00000000E+00
  0.00000000E+00  0.00000000E+00  0.00000000E+00  0.00000000E+00  0.00000000E+00
  0.00000000E+00  0.00000000E+00  0.00000000E+00  0.00000000E+00  0.00000000E+00
  0.00000000E+00  0.00000000E+00  0.00000000E+00  0.00000000E+00  0.00000000E+00
  0.00000000E+00  0.00000000E+00  0.00000000E+00  0.00000000E+00  0.00000000E+00
  0.00000000E+00  0.00000000E+00  0.00000000E+00  0.00000000E+00  0.00000000E+00
IOpCl                                      I                0
IROHF                                      I                0
Alpha Orbital Energies                     R   N=          98
 -1.01417626E+02 -1.40931010E+01 -1.01069704E+01 -9.95930620E+00 -9.33375056E+00
 -7.09690374E+00 -7.08833486E+00 -7.08833474E+00 -7.23091636E-01 -6.45813842E-01
 -5.45245923E-01 -3.13346967E-01 -3.13294628E-01 -2.83192834E-01 -1.81466933E-01
 -1.81275158E-01 -1.81270876E-01 -9.49862055E-02 -9.49859847E-02 -6.76961050E-02
  1.06343713E-01  1.22800572E-01  1.42660510E-01  1.42672812E-01  1.73158358E-01
  1.98448038E-01  2.00349726E-01  2.00351644E-01  2.18999090E-01  2.19053685E-01
  2.37004391E-01  2.46918861E-01  2.46949342E-01  2.68018377E-01  2.77471311E-01
  2.77502227E-01  3.11451467E-01  3.28410635E-01  3.28437177E-01  3.57866288E-01
  3.84882481E-01  3.84925144E-01  3.90075774E-01  4.61454776E-01  4.75341522E-01
  6.33763088E-01  7.22189784E-01  7.39620727E-01  7.39626878E-01  7.67746155E-01
  7.67766896E-01  8.66754422E-01  8.97124766E-01  8.97135165E-01  9.64118718E-01
  9.87742681E-01  9.87761595E-01  1.03861634E+00  1.03864661E+00  1.07481735E+00
  1.08843424E+00  1.08846088E+00  1.12165548E+00  1.18834532E+00  1.18837025E+00
  1.19048601E+00  1.26393101E+00  1.37490054E+00  1.45191548E+00  1.59456881E+00
  1.59458303E+00  1.70709897E+00  1.78389433E+00  1.78389480E+00  1.80539721E+00
  1.80540144E+00  2.15118682E+00  2.20302286E+00  2.20303150E+00  2.20942508E+00
  2.20951826E+00  2.28918466E+00  2.48010436E+00  2.48020062E+00  2.68176473E+00
  2.79731987E+00  2.83619517E+00  2.83620135E+00  2.94563270E+00  2.94563613E+00
  3.25063099E+00  3.37355301E+00  3.54834075E+00  3.54844973E+00  4.20246119E+00
  4.40402834E+00  4.44971402E+00  4.56492885E+00
Alpha MO coefficients                      R   N=        9604
 -6.73079682E-06  2.58940734E-05 -5.48680685E-05 -4.02660497E-09 -1.82901100E-08
  1.19708983E-04 -2.01455870E-05 -5.76996861E-09 -5.46365413E-09 -4.74105977E-05
 -3.44706324E-05  1.01881611E-08  9.33996410E-09 -2.29888228E-05  1.16635869E-05
  1.16578023E-05  2.76071118E-09 -1.99870324E-08 -4.86025987E-09  9.95996939E-01
  1.51504060E-02  4.12091321E-05  2.36526291E-09  1.38775777E-08 -2.10656312E-02
 -1.78427257E-05 -1.42916998E-10 -5.40122273E-09  1.89047023E-03 -4.23264253E-05
 -1.92745497E-09 -1.76448630E-08 -3.60885401E-04 -1.32057612E-05 -7.09783426E-10
 -7.88662981E-09  7.50380256E-03  7.52424307E-03  7.52424312E-03 -5.86870294E-11
 -9.39829458E-09 -7.54277552E-11 -2.82492528E-05 -3.56137761E-05  4.46548694E-05
  2.32881125E-05  2.91849693E-08 -1.24599011E-05 -2.82716646E-05 -3.55688071E-05
  4.45890400E-05  2.32687194E-05  1.07809655E-05  6.26559332E-06 -2.82913173E-05
 -3.55650084E-05  4.46178883E-05  2.32541453E-05 -1.08107976E-05  6.21701210E-06
  6.96657496E-08  2.06713782E-06 -5.68094962E-07  1.28832703E-11 -6.13261649E-09
 -8.93185720E-05 -6.30540200E-05  2.02718623E-09 -4.06408231E-08 -5.18422282E-05
 -4.98388595E-05  8.01022613E-10  1.04695120E-08 -7.31840990E-06  1.59074070E-06
  1.59122653E-06  2.43584907E-10 -8.97475416E-09  5.80337053E-11 -1.32391090E-06
 -5.28995257E-06 -4.60307202E-07  6.92700565E-11 -8.23678607E-10  8.08057199E-05
 -4.76053699E-05  1.31628162E-09 -4.11020679E-08  9.15995086E-05  2.23124116E-06
  5.17723089E-10 -4.37909917E-08  3.28497222E-06 -4.17293542E-06 -4.17304091E-06
 -2.87083595E-10  9.66130921E-09  2.83714199E-13  3.88829141E-06  1.28963078E-05
  7.32389280E-06  4.97205049E-10 -1.02864806E-08 -3.65508530E-05 -4.36505947E-05
 -7.32972694E-09  2.91573840E-08  8.90782867E-04  1.34018522E-04  2.10452838E-08
 -3.51901989E-07  6.49390212E-06  9.57328500E-06  9.56782363E-06  2.02255355E-10
  1.20526509E-09 -8.36608388E-10  1.60686304E-07  2.69778949E-06 -5.02192831E-08
 -8.54304078E-11 -8.54790803E-10  7.48084226E-06  1.03643876E-06  4.79443540E-10
  5.28685883E-09 -6.85631462E-05 -3.25775390E-05 -1.51049420E-09 -3.32435972E-08
 -8.64885107E-05 -4.91754356E-05 -8.93226213E-09  1.85342421E-07  2.05375233E-06
  5.36100595E-06  5.36060062E-06 -2.36240865E-10 -3.91364273E-10 -1.64113007E-10
  1.06429898E-05 -3.92577758E-05 -1.51896978E-04  2.93940904E-06  4.79956316E-09
 -1.84477830E-06  1.06171003E-05 -3.92053010E-05 -1.52138782E-04  2.95448022E-06
  1.59023523E-06  9.20149681E-07  1.06134600E-05 -3.92101223E-05 -1.52108562E-04
  2.95679988E-06 -1.59564077E-06  9.14123915E-07  8.32307309E-05  2.10462563E-04
 -2.79030864E-04  8.55612529E-09 -2.41734829E-07 -2.30134071E-04 -4.13169618E-04
  1.33040911E-08 -4.03940463E-07  1.45399161E-03  9.83918686E-04 -1.67010028E-08
  7.47195019E-07 -7.56017741E-04 -1.40238579E-05 -1.40239042E-05  2.67145332E-08
 -7.62920996E-07  8.41523648E-11  9.92700021E-01  3.44387497E-02 -1.39387118E-03
  4.33080008E-08 -1.24184187E-06  5.18572882E-03  1.15129058E-04 -2.33814629E-09
  1.01559451E-07 -2.97802563E-03  6.27428147E-05 -1.01598395E-08  1.36650595E-07
 -7.70721030E-03 -8.41812260E-03 -8.41812238E-03 -2.57010959E-08  7.27895316E-07
 -5.95348027E-12  9.92987212E-01  4.96206996E-02 -7.49539664E-04 -5.74036204E-08
  2.92493282E-07 -1.64269522E-02  1.02115988E-03  3.16948932E-07 -5.42869671E-07
  7.23234945E-03 -3.80863028E-03 -2.45848178E-07 -7.23105680E-07 -9.28038173E-03
 -8.87220998E-03 -8.87247653E-03  1.29462500E-08 -1.49774815E-07 -7.44458901E-08
 -9.55887657E-06 -5.30042441E-05 -3.20226051E-06  5.96889248E-09 -1.12355816E-08
 -2.60659643E-05  1.93255637E-04 -3.40698082E-08  1.30372142E-07  3.35763140E-03
  1.89841280E-03  1.66658564E-07  5.16487100E-07 -6.45225596E-03 -2.08712138E-03
 -9.91359786E-08 -8.76172119E-07 -1.40526275E-04 -1.84900289E-04 -1.84857644E-04
  2.21984213E-08 -1.02541639E-08  1.40738385E-08 -1.65093170E-04  3.00806871E-03
 -1.01171867E-03  2.42736408E-05  1.81431685E-07 -9.66887779E-05 -1.65327737E-04
  3.00903903E-03 -1.01242921E-03  2.43343983E-05  8.36888468E-05  4.86768011E-05
 -1.65400606E-04  3.00972432E-03 -1.01344390E-03  2.43574567E-05 -8.38602994E-05
  4.82131614E-05 -1.90986244E-05 -3.02330653E-05  3.80736024E-05  1.57470870E-08
 -1.82701337E-07 -3.57977606E-04 -6.77240252E-04 -3.14041907E-08  2.66230864E-07
  2.26435181E-03  3.71525021E-05 -2.00170222E-07  1.73180562E-06 -6.92940670E-05
 -2.72992380E-05 -2.73307211E-05  5.69486432E-09 -8.59475968E-08 -1.93086761E-09
 -2.58152497E-05 -9.01936828E-05 -1.51553634E-05 -1.19568104E-09  5.17961532E-08
  1.00861911E-03 -2.93947043E-04  1.49477833E-08 -6.10028504E-07 -1.06863570E-03
  3.19802211E-05  1.27712090E-07 -5.31562522E-07 -1.83616009E-05 -6.52338092E-05
 -6.52306657E-05 -6.14246611E-09  1.00190322E-07 -6.07164523E-11 -1.22240408E-05
 -5.83562045E-05 -6.46060204E-05 -1.15163324E-09 -4.63593941E-09  4.97149793E-04
  3.29184691E-04 -2.77940931E-08  3.88984148E-07 -3.12898024E-04  1.35364633E-03
  7.91128877E-08  4.49833974E-07 -4.42874741E-05 -2.33492990E-05 -2.33883745E-05
  1.49245739E-09 -1.40080206E-09 -3.17765841E-09  1.31271047E-07  6.02068106E-06
  2.93836312E-06 -9.30068093E-10  3.71893533E-09  1.38728481E-05 -2.09335555E-05
  5.65483664E-09 -2.18759473E-08 -1.58095167E-04  1.52334505E-04 -1.80405103E-08
  6.13819588E-08  2.08967713E-03  5.16893260E-04  1.20741822E-08  1.32521678E-07
  2.82653931E-05  2.03843297E-06  2.03054458E-06 -2.56814397E-09  1.01834566E-08
 -1.84091157E-09 -1.60046021E-05 -4.48693586E-04 -3.45121515E-04 -3.43626823E-05
  4.94599033E-08 -2.06317581E-05 -1.58963651E-05 -4.49268824E-04 -3.43817845E-04
 -3.44415716E-05  1.79238558E-05  1.03861202E-05 -1.58704236E-05 -4.49350520E-04
 -3.43577796E-04 -3.44571590E-05 -1.79753671E-05  1.03078522E-05  9.92847262E-01
  4.92445434E-02  1.87509558E-03 -6.13198414E-08  1.74325461E-06 -1.13695724E-02
 -1.20235303E-03  4.88111750E-08 -1.41458780E-06 -4.68710955E-03 -1.72474478E-03
  1.01184756E-07 -2.23397406E-06 -8.47274415E-03 -9.68556890E-03 -9.68555957E-03
 -4.46831070E-08  1.24427752E-06  4.39231616E-10 -4.97241383E-04 -9.80350573E-07
  4.40474197E-04 -1.32383109E-08  3.76635574E-07 -4.89387786E-04  2.42803438E-04
 -9.86381611E-09  3.41748320E-07  8.87103221E-03 -2.94147987E-03  6.79176435E-08
 -2.35042152E-06 -2.70666768E-04  1.42308280E-04  1.42308009E-04  1.58538024E-08
 -4.52872310E-07  4.92421765E-11 -1.11716815E-04  1.25452710E-04  3.79654652E-04
  1.16297660E-08  6.82626849E-08  3.03883033E-03 -1.65298617E-03  1.59056320E-07
  5.52500054E-08 -3.70451254E-02  3.01983296E-02  2.64687080E-07  5.45499748E-06
 -7.75332800E-04 -1.30345330E-04 -1.30330524E-04 -1.59744971E-08 -2.35244197E-07
  4.16264014E-08 -2.84605757E-01  1.02273985E+00  5.05180013E-03  2.94328533E-07
  1.78860881E-06  7.59941434E-02  6.35026742E-04  1.37130893E-08  1.82370432E-07
 -2.63329414E-02 -1.84586433E-03 -7.58286436E-08 -5.47706784E-07  5.79575041E-02
  1.63419540E-02  4.02171837E-07  7.55293060E-06 -1.51921489E-02 -1.55865645E-02
 -1.55865799E-02  5.77838675E-09  1.95559611E-07 -8.97808267E-10 -4.34495234E-05
 -6.67738255E-04  6.38523918E-04 -7.12342463E-05 -4.29257183E-08  1.52867683E-05
 -4.33036216E-05 -6.69070586E-04  6.40323075E-04 -7.14479171E-05 -1.31121801E-05
 -7.68502345E-06 -4.32262585E-05 -6.68796847E-04  6.39595653E-04 -7.16071376E-05
  1.31649145E-05 -7.64347949E-06  9.93172316E-06  4.60956098E-05  4.28874333E-05
 -1.52693600E-08  3.79519435E-07  5.22683144E-04  6.29513567E-04  4.03808941E-08
 -7.10127856E-07 -1.31642525E-02  7.97190874E-03 -1.53329340E-07 -1.15121694E-05
  7.28799054E-05 -1.51934875E-06 -1.51410757E-06 -4.86140693E-10  1.31329335E-07
  2.96821724E-10  1.12866480E-05  6.02340130E-05 -1.70442224E-05  3.37893314E-09
  2.08127349E-07 -8.21541084E-04  5.87486110E-04 -4.15415290E-08 -4.33137498E-07
  1.62711801E-04 -2.27999314E-03  5.61380615E-08  7.05927005E-06 -4.45661202E-05
  2.97945100E-05  2.97939583E-05  7.04302016E-09 -1.78845770E-07 -2.32636938E-10
  7.90576155E-05  1.63936953E-03  4.43378028E-04  3.34456218E-09  3.30555427E-07
 -9.08099021E-04  1.33931271E-03  4.54266708E-07 -1.74349866E-06  4.77046243E-02
 -4.65498500E-02 -8.51944668E-07 -5.97842874E-06 -1.96044705E-03  2.22184003E-04
  2.22580095E-04 -9.15373544E-08 -8.36856386E-07  8.37305136E-08  1.48913450E-03
 -5.65653312E-03  9.90327533E-01  5.38508535E-05  3.10235562E-04 -3.86158948E-04
  3.14755430E-02  1.63890699E-06  9.98900929E-06  4.75883474E-03 -1.29160184E-02
 -6.36567402E-07 -3.93857323E-06 -6.57221382E-02 -1.27230787E-02 -3.39903814E-07
 -8.76698173E-06  7.77807379E-04 -4.49112954E-04 -4.49084993E-04  2.01924352E-08
  4.95854032E-07  3.47951810E-09 -1.37251478E-04  1.36694495E-03 -4.83921999E-03
 -3.05552325E-04  4.12354188E-08 -2.90592808E-05 -1.36819319E-04  1.36894307E-03
 -4.83890423E-03 -3.05711389E-04  2.48411242E-05  1.44706855E-05 -1.36492831E-04
  1.36941755E-03 -4.83997564E-03 -3.05930187E-04 -2.49351780E-05  1.43421679E-05
 -2.11920376E-05 -1.40122161E-04 -8.80614557E-05  1.46848163E-08 -5.16029014E-07
  1.43743031E-03  7.37066506E-04 -8.97351346E-08  2.39785563E-06  3.07826925E-02
 -1.41090758E-02  2.01773131E-07  2.16486260E-05  9.19257049E-05 -3.27021876E-05
 -3.27041315E-05 -7.89555449E-09  3.67438152E-08 -7.17987308E-10 -2.87817980E-05
 -9.91169329E-05  3.75379222E-05 -5.40060226E-09 -3.37592630E-07  2.19515741E-04
  2.77323802E-04  2.45872298E-08  1.91857087E-06 -6.48144359E-03  5.29779906E-03
 -1.47859271E-07 -1.12974640E-05 -1.17921281E-04 -4.45759913E-05 -4.45730902E-05
 -1.41773539E-09  6.41137146E-08 -1.03324658E-11  4.97760244E-08  2.81591144E-07
  1.98971227E-07 -2.51966393E-05 -7.84588994E-05 -1.73475310E-06 -1.11246907E-06
  9.92363521E-05  3.09233138E-04  5.17085212E-06 -1.63045526E-05  1.47416722E-04
  4.61613952E-04 -4.31746547E-09 -7.89500123E-05  7.89977560E-05  4.59080244E-05
  1.42930066E-04 -2.99514498E-05  5.83894850E-08 -2.58274445E-07 -3.12065851E-04
  3.02864392E-01  9.43426559E-01 -4.95790178E-08 -9.16978611E-06  9.04253185E-03
  2.81677273E-02  1.05369282E-06  3.06221627E-06 -3.55429842E-03 -1.10721539E-02
 -1.90136041E-05 -6.10702728E-06  1.57668635E-03  4.91230592E-03 -2.85493327E-07
  4.72963658E-06 -4.63805373E-06  1.01424560E-04  3.15946046E-04  1.86328477E-06
  5.69414055E-05 -5.31761011E-04  4.43791656E-03  2.53796758E-04 -7.80601932E-06
 -4.55640669E-05 -4.42708563E-05  4.17761413E-04 -3.45972825E-03 -1.98037128E-04
 -2.23187907E-05 -3.29212097E-05 -1.24013479E-05  1.18635606E-04 -9.77110521E-04
 -5.57995258E-05 -3.68843319E-06 -2.67954297E-05 -5.34957817E-09  3.89322024E-09
 -8.54735127E-08  1.03028214E-05  3.21429041E-05 -4.27434994E-06 -3.20727228E-06
 -3.99636072E-05 -1.24891309E-04  9.67306806E-06 -7.13991095E-06  2.98018145E-04
  9.31928334E-04 -2.43736181E-07  3.47616706E-06 -3.35970768E-06 -2.38127856E-06
 -7.46143052E-06  1.29484809E-06 -1.10519413E-07 -4.33818860E-07  3.40052378E-08
 -5.27991904E-06 -1.65665562E-05  5.12776281E-06 -2.59126028E-06  3.26667999E-05
  1.02426149E-04  1.22989340E-07  2.49074463E-06 -1.35494772E-04 -4.24506943E-04
  5.45517052E-08  1.01220420E-06 -1.60528904E-06 -2.74766448E-06 -8.58314653E-06
  4.96979550E-07 -4.98575170E-08 -3.12687044E-07 -7.06051307E-08 -7.85369465E-05
  2.52030843E-05  1.76749875E-06  3.05519506E-07  3.08362575E-04 -9.90277459E-05
 -2.78098591E-06  8.46891662E-06  4.60133781E-04 -1.48487628E-04 -6.77014040E-09
  2.60205614E-05 -2.60096742E-05  1.43016783E-04 -4.58882729E-05 -9.13373156E-05
 -1.68669832E-08  8.95433689E-08  4.36301895E-05  9.43426621E-01 -3.02864383E-01
  3.58821095E-08  1.17071800E-06  2.81676552E-02 -9.04258608E-03 -7.80070129E-07
 -4.09676330E-07 -1.10717399E-02  3.55446536E-03  9.64271736E-06  2.62196191E-06
  4.91161689E-03 -1.57704656E-03  2.30457856E-08 -1.50536241E-06  1.55220339E-06
  3.15981227E-04 -1.01440500E-04  5.63187578E-06 -1.83907330E-05  1.71603073E-04
 -1.43658472E-03 -8.21199719E-05 -2.44835672E-05  1.46679521E-05 -3.99356845E-05
  3.75197780E-04 -3.11983220E-03 -1.78795584E-04 -3.74471377E-05  2.16701358E-07
  5.80632217E-05 -5.50208118E-04  4.55609905E-03  2.61105738E-04 -4.36251675E-05
  1.89861887E-05  6.72817861E-09  1.66279073E-08  2.67736213E-08  3.21034443E-05