 Entering Gaussian System, Link 0=g16
 Initial command:
 /usr/local/g16_AVX//g16/l1.exe "/scratch/alanqf/R13_TS_irc-54218.ixchel.mda.cinvestav.mx/Gau-16156.inp" -scrdir="/scratch/alanqf/R13_TS_irc-54218.ixchel.mda.cinvestav.mx/"
 Entering Link 1 = /usr/local/g16_AVX//g16/l1.exe PID=     16157.
  
 Copyright (c) 1988-2017, Gaussian, Inc.  All Rights Reserved.
  
 This is part of the Gaussian(R) 16 program.  It is based on
 the Gaussian(R) 09 system (copyright 2009, Gaussian, Inc.),
 the Gaussian(R) 03 system (copyright 2003, Gaussian, Inc.),
 the Gaussian(R) 98 system (copyright 1998, Gaussian, Inc.),
 the Gaussian(R) 94 system (copyright 1995, Gaussian, Inc.),
 the Gaussian 92(TM) system (copyright 1992, Gaussian, Inc.),
 the Gaussian 90(TM) system (copyright 1990, Gaussian, Inc.),
 the Gaussian 88(TM) system (copyright 1988, Gaussian, Inc.),
 the Gaussian 86(TM) system (copyright 1986, Carnegie Mellon
 University), and the Gaussian 82(TM) system (copyright 1983,
 Carnegie Mellon University). Gaussian is a federally registered
 trademark of Gaussian, Inc.
  
 This software contains proprietary and confidential information,
 including trade secrets, belonging to Gaussian, Inc.
  
 This software is provided under written license and may be
 used, copied, transmitted, or stored only in accord with that
 written license.
  
 The following legend is applicable only to US Government
 contracts under FAR:
  
                    RESTRICTED RIGHTS LEGEND
  
 Use, reproduction and disclosure by the US Government is
 subject to restrictions as set forth in subparagraphs (a)
 and (c) of the Commercial Computer Software - Restricted
 Rights clause in FAR 52.227-19.
  
 Gaussian, Inc.
 340 Quinnipiac St., Bldg. 40, Wallingford CT 06492
  
  
 ---------------------------------------------------------------
 Warning -- This program may not be used in any manner that
 competes with the business of Gaussian, Inc. or will provide
 assistance to any competitor of Gaussian, Inc.  The licensee
 of this program is prohibited from giving any competitor of
 Gaussian, Inc. access to this program.  By using this program,
 the user acknowledges that Gaussian, Inc. is engaged in the
 business of creating and licensing software in the field of
 computational chemistry and represents and warrants to the
 licensee that it is not a competitor of Gaussian, Inc. and that
 it will not use this program in any manner prohibited above.
 ---------------------------------------------------------------
  

 Cite this work as:
 Gaussian 16, Revision B.01,
 M. J. Frisch, G. W. Trucks, H. B. Schlegel, G. E. Scuseria, 
 M. A. Robb, J. R. Cheeseman, G. Scalmani, V. Barone, 
 G. A. Petersson, H. Nakatsuji, X. Li, M. Caricato, A. V. Marenich, 
 J. Bloino, B. G. Janesko, R. Gomperts, B. Mennucci, H. P. Hratchian, 
 J. V. Ortiz, A. F. Izmaylov, J. L. Sonnenberg, D. Williams-Young, 
 F. Ding, F. Lipparini, F. Egidi, J. Goings, B. Peng, A. Petrone, 
 T. Henderson, D. Ranasinghe, V. G. Zakrzewski, J. Gao, N. Rega, 
 G. Zheng, W. Liang, M. Hada, M. Ehara, K. Toyota, R. Fukuda, 
 J. Hasegawa, M. Ishida, T. Nakajima, Y. Honda, O. Kitao, H. Nakai, 
 T. Vreven, K. Throssell, J. A. Montgomery, Jr., J. E. Peralta, 
 F. Ogliaro, M. J. Bearpark, J. J. Heyd, E. N. Brothers, K. N. Kudin, 
 V. N. Staroverov, T. A. Keith, R. Kobayashi, J. Normand, 
 K. Raghavachari, A. P. Rendell, J. C. Burant, S. S. Iyengar, 
 J. Tomasi, M. Cossi, J. M. Millam, M. Klene, C. Adamo, R. Cammi, 
 J. W. Ochterski, R. L. Martin, K. Morokuma, O. Farkas, 
 J. B. Foresman, and D. J. Fox, Gaussian, Inc., Wallingford CT, 2016.
 
 ******************************************
 Gaussian 16:  ES64L-G16RevB.01 20-Dec-2017
                12-Oct-2024 
 ******************************************
 %NProcShared=52
 Will use up to   52 processors via shared memory.
 %MEM=30GB
 ----------------------------------------------------------------------
 #b3lyp 6-31++g(d,p) IRC=(Calcfc, MassWeighted, MaxPoint=100, stepsize=
 -10, LQA, verytight) int=ultrafine scrf=(pcm,solvent=water)
 ----------------------------------------------------------------------
 1/7=1,10=4,18=10,26=6,38=1,39=-10,42=100,44=3,45=2,172=1/1,23;
 2/12=2,17=6,18=5,29=1,40=1/2;
 3/5=1,6=6,7=1111,11=2,25=1,30=1,70=2201,71=2,72=1,74=-5,75=-5,140=1/1,2,3;
 4//1;
 5/5=2,38=5,53=1/2;
 8/6=4,10=90,11=11/1;
 11/6=1,8=1,9=11,15=111,16=1/1,2,10;
 10/6=1,13=1/2;
 6/7=2,8=2,9=2,10=2,28=1/1;
 7/10=1,18=20,25=1/1,2,3,16;
 1/7=1,10=4,18=10,26=6,39=-10,42=100,44=3,45=2/23(2);
 2/29=1/2;
 99/5=20/99;
 2/29=1/2;
 3/5=1,6=6,7=1111,11=2,25=1,30=1,70=2205,71=2,72=1,74=-5,75=-5,140=1/1,2,3;
 4/5=5,16=3,69=1/1;
 5/5=2,38=5,53=1/2;
 8/6=4,10=90,11=11/1;
 11/6=1,8=1,9=11,15=111,16=1/1,2,10;
 10/6=1,13=1/2;
 7/10=1,18=20,25=1/1,2,3,16;
 1/7=1,18=10,26=6,39=-10,42=100,44=3,45=2/23(-8);
 2/29=1/2;
 6/7=2,8=2,9=2,10=2,19=2,28=1/1;
 99/5=20,9=1/99;
 -------
 comment
 -------
 Symbolic Z-matrix:
 Charge = -1 Multiplicity = 1
 C                    -0.01929   0.00001  -0.00015 
 Cl                   -2.2335   0.         0.00007 
 H                     0.07095   0.00251  -1.07234 
 H                     0.07106   0.92733   0.53807 
 H                     0.07107  -0.92983   0.53373 
 C                     2.2795    0.00001  -0.00023 
 N                     3.45646  -0.00001   0.00023 
 
 IRC-IRC-IRC-IRC-IRC-IRC-IRC-IRC-IRC-IRC-IRC-IRC-IRC-IRC-IRC-IRC-IRC-IRC
 ------------------------------------------------------------------------
 INPUT DATA FOR L123
 ------------------------------------------------------------------------
 GENERAL PARAMETERS:
 Follow reaction path in both directions.
 Maximum points per path      = 100
 Step size                    =   0.100 sqrt(amu)*bohr
 Integration scheme           = LQA                                 
 Initial Hessian              = CalcFC
 Hessian evaluation           = All updating
 Hessian updating method      = Bofill                              
 ------------------------------------------------------------------------
 IRC-IRC-IRC-IRC-IRC-IRC-IRC-IRC-IRC-IRC-IRC-IRC-IRC-IRC-IRC-IRC-IRC-IRC
                          Input orientation:                          
 ---------------------------------------------------------------------
 Center     Atomic      Atomic             Coordinates (Angstroms)
 Number     Number       Type             X           Y           Z
 ---------------------------------------------------------------------
      1          6           0       -0.019292    0.000005   -0.000145
      2         17           0       -2.233500   -0.000002    0.000068
      3          1           0        0.070945    0.002510   -1.072336
      4          1           0        0.071059    0.927333    0.538069
      5          1           0        0.071067   -0.929825    0.533732
      6          6           0        2.279496    0.000009   -0.000230
      7          7           0        3.456458   -0.000008    0.000232
 ---------------------------------------------------------------------
                    Distance matrix (angstroms):
                    1          2          3          4          5
     1  C    0.000000
     2  Cl   2.214208   0.000000
     3  H    1.075984   2.541756   0.000000
     4  H    1.075999   2.541729   1.857068   0.000000
     5  H    1.075999   2.541731   1.857068   1.857163   0.000000
     6  C    2.298788   4.512996   2.455018   2.454972   2.454967
     7  N    3.475750   5.689958   3.551353   3.551078   3.551064
                    6          7
     6  C    0.000000
     7  N    1.176962   0.000000
 Symmetry turned off by external request.
 This structure is nearly, but not quite of a higher symmetry.
 Consider Symm=Loose if the higher symmetry is desired.
 Stoichiometry    C2H3ClN(1-)
 Framework group  C1[X(C2H3ClN)]
 Deg. of freedom    15
 Full point group                 C1      NOp   1
 Rotational constants (GHZ):         145.3989645           1.2454624           1.2454617
 Standard basis: 6-31++G(d,p) (6D, 7F)
    98 basis functions,   176 primitive gaussians,    98 cartesian basis functions
    20 alpha electrons       20 beta electrons
       nuclear repulsion energy       108.3043270847 Hartrees.
 NAtoms=    7 NActive=    7 NUniq=    7 SFac= 1.00D+00 NAtFMM=   60 NAOKFM=F Big=F
 Integral buffers will be    131072 words long.
 Raffenetti 2 integral format.
 Two-electron integral symmetry is turned off.
 Force inversion solution in PCM.
 ------------------------------------------------------------------------------
 Polarizable Continuum Model (PCM)
 =================================
 Model                : PCM.
 Atomic radii         : UFF (Universal Force Field).
 Polarization charges : Total charges.
 Charge compensation  : None.
 Solution method      : Matrix inversion.
 Cavity type          : Scaled VdW (van der Waals Surface) (Alpha=1.100).
 Cavity algorithm     : GePol (No added spheres)
                        Default sphere list used, NSphG=    7.
                        Lebedev-Laikov grids with approx.  5.0 points / Ang**2.
                        Smoothing algorithm: York/Karplus (Gamma=1.0000).
                        Polarization charges: spherical gaussians, with
                                              point-specific exponents (IZeta= 3).
                        Self-potential: point-specific (ISelfS= 7).
                        Self-field    : sphere-specific E.n sum rule (ISelfD= 2).
 1st derivatives      : Analytical E(r).r(x)/FMM algorithm (CHGder, D1EAlg=3).
                        Cavity 1st derivative terms included.
 2nd derivatives      : Analytical E(r).r(xy)/FMM algorithm (CHGder, D2EAlg=3).
                        Cavity 2nd derivative terms included.
 Solvent              : Water, Eps=  78.355300 Eps(inf)=   1.777849
 ------------------------------------------------------------------------------
 Spheres list:
 ISph  on   Nord     Re0    Alpha      Xe            Ye            Ze
    1   C      1    1.9255  1.100     -0.019292      0.000005     -0.000145
    2  Cl      2    1.9735  1.100     -2.233500     -0.000002      0.000068
    3   H      3    1.4430  1.100      0.070945      0.002510     -1.072336
    4   H      4    1.4430  1.100      0.071059      0.927333      0.538069
    5   H      5    1.4430  1.100      0.071067     -0.929825      0.533732
    6   C      6    1.9255  1.100      2.279496      0.000009     -0.000230
    7   N      7    1.8300  1.100      3.456458     -0.000008      0.000232
 ------------------------------------------------------------------------------
 One-electron integrals computed using PRISM.
 NBasis=    98 RedAO= T EigKep=  1.10D-04  NBF=    98
 NBsUse=    98 1.00D-06 EigRej= -1.00D+00 NBFU=    98
 ExpMin= 3.60D-02 ExpMax= 2.52D+04 ExpMxC= 3.78D+03 IAcc=3 IRadAn=         5 AccDes= 0.00D+00
 Harris functional with IExCor=  402 and IRadAn=       5 diagonalized for initial guess.
 HarFok:  IExCor=  402 AccDes= 0.00D+00 IRadAn=         5 IDoV= 1 UseB2=F ITyADJ=14
 ICtDFT=  3500011 ScaDFX=  1.000000  1.000000  1.000000  1.000000
 FoFCou: FMM=F IPFlag=           0 FMFlag=      100000 FMFlg1=           0
         NFxFlg=           0 DoJE=T BraDBF=F KetDBF=T FulRan=T
         wScrn=  0.000000 ICntrl=       500 IOpCl=  0 I1Cent=   200000004 NGrid=           0
         NMat0=    1 NMatS0=      1 NMatT0=    0 NMatD0=    1 NMtDS0=    0 NMtDT0=    0
 Symmetry not used in FoFCou.
 Keep R1 ints in memory in canonical form, NReq=59736751.
 Requested convergence on RMS density matrix=1.00D-08 within 128 cycles.
 Requested convergence on MAX density matrix=1.00D-06.
 Requested convergence on             energy=1.00D-06.
 No special actions if energy rises.
 Inv3:  Mode=1 IEnd=     2312652.
 Iteration    1 A*A^-1 deviation from unit magnitude is 2.89D-15 for    874.
 Iteration    1 A*A^-1 deviation from orthogonality  is 1.17D-15 for    599     76.
 Iteration    1 A^-1*A deviation from unit magnitude is 2.89D-15 for    874.
 Iteration    1 A^-1*A deviation from orthogonality  is 1.33D-15 for    808    614.
 Error on total polarization charges =  0.02780
 SCF Done:  E(RB3LYP) =  -593.070161102     A.U. after   12 cycles
            NFock= 12  Conv=0.25D-08     -V/T= 2.0048
 DoSCS=F DFT=T ScalE2(SS,OS)=  1.000000  1.000000
 Range of M.O.s used for correlation:     1    98
 NBasis=    98 NAE=    20 NBE=    20 NFC=     0 NFV=     0
 NROrb=     98 NOA=    20 NOB=    20 NVA=    78 NVB=    78

 **** Warning!!: The largest alpha MO coefficient is  0.41557793D+02

 Symmetrizing basis deriv contribution to polar:
 IMax=3 JMax=2 DiffMx= 0.00D+00
 G2DrvN: will do     8 centers at a time, making    1 passes.
 Calling FoFCou, ICntrl=  3107 FMM=F I1Cent=   0 AccDes= 0.00D+00.
 NEqPCM:  Using equilibrium solvation (IEInf=0, Eps=  78.3553, EpsInf=   1.7778)
 G2PCM: DoFxE=T DoFxN=T DoGrad=T DoDP/DQ/DG/TGxP=FFFF NFrqRd=   0 IEInf=0 SqF1=F DoCFld=F IF1Alg=4.
 End of G2Drv F.D. properties file   721 does not exist.
 End of G2Drv F.D. properties file   722 does not exist.
 End of G2Drv F.D. properties file   788 does not exist.
          IDoAtm=1111111
 NEqPCM:  Using equilibrium solvation (IEInf=0, Eps=  78.3553, EpsInf=   1.7778)
          Differentiating once with respect to nuclear coordinates.
 Keep R1 ints in memory in canonical form, NReq=59560901.
          There are    24 degrees of freedom in the 1st order CPHF.  IDoFFX=6 NUNeed=     0.
     18 vectors produced by pass  0 Test12= 6.50D-15 4.17D-09 XBig12= 1.50D-01 2.89D-01.
 AX will form    18 AO Fock derivatives at one time.
     18 vectors produced by pass  1 Test12= 6.50D-15 4.17D-09 XBig12= 1.37D-02 3.03D-02.
     18 vectors produced by pass  2 Test12= 6.50D-15 4.17D-09 XBig12= 1.20D-03 9.11D-03.
     18 vectors produced by pass  3 Test12= 6.50D-15 4.17D-09 XBig12= 2.71D-05 1.18D-03.
     18 vectors produced by pass  4 Test12= 6.50D-15 4.17D-09 XBig12= 1.00D-07 9.96D-05.
     15 vectors produced by pass  5 Test12= 6.50D-15 4.17D-09 XBig12= 2.30D-10 5.29D-06.
      7 vectors produced by pass  6 Test12= 6.50D-15 4.17D-09 XBig12= 3.20D-13 1.34D-07.
      1 vectors produced by pass  7 Test12= 6.50D-15 4.17D-09 XBig12= 6.83D-16 5.96D-09.
 InvSVY:  IOpt=1 It=  1 EMax= 1.78D-15
 Solved reduced A of dimension   113 with    18 vectors.
 End of Minotr F.D. properties file   721 does not exist.
 End of Minotr F.D. properties file   722 does not exist.
 End of Minotr F.D. properties file   788 does not exist.

 **********************************************************************

            Population analysis using the SCF Density.

 **********************************************************************

 Alpha  occ. eigenvalues -- -101.48818 -14.29536 -10.25247 -10.16753  -9.40287
 Alpha  occ. eigenvalues --   -7.16362  -7.15893  -7.15893  -0.85201  -0.76672
 Alpha  occ. eigenvalues --   -0.68488  -0.44556  -0.44555  -0.39446  -0.33472
 Alpha  occ. eigenvalues --   -0.29951  -0.29951  -0.27530  -0.27529  -0.25472
 Alpha virt. eigenvalues --   -0.02348   0.00175   0.03139   0.03474   0.03474
 Alpha virt. eigenvalues --    0.06272   0.06273   0.06574   0.09406   0.09406
 Alpha virt. eigenvalues --    0.10886   0.10887   0.11662   0.13057   0.13057
 Alpha virt. eigenvalues --    0.13997   0.17221   0.21464   0.21464   0.22948
 Alpha virt. eigenvalues --    0.22948   0.23353   0.25233   0.31920   0.33969
 Alpha virt. eigenvalues --    0.59428   0.63518   0.63570   0.63572   0.66607
 Alpha virt. eigenvalues --    0.66608   0.71480   0.71481   0.75386   0.81605
 Alpha virt. eigenvalues --    0.84177   0.90799   0.90799   0.94361   0.94361
 Alpha virt. eigenvalues --    0.95916   0.95917   0.97739   1.00947   1.00948
 Alpha virt. eigenvalues --    1.10599   1.15684   1.25874   1.37401   1.46552
 Alpha virt. eigenvalues --    1.46553   1.57800   1.57800   1.59972   1.59972
 Alpha virt. eigenvalues --    1.67325   1.98889   1.99429   1.99438   2.00101
 Alpha virt. eigenvalues --    2.00103   2.03540   2.39167   2.52315   2.52320
 Alpha virt. eigenvalues --    2.63453   2.63453   2.68524   2.75347   2.75356
 Alpha virt. eigenvalues --    3.08500   3.32674   3.45111   3.45119   4.03017
 Alpha virt. eigenvalues --    4.29858   4.35640   4.45740
          Condensed to atoms (all electrons):
               1          2          3          4          5          6
     1  C    5.360849  -0.097786   0.427338   0.427331   0.427330  -0.217707
     2  Cl  -0.097786  17.718503  -0.039441  -0.039424  -0.039424   0.071146
     3  H    0.427338  -0.039441   0.476258  -0.018331  -0.018331  -0.056647
     4  H    0.427331  -0.039424  -0.018331   0.476202  -0.018319  -0.056617
     5  H    0.427330  -0.039424  -0.018331  -0.018319   0.476203  -0.056616
     6  C   -0.217707   0.071146  -0.056647  -0.056617  -0.056616   5.795499
     7  N   -0.047288  -0.000635  -0.002684  -0.002689  -0.002689   0.677736
               7
     1  C   -0.047288
     2  Cl  -0.000635
     3  H   -0.002684
     4  H   -0.002689
     5  H   -0.002689
     6  C    0.677736
     7  N    7.063977
 Mulliken charges:
               1
     1  C   -0.280067
     2  Cl  -0.572940
     3  H    0.231837
     4  H    0.231847
     5  H    0.231845
     6  C   -0.156794
     7  N   -0.685728
 Sum of Mulliken charges =  -1.00000
 Mulliken charges with hydrogens summed into heavy atoms:
               1
     1  C    0.415462
     2  Cl  -0.572940
     6  C   -0.156794
     7  N   -0.685728
 APT charges:
               1
     1  C   -0.692476
     2  Cl  -0.674032
     3  H    0.434806
     4  H    0.434778
     5  H    0.434775
     6  C   -1.516290
     7  N    0.578438
 Sum of APT charges =  -1.00000
 APT charges with hydrogens summed into heavy atoms:
               1
     1  C    0.611884
     2  Cl  -0.674032
     6  C   -1.516290
     7  N    0.578438
 Electronic spatial extent (au):  <R**2>=            844.1493
 Charge=             -1.0000 electrons
 Dipole moment (field-independent basis, Debye):
    X=             -4.4162    Y=              0.0000    Z=             -0.0001  Tot=              4.4162
 Quadrupole moment (field-independent basis, Debye-Ang):
   XX=            -90.2722   YY=            -34.8574   ZZ=            -34.8579
   XY=              0.0000   XZ=             -0.0017   YZ=              0.0000
 Traceless Quadrupole moment (field-independent basis, Debye-Ang):
   XX=            -36.9431   YY=             18.4718   ZZ=             18.4713
   XY=              0.0000   XZ=             -0.0017   YZ=              0.0000
 Octapole moment (field-independent basis, Debye-Ang**2):
  XXX=           -120.1951  YYY=             -0.0081  ZZZ=             -1.1486  XYY=             -5.0823
  XXY=              0.0003  XXZ=             -0.0080  XZZ=             -5.0822  YZZ=              0.0081
  YYZ=              1.1496  XYZ=             -0.0000
 Hexadecapole moment (field-independent basis, Debye-Ang**3):
 XXXX=          -1768.6295 YYYY=            -52.8257 ZZZZ=            -52.8250 XXXY=              0.0012
 XXXZ=             -0.0388 YYYX=             -0.0007 YYYZ=              0.0000 ZZZX=             -0.0955
 ZZZY=             -0.0000 XXYY=           -214.3212 XXZZ=           -214.3211 YYZZ=            -17.6090
 XXYZ=              0.0000 YYXZ=              0.0949 ZZXY=              0.0006
 N-N= 1.083043270847D+02 E-N=-1.626859085884D+03  KE= 5.902309317391D+02
  Exact polarizability:   0.000   0.000   0.000   0.000   0.000   0.000
 Approx polarizability: 151.839  -0.000  46.474   0.003  -0.000  46.473
 D2PCM: PCM CHGder 2nd derivatives, FixD1E=F FixD2E=F DoIter=F DoCFld=F I1PDM=0
 Calling FoFJK, ICntrl=    100147 FMM=F ISym2X=0 I1Cent= 0 IOpClX= 0 NMat=1 NMatS=1 NMatT=0.
 -------------------------------------------------------------------
 Center     Atomic                   Forces (Hartrees/Bohr)
 Number     Number              X              Y              Z
 -------------------------------------------------------------------
      1        6          -0.000000029    0.000000806   -0.000000130
      2       17           0.000000018   -0.000000046    0.000001183
      3        1          -0.000000525   -0.000000114    0.000000240
      4        1           0.000000579   -0.000000112    0.000000148
      5        1          -0.000000113   -0.000000338    0.000000279
      6        6          -0.000001055   -0.000000283   -0.000000558
      7        7           0.000001125    0.000000087   -0.000001161
 -------------------------------------------------------------------
 Cartesian Forces:  Max     0.000001183 RMS     0.000000582
 IRC-IRC-IRC-IRC-IRC-IRC-IRC-IRC-IRC-IRC-IRC-IRC-IRC-IRC-IRC-IRC-IRC-IRC
          ******** Start new reaction path calculation ********
 Supplied step size of   0.1000 sqrt(amu)*bohr used for integration.
 Point Number:   0          Path Number:   1
 Calculating another point on the path.
 IRC-IRC-IRC-IRC-IRC-IRC-IRC-IRC-IRC-IRC-IRC-IRC-IRC-IRC-IRC-IRC-IRC-IRC
                          Input orientation:                          
 ---------------------------------------------------------------------
 Center     Atomic      Atomic             Coordinates (Angstroms)
 Number     Number       Type             X           Y           Z
 ---------------------------------------------------------------------
      1          6           0       -0.002022    0.000005   -0.000149
      2         17           0       -2.200163   -0.000002    0.000059
      3          1           0        0.101070    0.002508   -1.071432
      4          1           0        0.101202    0.926547    0.537606
      5          1           0        0.101210   -0.929037    0.533273
      6          6           0        2.314138    0.000009   -0.000238
      7          7           0        3.491085   -0.000008    0.000224
 ---------------------------------------------------------------------
                    Distance matrix (angstroms):
                    1          2          3          4          5
     1  C    0.000000
     2  Cl   2.198140   0.000000
     3  H    1.076235   2.538459   0.000000
     4  H    1.076251   2.538451   1.855493   0.000000
     5  H    1.076250   2.538452   1.855493   1.855589   0.000000
     6  C    2.316160   4.514300   2.458685   2.458624   2.458619
     7  N    3.493107   5.691247   3.555369   3.555079   3.555065
                    6          7
     6  C    0.000000
     7  N    1.176947   0.000000
 Symmetry turned off by external request.
 Stoichiometry    C2H3ClN(1-)
 Framework group  C1[X(C2H3ClN)]
 Deg. of freedom    15
 Full point group                 C1      NOp   1
 Rotational constants (GHZ):         145.6458784           1.2448748           1.2448740
 Standard basis: 6-31++G(d,p) (6D, 7F)
    98 basis functions,   176 primitive gaussians,    98 cartesian basis functions
    20 alpha electrons       20 beta electrons
       nuclear repulsion energy       108.3859700021 Hartrees.
 NAtoms=    7 NActive=    7 NUniq=    7 SFac= 1.00D+00 NAtFMM=   60 NAOKFM=F Big=F
 Integral buffers will be    131072 words long.
 Raffenetti 2 integral format.
 Two-electron integral symmetry is turned off.
 Force inversion solution in PCM.
 ------------------------------------------------------------------------------
 Polarizable Continuum Model (PCM)
 =================================
 Model                : PCM.
 Atomic radii         : UFF (Universal Force Field).
 Polarization charges : Total charges.
 Charge compensation  : None.
 Solution method      : Matrix inversion.
 Cavity type          : Scaled VdW (van der Waals Surface) (Alpha=1.100).
 Cavity algorithm     : GePol (No added spheres)
                        Default sphere list used, NSphG=    7.
                        Lebedev-Laikov grids with approx.  5.0 points / Ang**2.
                        Smoothing algorithm: York/Karplus (Gamma=1.0000).
                        Polarization charges: spherical gaussians, with
                                              point-specific exponents (IZeta= 3).
                        Self-potential: point-specific (ISelfS= 7).
                        Self-field    : sphere-specific E.n sum rule (ISelfD= 2).
 1st derivatives      : Analytical E(r).r(x)/FMM algorithm (CHGder, D1EAlg=3).
                        Cavity 1st derivative terms included.
 Solvent              : Water, Eps=  78.355300 Eps(inf)=   1.777849
 ------------------------------------------------------------------------------
 Spheres list:
 ISph  on   Nord     Re0    Alpha      Xe            Ye            Ze
    1   C      1    1.9255  1.100     -0.002022      0.000005     -0.000149
    2  Cl      2    1.9735  1.100     -2.200163     -0.000002      0.000059
    3   H      3    1.4430  1.100      0.101070      0.002508     -1.071432
    4   H      4    1.4430  1.100      0.101202      0.926547      0.537606
    5   H      5    1.4430  1.100      0.101210     -0.929037      0.533273
    6   C      6    1.9255  1.100      2.314138      0.000009     -0.000238
    7   N      7    1.8300  1.100      3.491085     -0.000008      0.000224
 ------------------------------------------------------------------------------
 One-electron integrals computed using PRISM.
 NBasis=    98 RedAO= T EigKep=  1.12D-04  NBF=    98
 NBsUse=    98 1.00D-06 EigRej= -1.00D+00 NBFU=    98
 Initial guess from the checkpoint file:  "/scratch/alanqf/R13_TS_irc-54218.ixchel.mda.cinvestav.mx/Gau-16157.chk"
 B after Tr=     0.058679   -0.000000   -0.000014
         Rot=    1.000000    0.000000   -0.000000    0.000000 Ang=  -0.00 deg.
 ExpMin= 3.60D-02 ExpMax= 2.52D+04 ExpMxC= 3.78D+03 IAcc=3 IRadAn=         5 AccDes= 0.00D+00
 Harris functional with IExCor=  402 and IRadAn=       5 diagonalized for initial guess.
 HarFok:  IExCor=  402 AccDes= 0.00D+00 IRadAn=         5 IDoV= 1 UseB2=F ITyADJ=14
 ICtDFT=  3500011 ScaDFX=  1.000000  1.000000  1.000000  1.000000
 FoFCou: FMM=F IPFlag=           0 FMFlag=      100000 FMFlg1=           0
         NFxFlg=           0 DoJE=T BraDBF=F KetDBF=T FulRan=T
         wScrn=  0.000000 ICntrl=       500 IOpCl=  0 I1Cent=   200000004 NGrid=           0
         NMat0=    1 NMatS0=      1 NMatT0=    0 NMatD0=    1 NMtDS0=    0 NMtDT0=    0
 Symmetry not used in FoFCou.
 Keep R1 ints in memory in canonical form, NReq=59736751.
 Requested convergence on RMS density matrix=1.00D-08 within 128 cycles.
 Requested convergence on MAX density matrix=1.00D-06.
 Requested convergence on             energy=1.00D-06.
 No special actions if energy rises.
 Inv3:  Mode=1 IEnd=     2312652.
 Iteration    1 A*A^-1 deviation from unit magnitude is 4.11D-15 for    859.
 Iteration    1 A*A^-1 deviation from orthogonality  is 1.23D-15 for    875    823.
 Iteration    1 A^-1*A deviation from unit magnitude is 4.11D-15 for    859.
 Iteration    1 A^-1*A deviation from orthogonality  is 1.87D-15 for    572    121.
 Error on total polarization charges =  0.02774
 SCF Done:  E(RB3LYP) =  -593.070207872     A.U. after   10 cycles
            NFock= 10  Conv=0.30D-08     -V/T= 2.0048
 DoSCS=F DFT=T ScalE2(SS,OS)=  1.000000  1.000000
 Range of M.O.s used for correlation:     1    98
 NBasis=    98 NAE=    20 NBE=    20 NFC=     0 NFV=     0
 NROrb=     98 NOA=    20 NOB=    20 NVA=    78 NVB=    78

 **** Warning!!: The largest alpha MO coefficient is  0.41115904D+02

 Symmetrizing basis deriv contribution to polar:
 IMax=3 JMax=2 DiffMx= 0.00D+00
 D1PCM: PCM CHGder 1st derivatives, ID1Alg=3 FixD1E=F DoIter=F DoCFld=F I1PDM=0.
 Calling FoFJK, ICntrl=      2147 FMM=F ISym2X=0 I1Cent= 0 IOpClX= 0 NMat=1 NMatS=1 NMatT=0.
 -------------------------------------------------------------------
 Center     Atomic                   Forces (Hartrees/Bohr)
 Number     Number              X              Y              Z
 -------------------------------------------------------------------
      1        6          -0.002895513    0.000000824    0.000000605
      2       17           0.001389588   -0.000000027   -0.000000757
      3        1          -0.000031191   -0.000000280    0.000063210
      4        1          -0.000029636   -0.000054506   -0.000031515
      5        1          -0.000030336    0.000054219   -0.000031107
      6        6           0.000725184   -0.000000302    0.000000059
      7        7           0.000871904    0.000000071   -0.000000495
 -------------------------------------------------------------------
 Cartesian Forces:  Max     0.002895513 RMS     0.000743726
 IRC-IRC-IRC-IRC-IRC-IRC-IRC-IRC-IRC-IRC-IRC-IRC-IRC-IRC-IRC-IRC-IRC-IRC
 Pt  1 Step number   1 out of a maximum of  20
 Point Number:   1          Path Number:   1
   CHANGE IN THE REACTION COORDINATE =    0.10000
   NET REACTION COORDINATE UP TO THIS POINT =    0.10000
  # OF POINTS ALONG THE PATH =   1
  # OF STEPS =   1

 Calculating another point on the path.
 IRC-IRC-IRC-IRC-IRC-IRC-IRC-IRC-IRC-IRC-IRC-IRC-IRC-IRC-IRC-IRC-IRC-IRC
                          Input orientation:                          
 ---------------------------------------------------------------------
 Center     Atomic      Atomic             Coordinates (Angstroms)
 Number     Number       Type             X           Y           Z
 ---------------------------------------------------------------------
      1          6           0       -0.015855    0.000006   -0.000144
      2         17           0       -2.197911   -0.000002    0.000058
      3          1           0        0.099872    0.002504   -1.070406
      4          1           0        0.100046    0.925664    0.537096
      5          1           0        0.100043   -0.928151    0.532767
      6          6           0        2.317631    0.000008   -0.000238
      7          7           0        3.494576   -0.000008    0.000222
 ---------------------------------------------------------------------
                    Distance matrix (angstroms):
                    1          2          3          4          5
     1  C    0.000000
     2  Cl   2.182055   0.000000
     3  H    1.076504   2.534898   0.000000
     4  H    1.076523   2.534930   1.853723   0.000000
     5  H    1.076523   2.534922   1.853721   1.853820   0.000000
     6  C    2.333487   4.515542   2.462462   2.462367   2.462371
     7  N    3.510431   5.692487   3.559531   3.559204   3.559201
                    6          7
     6  C    0.000000
     7  N    1.176945   0.000000
 Symmetry turned off by external request.
 Stoichiometry    C2H3ClN(1-)
 Framework group  C1[X(C2H3ClN)]
 Deg. of freedom    15
 Full point group                 C1      NOp   1
 Rotational constants (GHZ):         145.9241799           1.2442975           1.2442968
 Standard basis: 6-31++G(d,p) (6D, 7F)
    98 basis functions,   176 primitive gaussians,    98 cartesian basis functions
    20 alpha electrons       20 beta electrons
       nuclear repulsion energy       108.4727143829 Hartrees.
 NAtoms=    7 NActive=    7 NUniq=    7 SFac= 1.00D+00 NAtFMM=   60 NAOKFM=F Big=F
 Integral buffers will be    131072 words long.
 Raffenetti 2 integral format.
 Two-electron integral symmetry is turned off.
 Force inversion solution in PCM.
 ------------------------------------------------------------------------------
 Polarizable Continuum Model (PCM)
 =================================
 Model                : PCM.
 Atomic radii         : UFF (Universal Force Field).
 Polarization charges : Total charges.
 Charge compensation  : None.
 Solution method      : Matrix inversion.
 Cavity type          : Scaled VdW (van der Waals Surface) (Alpha=1.100).
 Cavity algorithm     : GePol (No added spheres)
                        Default sphere list used, NSphG=    7.
                        Lebedev-Laikov grids with approx.  5.0 points / Ang**2.
                        Smoothing algorithm: York/Karplus (Gamma=1.0000).
                        Polarization charges: spherical gaussians, with
                                              point-specific exponents (IZeta= 3).
                        Self-potential: point-specific (ISelfS= 7).
                        Self-field    : sphere-specific E.n sum rule (ISelfD= 2).
 1st derivatives      : Analytical E(r).r(x)/FMM algorithm (CHGder, D1EAlg=3).
                        Cavity 1st derivative terms included.
 Solvent              : Water, Eps=  78.355300 Eps(inf)=   1.777849
 ------------------------------------------------------------------------------
 Spheres list:
 ISph  on   Nord     Re0    Alpha      Xe            Ye            Ze
    1   C      1    1.9255  1.100     -0.015855      0.000006     -0.000144
    2  Cl      2    1.9735  1.100     -2.197911     -0.000002      0.000058
    3   H      3    1.4430  1.100      0.099872      0.002504     -1.070406
    4   H      4    1.4430  1.100      0.100046      0.925664      0.537096
    5   H      5    1.4430  1.100      0.100043     -0.928151      0.532767
    6   C      6    1.9255  1.100      2.317631      0.000008     -0.000238
    7   N      7    1.8300  1.100      3.494576     -0.000008      0.000222
 ------------------------------------------------------------------------------
 One-electron integrals computed using PRISM.
 NBasis=    98 RedAO= T EigKep=  1.15D-04  NBF=    98
 NBsUse=    98 1.00D-06 EigRej= -1.00D+00 NBFU=    98
 Initial guess from the checkpoint file:  "/scratch/alanqf/R13_TS_irc-54218.ixchel.mda.cinvestav.mx/Gau-16157.chk"
 B after Tr=    -0.000138   -0.000000    0.000000
         Rot=    1.000000    0.000000   -0.000000    0.000000 Ang=   0.00 deg.
 ExpMin= 3.60D-02 ExpMax= 2.52D+04 ExpMxC= 3.78D+03 IAcc=3 IRadAn=         5 AccDes= 0.00D+00
 Harris functional with IExCor=  402 and IRadAn=       5 diagonalized for initial guess.
 HarFok:  IExCor=  402 AccDes= 0.00D+00 IRadAn=         5 IDoV= 1 UseB2=F ITyADJ=14
 ICtDFT=  3500011 ScaDFX=  1.000000  1.000000  1.000000  1.000000
 FoFCou: FMM=F IPFlag=           0 FMFlag=      100000 FMFlg1=           0
         NFxFlg=           0 DoJE=T BraDBF=F KetDBF=T FulRan=T
         wScrn=  0.000000 ICntrl=       500 IOpCl=  0 I1Cent=   200000004 NGrid=           0
         NMat0=    1 NMatS0=      1 NMatT0=    0 NMatD0=    1 NMtDS0=    0 NMtDT0=    0
 Symmetry not used in FoFCou.
 Keep R1 ints in memory in canonical form, NReq=59736751.
 Requested convergence on RMS density matrix=1.00D-08 within 128 cycles.
 Requested convergence on MAX density matrix=1.00D-06.
 Requested convergence on             energy=1.00D-06.
 No special actions if energy rises.
 Inv3:  Mode=1 IEnd=     2307387.
 Iteration    1 A*A^-1 deviation from unit magnitude is 3.22D-15 for    856.
 Iteration    1 A*A^-1 deviation from orthogonality  is 1.51D-15 for    356    224.
 Iteration    1 A^-1*A deviation from unit magnitude is 3.11D-15 for    875.
 Iteration    1 A^-1*A deviation from orthogonality  is 2.24D-15 for    869    113.
 Error on total polarization charges =  0.02768
 SCF Done:  E(RB3LYP) =  -593.070344794     A.U. after   10 cycles
            NFock= 10  Conv=0.30D-08     -V/T= 2.0048
 DoSCS=F DFT=T ScalE2(SS,OS)=  1.000000  1.000000
 Range of M.O.s used for correlation:     1    98
 NBasis=    98 NAE=    20 NBE=    20 NFC=     0 NFV=     0
 NROrb=     98 NOA=    20 NOB=    20 NVA=    78 NVB=    78

 **** Warning!!: The largest alpha MO coefficient is  0.40706131D+02

 Symmetrizing basis deriv contribution to polar:
 IMax=3 JMax=2 DiffMx= 0.00D+00
 D1PCM: PCM CHGder 1st derivatives, ID1Alg=3 FixD1E=F DoIter=F DoCFld=F I1PDM=0.
 Calling FoFJK, ICntrl=      2147 FMM=F ISym2X=0 I1Cent= 0 IOpClX= 0 NMat=1 NMatS=1 NMatT=0.
 -------------------------------------------------------------------
 Center     Atomic                   Forces (Hartrees/Bohr)
 Number     Number              X              Y              Z
 -------------------------------------------------------------------
      1        6          -0.005626689    0.000000321    0.000002107
      2       17           0.002734077    0.000000211   -0.000002126
      3        1          -0.000064805   -0.000000338    0.000123928
      4        1          -0.000064262   -0.000107470   -0.000062786
      5        1          -0.000064269    0.000107633   -0.000062145
      6        6           0.001401791   -0.000000422    0.000000869
      7        7           0.001684157    0.000000064    0.000000153
 -------------------------------------------------------------------
 Cartesian Forces:  Max     0.005626689 RMS     0.001447411
 IRC-IRC-IRC-IRC-IRC-IRC-IRC-IRC-IRC-IRC-IRC-IRC-IRC-IRC-IRC-IRC-IRC-IRC
 Pt  2 Step number   1 out of a maximum of  20
 Point Number:   2          Path Number:   1
   CHANGE IN THE REACTION COORDINATE =    0.09996
   NET REACTION COORDINATE UP TO THIS POINT =    0.19996
  # OF POINTS ALONG THE PATH =   2
  # OF STEPS =   1

 Calculating another point on the path.
 IRC-IRC-IRC-IRC-IRC-IRC-IRC-IRC-IRC-IRC-IRC-IRC-IRC-IRC-IRC-IRC-IRC-IRC
                          Input orientation:                          
 ---------------------------------------------------------------------
 Center     Atomic      Atomic             Coordinates (Angstroms)
 Number     Number       Type             X           Y           Z
 ---------------------------------------------------------------------
      1          6           0       -0.029675    0.000006   -0.000141
      2         17           0       -2.195623   -0.000002    0.000056
      3          1           0        0.098419    0.002500   -1.069223
      4          1           0        0.098613    0.924644    0.536497
      5          1           0        0.098609   -0.927127    0.532175
      6          6           0        2.321092    0.000007   -0.000236
      7          7           0        3.498052   -0.000008    0.000222
 ---------------------------------------------------------------------
                    Distance matrix (angstroms):
                    1          2          3          4          5
     1  C    0.000000
     2  Cl   2.165948   0.000000
     3  H    1.076731   2.531006   0.000000
     4  H    1.076751   2.531059   1.851671   0.000000
     5  H    1.076751   2.531050   1.851670   1.851776   0.000000
     6  C    2.350767   4.516715   2.466377   2.466262   2.466266
     7  N    3.527727   5.693675   3.563878   3.563531   3.563528
                    6          7
     6  C    0.000000
     7  N    1.176960   0.000000
 Symmetry turned off by external request.
 Stoichiometry    C2H3ClN(1-)
 Framework group  C1[X(C2H3ClN)]
 Deg. of freedom    15
 Full point group                 C1      NOp   1
 Rotational constants (GHZ):         146.2473608           1.2437328           1.2437320
 Standard basis: 6-31++G(d,p) (6D, 7F)
    98 basis functions,   176 primitive gaussians,    98 cartesian basis functions
    20 alpha electrons       20 beta electrons
       nuclear repulsion energy       108.5654390271 Hartrees.
 NAtoms=    7 NActive=    7 NUniq=    7 SFac= 1.00D+00 NAtFMM=   60 NAOKFM=F Big=F
 Integral buffers will be    131072 words long.
 Raffenetti 2 integral format.
 Two-electron integral symmetry is turned off.
 Force inversion solution in PCM.
 ------------------------------------------------------------------------------
 Polarizable Continuum Model (PCM)
 =================================
 Model                : PCM.
 Atomic radii         : UFF (Universal Force Field).
 Polarization charges : Total charges.
 Charge compensation  : None.
 Solution method      : Matrix inversion.
 Cavity type          : Scaled VdW (van der Waals Surface) (Alpha=1.100).
 Cavity algorithm     : GePol (No added spheres)
                        Default sphere list used, NSphG=    7.
                        Lebedev-Laikov grids with approx.  5.0 points / Ang**2.
                        Smoothing algorithm: York/Karplus (Gamma=1.0000).
                        Polarization charges: spherical gaussians, with
                                              point-specific exponents (IZeta= 3).
                        Self-potential: point-specific (ISelfS= 7).
                        Self-field    : sphere-specific E.n sum rule (ISelfD= 2).
 1st derivatives      : Analytical E(r).r(x)/FMM algorithm (CHGder, D1EAlg=3).
                        Cavity 1st derivative terms included.
 Solvent              : Water, Eps=  78.355300 Eps(inf)=   1.777849
 ------------------------------------------------------------------------------
 Spheres list:
 ISph  on   Nord     Re0    Alpha      Xe            Ye            Ze
    1   C      1    1.9255  1.100     -0.029675      0.000006     -0.000141
    2  Cl      2    1.9735  1.100     -2.195623     -0.000002      0.000056
    3   H      3    1.4430  1.100      0.098419      0.002500     -1.069223
    4   H      4    1.4430  1.100      0.098613      0.924644      0.536497
    5   H      5    1.4430  1.100      0.098609     -0.927127      0.532175
    6   C      6    1.9255  1.100      2.321092      0.000007     -0.000236
    7   N      7    1.8300  1.100      3.498052     -0.000008      0.000222
 ------------------------------------------------------------------------------
 One-electron integrals computed using PRISM.
 NBasis=    98 RedAO= T EigKep=  1.17D-04  NBF=    98
 NBsUse=    98 1.00D-06 EigRej= -1.00D+00 NBFU=    98
 Initial guess from the checkpoint file:  "/scratch/alanqf/R13_TS_irc-54218.ixchel.mda.cinvestav.mx/Gau-16157.chk"
 B after Tr=    -0.000158   -0.000000   -0.000000
         Rot=    1.000000    0.000000    0.000000    0.000000 Ang=   0.00 deg.
 ExpMin= 3.60D-02 ExpMax= 2.52D+04 ExpMxC= 3.78D+03 IAcc=3 IRadAn=         5 AccDes= 0.00D+00
 Harris functional with IExCor=  402 and IRadAn=       5 diagonalized for initial guess.
 HarFok:  IExCor=  402 AccDes= 0.00D+00 IRadAn=         5 IDoV= 1 UseB2=F ITyADJ=14
 ICtDFT=  3500011 ScaDFX=  1.000000  1.000000  1.000000  1.000000
 FoFCou: FMM=F IPFlag=           0 FMFlag=      100000 FMFlg1=           0
         NFxFlg=           0 DoJE=T BraDBF=F KetDBF=T FulRan=T
         wScrn=  0.000000 ICntrl=       500 IOpCl=  0 I1Cent=   200000004 NGrid=           0
         NMat0=    1 NMatS0=      1 NMatT0=    0 NMatD0=    1 NMtDS0=    0 NMtDT0=    0
 Symmetry not used in FoFCou.
 Keep R1 ints in memory in canonical form, NReq=59736751.
 Requested convergence on RMS density matrix=1.00D-08 within 128 cycles.
 Requested convergence on MAX density matrix=1.00D-06.
 Requested convergence on             energy=1.00D-06.
 No special actions if energy rises.
 Inv3:  Mode=1 IEnd=     2307387.
 Iteration    1 A*A^-1 deviation from unit magnitude is 4.77D-15 for    861.
 Iteration    1 A*A^-1 deviation from orthogonality  is 1.32D-15 for    851    772.
 Iteration    1 A^-1*A deviation from unit magnitude is 5.00D-15 for    861.
 Iteration    1 A^-1*A deviation from orthogonality  is 2.60D-15 for    545    114.
 Error on total polarization charges =  0.02763
 SCF Done:  E(RB3LYP) =  -593.070566657     A.U. after   10 cycles
            NFock= 10  Conv=0.30D-08     -V/T= 2.0048
 DoSCS=F DFT=T ScalE2(SS,OS)=  1.000000  1.000000
 Range of M.O.s used for correlation:     1    98
 NBasis=    98 NAE=    20 NBE=    20 NFC=     0 NFV=     0
 NROrb=     98 NOA=    20 NOB=    20 NVA=    78 NVB=    78

 **** Warning!!: The largest alpha MO coefficient is  0.40325657D+02

 Symmetrizing basis deriv contribution to polar:
 IMax=3 JMax=2 DiffMx= 0.00D+00
 D1PCM: PCM CHGder 1st derivatives, ID1Alg=3 FixD1E=F DoIter=F DoCFld=F I1PDM=0.
 Calling FoFJK, ICntrl=      2147 FMM=F ISym2X=0 I1Cent= 0 IOpClX= 0 NMat=1 NMatS=1 NMatT=0.
 -------------------------------------------------------------------
 Center     Atomic                   Forces (Hartrees/Bohr)
 Number     Number              X              Y              Z
 -------------------------------------------------------------------
      1        6          -0.008198422    0.000000052    0.000001387
      2       17           0.004014516    0.000000242   -0.000003589
      3        1          -0.000094237   -0.000000372    0.000139853
      4        1          -0.000092905   -0.000120674   -0.000070647
      5        1          -0.000092942    0.000121137   -0.000070014
      6        6           0.002036266   -0.000000434    0.000002289
      7        7           0.002427724    0.000000050    0.000000721
 -------------------------------------------------------------------
 Cartesian Forces:  Max     0.008198422 RMS     0.002109565
 IRC-IRC-IRC-IRC-IRC-IRC-IRC-IRC-IRC-IRC-IRC-IRC-IRC-IRC-IRC-IRC-IRC-IRC
 Pt  3 Step number   1 out of a maximum of  20
 Point Number:   3          Path Number:   1
   CHANGE IN THE REACTION COORDINATE =    0.09996
   NET REACTION COORDINATE UP TO THIS POINT =    0.29992
  # OF POINTS ALONG THE PATH =   3
  # OF STEPS =   1

 Calculating another point on the path.
 IRC-IRC-IRC-IRC-IRC-IRC-IRC-IRC-IRC-IRC-IRC-IRC-IRC-IRC-IRC-IRC-IRC-IRC
                          Input orientation:                          
 ---------------------------------------------------------------------
 Center     Atomic      Atomic             Coordinates (Angstroms)
 Number     Number       Type             X           Y           Z
 ---------------------------------------------------------------------
      1          6           0       -0.043486    0.000006   -0.000140
      2         17           0       -2.193309   -0.000002    0.000055
      3          1           0        0.096776    0.002496   -1.067945
      4          1           0        0.096997    0.923542    0.535849
      5          1           0        0.096992   -0.926021    0.531533
      6          6           0        2.324529    0.000006   -0.000232
      7          7           0        3.501514   -0.000008    0.000223
 ---------------------------------------------------------------------
                    Distance matrix (angstroms):
                    1          2          3          4          5
     1  C    0.000000
     2  Cl   2.149823   0.000000
     3  H    1.076981   2.526880   0.000000
     4  H    1.077004   2.526957   1.849454   0.000000
     5  H    1.077004   2.526947   1.849453   1.849569   0.000000
     6  C    2.368015   4.517839   2.470405   2.470264   2.470268
     7  N    3.545000   5.694823   3.568365   3.567993   3.567991
                    6          7
     6  C    0.000000
     7  N    1.176984   0.000000
 Symmetry turned off by external request.
 Stoichiometry    C2H3ClN(1-)
 Framework group  C1[X(C2H3ClN)]
 Deg. of freedom    15
 Full point group                 C1      NOp   1
 Rotational constants (GHZ):         146.5976174           1.2431735           1.2431727
 Standard basis: 6-31++G(d,p) (6D, 7F)
    98 basis functions,   176 primitive gaussians,    98 cartesian basis functions
    20 alpha electrons       20 beta electrons
       nuclear repulsion energy       108.6631545749 Hartrees.
 NAtoms=    7 NActive=    7 NUniq=    7 SFac= 1.00D+00 NAtFMM=   60 NAOKFM=F Big=F
 Integral buffers will be    131072 words long.
 Raffenetti 2 integral format.
 Two-electron integral symmetry is turned off.
 Force inversion solution in PCM.
 ------------------------------------------------------------------------------
 Polarizable Continuum Model (PCM)
 =================================
 Model                : PCM.
 Atomic radii         : UFF (Universal Force Field).
 Polarization charges : Total charges.
 Charge compensation  : None.
 Solution method      : Matrix inversion.
 Cavity type          : Scaled VdW (van der Waals Surface) (Alpha=1.100).
 Cavity algorithm     : GePol (No added spheres)
                        Default sphere list used, NSphG=    7.
                        Lebedev-Laikov grids with approx.  5.0 points / Ang**2.
                        Smoothing algorithm: York/Karplus (Gamma=1.0000).
                        Polarization charges: spherical gaussians, with
                                              point-specific exponents (IZeta= 3).
                        Self-potential: point-specific (ISelfS= 7).
                        Self-field    : sphere-specific E.n sum rule (ISelfD= 2).
 1st derivatives      : Analytical E(r).r(x)/FMM algorithm (CHGder, D1EAlg=3).
                        Cavity 1st derivative terms included.
 Solvent              : Water, Eps=  78.355300 Eps(inf)=   1.777849
 ------------------------------------------------------------------------------
 Spheres list:
 ISph  on   Nord     Re0    Alpha      Xe            Ye            Ze
    1   C      1    1.9255  1.100     -0.043486      0.000006     -0.000140
    2  Cl      2    1.9735  1.100     -2.193309     -0.000002      0.000055
    3   H      3    1.4430  1.100      0.096776      0.002496     -1.067945
    4   H      4    1.4430  1.100      0.096997      0.923542      0.535849
    5   H      5    1.4430  1.100      0.096992     -0.926021      0.531533
    6   C      6    1.9255  1.100      2.324529      0.000006     -0.000232
    7   N      7    1.8300  1.100      3.501514     -0.000008      0.000223
 ------------------------------------------------------------------------------
 One-electron integrals computed using PRISM.
 NBasis=    98 RedAO= T EigKep=  1.19D-04  NBF=    98
 NBsUse=    98 1.00D-06 EigRej= -1.00D+00 NBFU=    98
 Initial guess from the checkpoint file:  "/scratch/alanqf/R13_TS_irc-54218.ixchel.mda.cinvestav.mx/Gau-16157.chk"
 B after Tr=    -0.000172    0.000000   -0.000000
         Rot=    1.000000    0.000000    0.000000    0.000000 Ang=   0.00 deg.
 ExpMin= 3.60D-02 ExpMax= 2.52D+04 ExpMxC= 3.78D+03 IAcc=3 IRadAn=         5 AccDes= 0.00D+00
 Harris functional with IExCor=  402 and IRadAn=       5 diagonalized for initial guess.
 HarFok:  IExCor=  402 AccDes= 0.00D+00 IRadAn=         5 IDoV= 1 UseB2=F ITyADJ=14
 ICtDFT=  3500011 ScaDFX=  1.000000  1.000000  1.000000  1.000000
 FoFCou: FMM=F IPFlag=           0 FMFlag=      100000 FMFlg1=           0
         NFxFlg=           0 DoJE=T BraDBF=F KetDBF=T FulRan=T
         wScrn=  0.000000 ICntrl=       500 IOpCl=  0 I1Cent=   200000004 NGrid=           0
         NMat0=    1 NMatS0=      1 NMatT0=    0 NMatD0=    1 NMtDS0=    0 NMtDT0=    0
 Symmetry not used in FoFCou.
 Keep R1 ints in memory in canonical form, NReq=59736751.
 Requested convergence on RMS density matrix=1.00D-08 within 128 cycles.
 Requested convergence on MAX density matrix=1.00D-06.
 Requested convergence on             energy=1.00D-06.
 No special actions if energy rises.
 Inv3:  Mode=1 IEnd=     2323200.
 Iteration    1 A*A^-1 deviation from unit magnitude is 3.11D-15 for    858.
 Iteration    1 A*A^-1 deviation from orthogonality  is 1.57D-15 for    628    160.
 Iteration    1 A^-1*A deviation from unit magnitude is 2.89D-15 for    858.
 Iteration    1 A^-1*A deviation from orthogonality  is 2.68D-15 for    872    113.
 Error on total polarization charges =  0.02758
 SCF Done:  E(RB3LYP) =  -593.070867778     A.U. after   10 cycles
            NFock= 10  Conv=0.31D-08     -V/T= 2.0048
 DoSCS=F DFT=T ScalE2(SS,OS)=  1.000000  1.000000
 Range of M.O.s used for correlation:     1    98
 NBasis=    98 NAE=    20 NBE=    20 NFC=     0 NFV=     0
 NROrb=     98 NOA=    20 NOB=    20 NVA=    78 NVB=    78

 **** Warning!!: The largest alpha MO coefficient is  0.39946429D+02

 Symmetrizing basis deriv contribution to polar:
 IMax=3 JMax=2 DiffMx= 0.00D+00
 D1PCM: PCM CHGder 1st derivatives, ID1Alg=3 FixD1E=F DoIter=F DoCFld=F I1PDM=0.
 Calling FoFJK, ICntrl=      2147 FMM=F ISym2X=0 I1Cent= 0 IOpClX= 0 NMat=1 NMatS=1 NMatT=0.
 -------------------------------------------------------------------
 Center     Atomic                   Forces (Hartrees/Bohr)
 Number     Number              X              Y              Z
 -------------------------------------------------------------------
      1        6          -0.010579593    0.000000141    0.000001380
      2       17           0.005227880    0.000000261   -0.000004716
      3        1          -0.000130014   -0.000000438    0.000157912
      4        1          -0.000128277   -0.000136500   -0.000080269
      5        1          -0.000128271    0.000136950   -0.000079457
      6        6           0.002620496   -0.000000454    0.000003919
      7        7           0.003117779    0.000000042    0.000001230
 -------------------------------------------------------------------
 Cartesian Forces:  Max     0.010579593 RMS     0.002725287
 IRC-IRC-IRC-IRC-IRC-IRC-IRC-IRC-IRC-IRC-IRC-IRC-IRC-IRC-IRC-IRC-IRC-IRC
 Pt  4 Step number   1 out of a maximum of  20
 Point Number:   4          Path Number:   1
   CHANGE IN THE REACTION COORDINATE =    0.09997
   NET REACTION COORDINATE UP TO THIS POINT =    0.39989
  # OF POINTS ALONG THE PATH =   4
  # OF STEPS =   1

 Calculating another point on the path.
 IRC-IRC-IRC-IRC-IRC-IRC-IRC-IRC-IRC-IRC-IRC-IRC-IRC-IRC-IRC-IRC-IRC-IRC
                          Input orientation:                          
 ---------------------------------------------------------------------
 Center     Atomic      Atomic             Coordinates (Angstroms)
 Number     Number       Type             X           Y           Z
 ---------------------------------------------------------------------
      1          6           0       -0.057283    0.000006   -0.000139
      2         17           0       -2.190972   -0.000002    0.000053
      3          1           0        0.094917    0.002492   -1.066580
      4          1           0        0.095165    0.922365    0.535152
      5          1           0        0.095160   -0.924840    0.530843
      6          6           0        2.327949    0.000006   -0.000227
      7          7           0        3.504968   -0.000008    0.000224
 ---------------------------------------------------------------------
                    Distance matrix (angstroms):
                    1          2          3          4          5
     1  C    0.000000
     2  Cl   2.133689   0.000000
     3  H    1.077251   2.522499   0.000000
     4  H    1.077275   2.522601   1.847082   0.000000
     5  H    1.077275   2.522591   1.847080   1.847210   0.000000
     6  C    2.385232   4.518921   2.474581   2.474409   2.474413
     7  N    3.562252   5.695941   3.573028   3.572629   3.572627
                    6          7
     6  C    0.000000
     7  N    1.177019   0.000000
 Symmetry turned off by external request.
 Stoichiometry    C2H3ClN(1-)
 Framework group  C1[X(C2H3ClN)]
 Deg. of freedom    15
 Full point group                 C1      NOp   1
 Rotational constants (GHZ):         146.9737173           1.2426148           1.2426139
 Standard basis: 6-31++G(d,p) (6D, 7F)
    98 basis functions,   176 primitive gaussians,    98 cartesian basis functions
    20 alpha electrons       20 beta electrons
       nuclear repulsion energy       108.7658133113 Hartrees.
 NAtoms=    7 NActive=    7 NUniq=    7 SFac= 1.00D+00 NAtFMM=   60 NAOKFM=F Big=F
 Integral buffers will be    131072 words long.
 Raffenetti 2 integral format.
 Two-electron integral symmetry is turned off.
 Force inversion solution in PCM.
 ------------------------------------------------------------------------------
 Polarizable Continuum Model (PCM)
 =================================
 Model                : PCM.
 Atomic radii         : UFF (Universal Force Field).
 Polarization charges : Total charges.
 Charge compensation  : None.
 Solution method      : Matrix inversion.
 Cavity type          : Scaled VdW (van der Waals Surface) (Alpha=1.100).
 Cavity algorithm     : GePol (No added spheres)
                        Default sphere list used, NSphG=    7.
                        Lebedev-Laikov grids with approx.  5.0 points / Ang**2.
                        Smoothing algorithm: York/Karplus (Gamma=1.0000).
                        Polarization charges: spherical gaussians, with
                                              point-specific exponents (IZeta= 3).
                        Self-potential: point-specific (ISelfS= 7).
                        Self-field    : sphere-specific E.n sum rule (ISelfD= 2).
 1st derivatives      : Analytical E(r).r(x)/FMM algorithm (CHGder, D1EAlg=3).
                        Cavity 1st derivative terms included.
 Solvent              : Water, Eps=  78.355300 Eps(inf)=   1.777849
 ------------------------------------------------------------------------------
 Spheres list:
 ISph  on   Nord     Re0    Alpha      Xe            Ye            Ze
    1   C      1    1.9255  1.100     -0.057283      0.000006     -0.000139
    2  Cl      2    1.9735  1.100     -2.190972     -0.000002      0.000053
    3   H      3    1.4430  1.100      0.094917      0.002492     -1.066580
    4   H      4    1.4430  1.100      0.095165      0.922365      0.535152
    5   H      5    1.4430  1.100      0.095160     -0.924840      0.530843
    6   C      6    1.9255  1.100      2.327949      0.000006     -0.000227
    7   N      7    1.8300  1.100      3.504968     -0.000008      0.000224
 ------------------------------------------------------------------------------
 One-electron integrals computed using PRISM.
 NBasis=    98 RedAO= T EigKep=  1.21D-04  NBF=    98
 NBsUse=    98 1.00D-06 EigRej= -1.00D+00 NBFU=    98
 Initial guess from the checkpoint file:  "/scratch/alanqf/R13_TS_irc-54218.ixchel.mda.cinvestav.mx/Gau-16157.chk"
 B after Tr=    -0.000188    0.000000   -0.000001
         Rot=    1.000000    0.000001    0.000000    0.000000 Ang=   0.00 deg.
 ExpMin= 3.60D-02 ExpMax= 2.52D+04 ExpMxC= 3.78D+03 IAcc=3 IRadAn=         5 AccDes= 0.00D+00
 Harris functional with IExCor=  402 and IRadAn=       5 diagonalized for initial guess.
 HarFok:  IExCor=  402 AccDes= 0.00D+00 IRadAn=         5 IDoV= 1 UseB2=F ITyADJ=14
 ICtDFT=  3500011 ScaDFX=  1.000000  1.000000  1.000000  1.000000
 FoFCou: FMM=F IPFlag=           0 FMFlag=      100000 FMFlg1=           0
         NFxFlg=           0 DoJE=T BraDBF=F KetDBF=T FulRan=T
         wScrn=  0.000000 ICntrl=       500 IOpCl=  0 I1Cent=   200000004 NGrid=           0
         NMat0=    1 NMatS0=      1 NMatT0=    0 NMatD0=    1 NMtDS0=    0 NMtDT0=    0
 Symmetry not used in FoFCou.
 Keep R1 ints in memory in canonical form, NReq=59736751.
 Requested convergence on RMS density matrix=1.00D-08 within 128 cycles.
 Requested convergence on MAX density matrix=1.00D-06.
 Requested convergence on             energy=1.00D-06.
 No special actions if energy rises.
 Inv3:  Mode=1 IEnd=     2323200.
 Iteration    1 A*A^-1 deviation from unit magnitude is 4.22D-15 for    858.
 Iteration    1 A*A^-1 deviation from orthogonality  is 1.29D-15 for    621     98.
 Iteration    1 A^-1*A deviation from unit magnitude is 3.77D-15 for    858.
 Iteration    1 A^-1*A deviation from orthogonality  is 2.33D-15 for    545    114.
 Error on total polarization charges =  0.02754
 SCF Done:  E(RB3LYP) =  -593.071242099     A.U. after   10 cycles
            NFock= 10  Conv=0.31D-08     -V/T= 2.0048
 DoSCS=F DFT=T ScalE2(SS,OS)=  1.000000  1.000000
 Range of M.O.s used for correlation:     1    98
 NBasis=    98 NAE=    20 NBE=    20 NFC=     0 NFV=     0
 NROrb=     98 NOA=    20 NOB=    20 NVA=    78 NVB=    78

 **** Warning!!: The largest alpha MO coefficient is  0.39558067D+02

 Symmetrizing basis deriv contribution to polar:
 IMax=3 JMax=2 DiffMx= 0.00D+00
 D1PCM: PCM CHGder 1st derivatives, ID1Alg=3 FixD1E=F DoIter=F DoCFld=F I1PDM=0.
 Calling FoFJK, ICntrl=      2147 FMM=F ISym2X=0 I1Cent= 0 IOpClX= 0 NMat=1 NMatS=1 NMatT=0.
 -------------------------------------------------------------------
 Center     Atomic                   Forces (Hartrees/Bohr)
 Number     Number              X              Y              Z
 -------------------------------------------------------------------
      1        6          -0.012759085    0.000000119    0.000000861
      2       17           0.006357778    0.000000264   -0.000005542
      3        1          -0.000170243   -0.000000505    0.000175848
      4        1          -0.000168038   -0.000151967   -0.000089743
      5        1          -0.000168020    0.000152527   -0.000088827
      6        6           0.003154347   -0.000000476    0.000005750
      7        7           0.003753260    0.000000038    0.000001654
 -------------------------------------------------------------------
 Cartesian Forces:  Max     0.012759085 RMS     0.003290905
 IRC-IRC-IRC-IRC-IRC-IRC-IRC-IRC-IRC-IRC-IRC-IRC-IRC-IRC-IRC-IRC-IRC-IRC
 Pt  5 Step number   1 out of a maximum of  20
 Point Number:   5          Path Number:   1
   CHANGE IN THE REACTION COORDINATE =    0.09997
   NET REACTION COORDINATE UP TO THIS POINT =    0.49987
  # OF POINTS ALONG THE PATH =   5
  # OF STEPS =   1

 Calculating another point on the path.
 IRC-IRC-IRC-IRC-IRC-IRC-IRC-IRC-IRC-IRC-IRC-IRC-IRC-IRC-IRC-IRC-IRC-IRC
                          Input orientation:                          
 ---------------------------------------------------------------------
 Center     Atomic      Atomic             Coordinates (Angstroms)
 Number     Number       Type             X           Y           Z
 ---------------------------------------------------------------------
      1          6           0       -0.071065    0.000007   -0.000139
      2         17           0       -2.188617   -0.000001    0.000051
      3          1           0        0.092831    0.002488   -1.065136
      4          1           0        0.093109    0.921120    0.534410
      5          1           0        0.093104   -0.923589    0.530110
      6          6           0        2.331357    0.000005   -0.000221
      7          7           0        3.508421   -0.000008    0.000225
 ---------------------------------------------------------------------
                    Distance matrix (angstroms):
                    1          2          3          4          5
     1  C    0.000000
     2  Cl   2.117552   0.000000
     3  H    1.077537   2.517863   0.000000
     4  H    1.077564   2.517990   1.844568   0.000000
     5  H    1.077564   2.517981   1.844567   1.844714   0.000000
     6  C    2.402422   4.519974   2.478921   2.478717   2.478720
     7  N    3.579487   5.697038   3.577884   3.577456   3.577453
                    6          7
     6  C    0.000000
     7  N    1.177064   0.000000
 Symmetry turned off by external request.
 Stoichiometry    C2H3ClN(1-)
 Framework group  C1[X(C2H3ClN)]
 Deg. of freedom    15
 Full point group                 C1      NOp   1
 Rotational constants (GHZ):         147.3736005           1.2420521           1.2420510
 Standard basis: 6-31++G(d,p) (6D, 7F)
    98 basis functions,   176 primitive gaussians,    98 cartesian basis functions
    20 alpha electrons       20 beta electrons
       nuclear repulsion energy       108.8732969908 Hartrees.
 NAtoms=    7 NActive=    7 NUniq=    7 SFac= 1.00D+00 NAtFMM=   60 NAOKFM=F Big=F
 Integral buffers will be    131072 words long.
 Raffenetti 2 integral format.
 Two-electron integral symmetry is turned off.
 Force inversion solution in PCM.
 ------------------------------------------------------------------------------
 Polarizable Continuum Model (PCM)
 =================================
 Model                : PCM.
 Atomic radii         : UFF (Universal Force Field).
 Polarization charges : Total charges.
 Charge compensation  : None.
 Solution method      : Matrix inversion.
 Cavity type          : Scaled VdW (van der Waals Surface) (Alpha=1.100).
 Cavity algorithm     : GePol (No added spheres)
                        Default sphere list used, NSphG=    7.
                        Lebedev-Laikov grids with approx.  5.0 points / Ang**2.
                        Smoothing algorithm: York/Karplus (Gamma=1.0000).
                        Polarization charges: spherical gaussians, with
                                              point-specific exponents (IZeta= 3).
                        Self-potential: point-specific (ISelfS= 7).
                        Self-field    : sphere-specific E.n sum rule (ISelfD= 2).
 1st derivatives      : Analytical E(r).r(x)/FMM algorithm (CHGder, D1EAlg=3).
                        Cavity 1st derivative terms included.
 Solvent              : Water, Eps=  78.355300 Eps(inf)=   1.777849
 ------------------------------------------------------------------------------
 Spheres list:
 ISph  on   Nord     Re0    Alpha      Xe            Ye            Ze
    1   C      1    1.9255  1.100     -0.071065      0.000007     -0.000139
    2  Cl      2    1.9735  1.100     -2.188617     -0.000001      0.000051
    3   H      3    1.4430  1.100      0.092831      0.002488     -1.065136
    4   H      4    1.4430  1.100      0.093109      0.921120      0.534410
    5   H      5    1.4430  1.100      0.093104     -0.923589      0.530110
    6   C      6    1.9255  1.100      2.331357      0.000005     -0.000221
    7   N      7    1.8300  1.100      3.508421     -0.000008      0.000225
 ------------------------------------------------------------------------------
 One-electron integrals computed using PRISM.
 NBasis=    98 RedAO= T EigKep=  1.23D-04  NBF=    98
 NBsUse=    98 1.00D-06 EigRej= -1.00D+00 NBFU=    98
 Initial guess from the checkpoint file:  "/scratch/alanqf/R13_TS_irc-54218.ixchel.mda.cinvestav.mx/Gau-16157.chk"
 B after Tr=    -0.000205    0.000000   -0.000001
         Rot=    1.000000    0.000001    0.000000    0.000000 Ang=   0.00 deg.
 ExpMin= 3.60D-02 ExpMax= 2.52D+04 ExpMxC= 3.78D+03 IAcc=3 IRadAn=         5 AccDes= 0.00D+00
 Harris functional with IExCor=  402 and IRadAn=       5 diagonalized for initial guess.
 HarFok:  IExCor=  402 AccDes= 0.00D+00 IRadAn=         5 IDoV= 1 UseB2=F ITyADJ=14
 ICtDFT=  3500011 ScaDFX=  1.000000  1.000000  1.000000  1.000000
 FoFCou: FMM=F IPFlag=           0 FMFlag=      100000 FMFlg1=           0
         NFxFlg=           0 DoJE=T BraDBF=F KetDBF=T FulRan=T
         wScrn=  0.000000 ICntrl=       500 IOpCl=  0 I1Cent=   200000004 NGrid=           0
         NMat0=    1 NMatS0=      1 NMatT0=    0 NMatD0=    1 NMtDS0=    0 NMtDT0=    0
 Symmetry not used in FoFCou.
 Keep R1 ints in memory in canonical form, NReq=59736751.
 Requested convergence on RMS density matrix=1.00D-08 within 128 cycles.
 Requested convergence on MAX density matrix=1.00D-06.
 Requested convergence on             energy=1.00D-06.
 No special actions if energy rises.
 Inv3:  Mode=1 IEnd=     2328483.
 Iteration    1 A*A^-1 deviation from unit magnitude is 3.55D-15 for    863.
 Iteration    1 A*A^-1 deviation from orthogonality  is 1.39D-15 for    881    794.
 Iteration    1 A^-1*A deviation from unit magnitude is 3.33D-15 for    863.
 Iteration    1 A^-1*A deviation from orthogonality  is 1.80D-15 for    873    113.
 Error on total polarization charges =  0.02750
 SCF Done:  E(RB3LYP) =  -593.071683171     A.U. after   10 cycles
            NFock= 10  Conv=0.31D-08     -V/T= 2.0048
 DoSCS=F DFT=T ScalE2(SS,OS)=  1.000000  1.000000
 Range of M.O.s used for correlation:     1    98
 NBasis=    98 NAE=    20 NBE=    20 NFC=     0 NFV=     0
 NROrb=     98 NOA=    20 NOB=    20 NVA=    78 NVB=    78

 **** Warning!!: The largest alpha MO coefficient is  0.39152058D+02

 Symmetrizing basis deriv contribution to polar:
 IMax=3 JMax=2 DiffMx= 0.00D+00
 D1PCM: PCM CHGder 1st derivatives, ID1Alg=3 FixD1E=F DoIter=F DoCFld=F I1PDM=0.
 Calling FoFJK, ICntrl=      2147 FMM=F ISym2X=0 I1Cent= 0 IOpClX= 0 NMat=1 NMatS=1 NMatT=0.
 -------------------------------------------------------------------
 Center     Atomic                   Forces (Hartrees/Bohr)
 Number     Number              X              Y              Z
 -------------------------------------------------------------------
      1        6          -0.014724193    0.000000130    0.000000201
      2       17           0.007389890    0.000000260   -0.000006010
      3        1          -0.000214555   -0.000000569    0.000193789
      4        1          -0.000212020   -0.000167496   -0.000099362
      5        1          -0.000211961    0.000168139   -0.000098304
      6        6           0.003638769   -0.000000502    0.000007702
      7        7           0.004334070    0.000000037    0.000001985
 -------------------------------------------------------------------
 Cartesian Forces:  Max     0.014724193 RMS     0.003802797
 IRC-IRC-IRC-IRC-IRC-IRC-IRC-IRC-IRC-IRC-IRC-IRC-IRC-IRC-IRC-IRC-IRC-IRC
 Pt  6 Step number   1 out of a maximum of  20
 Point Number:   6          Path Number:   1
   CHANGE IN THE REACTION COORDINATE =    0.09997
   NET REACTION COORDINATE UP TO THIS POINT =    0.59984
  # OF POINTS ALONG THE PATH =   6
  # OF STEPS =   1

 Calculating another point on the path.
 IRC-IRC-IRC-IRC-IRC-IRC-IRC-IRC-IRC-IRC-IRC-IRC-IRC-IRC-IRC-IRC-IRC-IRC
                          Input orientation:                          
 ---------------------------------------------------------------------
 Center     Atomic      Atomic             Coordinates (Angstroms)
 Number     Number       Type             X           Y           Z
 ---------------------------------------------------------------------
      1          6           0       -0.084829    0.000007   -0.000140
      2         17           0       -2.186247   -0.000001    0.000049
      3          1           0        0.090510    0.002483   -1.063619
      4          1           0        0.090816    0.919812    0.533628
      5          1           0        0.090812   -0.922276    0.529337
      6          6           0        2.334760    0.000005   -0.000213
      7          7           0        3.511878   -0.000008    0.000227
 ---------------------------------------------------------------------
                    Distance matrix (angstroms):
                    1          2          3          4          5
     1  C    0.000000
     2  Cl   2.101418   0.000000
     3  H    1.077840   2.512970   0.000000
     4  H    1.077869   2.513121   1.841926   0.000000
     5  H    1.077868   2.513112   1.841925   1.842093   0.000000
     6  C    2.419589   4.521007   2.483445   2.483207   2.483209
     7  N    3.596707   5.698125   3.582951   3.582493   3.582489
                    6          7
     6  C    0.000000
     7  N    1.177119   0.000000
 Symmetry turned off by external request.
 Stoichiometry    C2H3ClN(1-)
 Framework group  C1[X(C2H3ClN)]
 Deg. of freedom    15
 Full point group                 C1      NOp   1
 Rotational constants (GHZ):         147.7955311           1.2414805           1.2414792
 Standard basis: 6-31++G(d,p) (6D, 7F)
    98 basis functions,   176 primitive gaussians,    98 cartesian basis functions
    20 alpha electrons       20 beta electrons
       nuclear repulsion energy       108.9854999867 Hartrees.
 NAtoms=    7 NActive=    7 NUniq=    7 SFac= 1.00D+00 NAtFMM=   60 NAOKFM=F Big=F
 Integral buffers will be    131072 words long.
 Raffenetti 2 integral format.
 Two-electron integral symmetry is turned off.
 Force inversion solution in PCM.
 ------------------------------------------------------------------------------
 Polarizable Continuum Model (PCM)
 =================================
 Model                : PCM.
 Atomic radii         : UFF (Universal Force Field).
 Polarization charges : Total charges.
 Charge compensation  : None.
 Solution method      : Matrix inversion.
 Cavity type          : Scaled VdW (van der Waals Surface) (Alpha=1.100).
 Cavity algorithm     : GePol (No added spheres)
                        Default sphere list used, NSphG=    7.
                        Lebedev-Laikov grids with approx.  5.0 points / Ang**2.
                        Smoothing algorithm: York/Karplus (Gamma=1.0000).
                        Polarization charges: spherical gaussians, with
                                              point-specific exponents (IZeta= 3).
                        Self-potential: point-specific (ISelfS= 7).
                        Self-field    : sphere-specific E.n sum rule (ISelfD= 2).
 1st derivatives      : Analytical E(r).r(x)/FMM algorithm (CHGder, D1EAlg=3).
                        Cavity 1st derivative terms included.
 Solvent              : Water, Eps=  78.355300 Eps(inf)=   1.777849
 ------------------------------------------------------------------------------
 Spheres list:
 ISph  on   Nord     Re0    Alpha      Xe            Ye            Ze
    1   C      1    1.9255  1.100     -0.084829      0.000007     -0.000140
    2  Cl      2    1.9735  1.100     -2.186247     -0.000001      0.000049
    3   H      3    1.4430  1.100      0.090510      0.002483     -1.063619
    4   H      4    1.4430  1.100      0.090816      0.919812      0.533628
    5   H      5    1.4430  1.100      0.090812     -0.922276      0.529337
    6   C      6    1.9255  1.100      2.334760      0.000005     -0.000213
    7   N      7    1.8300  1.100      3.511878     -0.000008      0.000227
 ------------------------------------------------------------------------------
 One-electron integrals computed using PRISM.
 NBasis=    98 RedAO= T EigKep=  1.24D-04  NBF=    98
 NBsUse=    98 1.00D-06 EigRej= -1.00D+00 NBFU=    98
 Initial guess from the checkpoint file:  "/scratch/alanqf/R13_TS_irc-54218.ixchel.mda.cinvestav.mx/Gau-16157.chk"
 B after Tr=    -0.000222    0.000000   -0.000001
         Rot=    1.000000    0.000001    0.000000    0.000000 Ang=   0.00 deg.
 ExpMin= 3.60D-02 ExpMax= 2.52D+04 ExpMxC= 3.78D+03 IAcc=3 IRadAn=         5 AccDes= 0.00D+00
 Harris functional with IExCor=  402 and IRadAn=       5 diagonalized for initial guess.
 HarFok:  IExCor=  402 AccDes= 0.00D+00 IRadAn=         5 IDoV= 1 UseB2=F ITyADJ=14
 ICtDFT=  3500011 ScaDFX=  1.000000  1.000000  1.000000  1.000000
 FoFCou: FMM=F IPFlag=           0 FMFlag=      100000 FMFlg1=           0
         NFxFlg=           0 DoJE=T BraDBF=F KetDBF=T FulRan=T
         wScrn=  0.000000 ICntrl=       500 IOpCl=  0 I1Cent=   200000004 NGrid=           0
         NMat0=    1 NMatS0=      1 NMatT0=    0 NMatD0=    1 NMtDS0=    0 NMtDT0=    0
 Symmetry not used in FoFCou.
 Keep R1 ints in memory in canonical form, NReq=59736751.
 Requested convergence on RMS density matrix=1.00D-08 within 128 cycles.
 Requested convergence on MAX density matrix=1.00D-06.
 Requested convergence on             energy=1.00D-06.
 No special actions if energy rises.
 Inv3:  Mode=1 IEnd=     2275923.
 Iteration    1 A*A^-1 deviation from unit magnitude is 4.66D-15 for    868.
 Iteration    1 A*A^-1 deviation from orthogonality  is 1.29D-15 for    868    737.
 Iteration    1 A^-1*A deviation from unit magnitude is 4.66D-15 for    868.
 Iteration    1 A^-1*A deviation from orthogonality  is 1.13D-15 for    852    848.
 Error on total polarization charges =  0.02747
 SCF Done:  E(RB3LYP) =  -593.072184189     A.U. after   10 cycles
            NFock= 10  Conv=0.31D-08     -V/T= 2.0048
 DoSCS=F DFT=T ScalE2(SS,OS)=  1.000000  1.000000
 Range of M.O.s used for correlation:     1    98
 NBasis=    98 NAE=    20 NBE=    20 NFC=     0 NFV=     0
 NROrb=     98 NOA=    20 NOB=    20 NVA=    78 NVB=    78

 **** Warning!!: The largest alpha MO coefficient is  0.38722866D+02

 Symmetrizing basis deriv contribution to polar:
 IMax=3 JMax=2 DiffMx= 0.00D+00
 D1PCM: PCM CHGder 1st derivatives, ID1Alg=3 FixD1E=F DoIter=F DoCFld=F I1PDM=0.
 Calling FoFJK, ICntrl=      2147 FMM=F ISym2X=0 I1Cent= 0 IOpClX= 0 NMat=1 NMatS=1 NMatT=0.
 -------------------------------------------------------------------
 Center     Atomic                   Forces (Hartrees/Bohr)
 Number     Number              X              Y              Z
 -------------------------------------------------------------------
      1        6          -0.016463885    0.000000166   -0.000000845
      2       17           0.008309181    0.000000246   -0.000006077
      3        1          -0.000262048   -0.000000638    0.000210821
      4        1          -0.000259261   -0.000182275   -0.000108478
      5        1          -0.000259179    0.000182985   -0.000107304
      6        6           0.004074827   -0.000000521    0.000009664
      7        7           0.004860365    0.000000039    0.000002220
 -------------------------------------------------------------------
 Cartesian Forces:  Max     0.016463885 RMS     0.004257581
 IRC-IRC-IRC-IRC-IRC-IRC-IRC-IRC-IRC-IRC-IRC-IRC-IRC-IRC-IRC-IRC-IRC-IRC
 Pt  7 Step number   1 out of a maximum of  20
 Point Number:   7          Path Number:   1
   CHANGE IN THE REACTION COORDINATE =    0.09998
   NET REACTION COORDINATE UP TO THIS POINT =    0.69982
  # OF POINTS ALONG THE PATH =   7
  # OF STEPS =   1

 Calculating another point on the path.
 IRC-IRC-IRC-IRC-IRC-IRC-IRC-IRC-IRC-IRC-IRC-IRC-IRC-IRC-IRC-IRC-IRC-IRC
                          Input orientation:                          
 ---------------------------------------------------------------------
 Center     Atomic      Atomic             Coordinates (Angstroms)
 Number     Number       Type             X           Y           Z
 ---------------------------------------------------------------------
      1          6           0       -0.098571    0.000007   -0.000141
      2         17           0       -2.183867   -0.000001    0.000048
      3          1           0        0.087943    0.002478   -1.062038
      4          1           0        0.088278    0.918449    0.532811
      5          1           0        0.088275   -0.920907    0.528529
      6          6           0        2.338164    0.000004   -0.000205
      7          7           0        3.515346   -0.000008    0.000228
 ---------------------------------------------------------------------
                    Distance matrix (angstroms):
                    1          2          3          4          5
     1  C    0.000000
     2  Cl   2.085296   0.000000
     3  H    1.078156   2.507819   0.000000
     4  H    1.078186   2.507994   1.839170   0.000000
     5  H    1.078186   2.507985   1.839169   1.839360   0.000000
     6  C    2.436736   4.522032   2.488170   2.487897   2.487898
     7  N    3.613918   5.699214   3.588246   3.587757   3.587753
                    6          7
     6  C    0.000000
     7  N    1.177182   0.000000
 Symmetry turned off by external request.
 Stoichiometry    C2H3ClN(1-)
 Framework group  C1[X(C2H3ClN)]
 Deg. of freedom    15
 Full point group                 C1      NOp   1
 Rotational constants (GHZ):         148.2375860           1.2408943           1.2408929
 Standard basis: 6-31++G(d,p) (6D, 7F)
    98 basis functions,   176 primitive gaussians,    98 cartesian basis functions
    20 alpha electrons       20 beta electrons
       nuclear repulsion energy       109.1022841873 Hartrees.
 NAtoms=    7 NActive=    7 NUniq=    7 SFac= 1.00D+00 NAtFMM=   60 NAOKFM=F Big=F
 Integral buffers will be    131072 words long.
 Raffenetti 2 integral format.
 Two-electron integral symmetry is turned off.
 Force inversion solution in PCM.
 ------------------------------------------------------------------------------
 Polarizable Continuum Model (PCM)
 =================================
 Model                : PCM.
 Atomic radii         : UFF (Universal Force Field).
 Polarization charges : Total charges.
 Charge compensation  : None.
 Solution method      : Matrix inversion.
 Cavity type          : Scaled VdW (van der Waals Surface) (Alpha=1.100).
 Cavity algorithm     : GePol (No added spheres)
                        Default sphere list used, NSphG=    7.
                        Lebedev-Laikov grids with approx.  5.0 points / Ang**2.
                        Smoothing algorithm: York/Karplus (Gamma=1.0000).
                        Polarization charges: spherical gaussians, with
                                              point-specific exponents (IZeta= 3).
                        Self-potential: point-specific (ISelfS= 7).
                        Self-field    : sphere-specific E.n sum rule (ISelfD= 2).
 1st derivatives      : Analytical E(r).r(x)/FMM algorithm (CHGder, D1EAlg=3).
                        Cavity 1st derivative terms included.
 Solvent              : Water, Eps=  78.355300 Eps(inf)=   1.777849
 ------------------------------------------------------------------------------
 Spheres list:
 ISph  on   Nord     Re0    Alpha      Xe            Ye            Ze
    1   C      1    1.9255  1.100     -0.098571      0.000007     -0.000141
[...]
    4   H      4    1.4430  1.100      0.570695      0.886437      0.527154
    5   H      5    1.4430  1.100      0.570400     -0.888644      0.522853
    6   C      6    1.9255  1.100      2.401933     -0.000710      0.001065
    7   N      7    1.8300  1.100      3.564218      0.000382     -0.005839
 ------------------------------------------------------------------------------
 One-electron integrals computed using PRISM.
 NBasis=    98 RedAO= T EigKep=  1.82D-05  NBF=    98
 NBsUse=    98 1.00D-06 EigRej= -1.00D+00 NBFU=    98
 Initial guess from the checkpoint file:  "/scratch/alanqf/R13_TS_irc-54218.ixchel.mda.cinvestav.mx/Gau-16157.chk"
 B after Tr=     0.000561    0.000020    0.000051
         Rot=    1.000000   -0.000007   -0.000029    0.000000 Ang=  -0.00 deg.
 ExpMin= 3.60D-02 ExpMax= 2.52D+04 ExpMxC= 3.78D+03 IAcc=3 IRadAn=         5 AccDes= 0.00D+00
 Harris functional with IExCor=  402 and IRadAn=       5 diagonalized for initial guess.
 HarFok:  IExCor=  402 AccDes= 0.00D+00 IRadAn=         5 IDoV= 1 UseB2=F ITyADJ=14
 ICtDFT=  3500011 ScaDFX=  1.000000  1.000000  1.000000  1.000000
 FoFCou: FMM=F IPFlag=           0 FMFlag=      100000 FMFlg1=           0
         NFxFlg=           0 DoJE=T BraDBF=F KetDBF=T FulRan=T
         wScrn=  0.000000 ICntrl=       500 IOpCl=  0 I1Cent=   200000004 NGrid=           0
         NMat0=    1 NMatS0=      1 NMatT0=    0 NMatD0=    1 NMtDS0=    0 NMtDT0=    0
 Symmetry not used in FoFCou.
 Keep R1 ints in memory in canonical form, NReq=59736751.
 Requested convergence on RMS density matrix=1.00D-08 within 128 cycles.
 Requested convergence on MAX density matrix=1.00D-06.
 Requested convergence on             energy=1.00D-06.
 No special actions if energy rises.
 Inv3:  Mode=1 IEnd=     2645163.
 Iteration    1 A*A^-1 deviation from unit magnitude is 3.33D-15 for    912.
 Iteration    1 A*A^-1 deviation from orthogonality  is 1.93D-15 for    912    817.
 Iteration    1 A^-1*A deviation from unit magnitude is 2.78D-15 for    928.
 Iteration    1 A^-1*A deviation from orthogonality  is 1.29D-15 for    912    817.
 Error on total polarization charges =  0.03182
 SCF Done:  E(RB3LYP) =  -593.158323983     A.U. after    8 cycles
            NFock=  8  Conv=0.42D-08     -V/T= 2.0049
 DoSCS=F DFT=T ScalE2(SS,OS)=  1.000000  1.000000
 Range of M.O.s used for correlation:     1    98
 NBasis=    98 NAE=    20 NBE=    20 NFC=     0 NFV=     0
 NROrb=     98 NOA=    20 NOB=    20 NVA=    78 NVB=    78

 **** Warning!!: The largest alpha MO coefficient is  0.11018223D+03

 Symmetrizing basis deriv contribution to polar:
 IMax=3 JMax=2 DiffMx= 0.00D+00
 D1PCM: PCM CHGder 1st derivatives, ID1Alg=3 FixD1E=F DoIter=F DoCFld=F I1PDM=0.
 Calling FoFJK, ICntrl=      2147 FMM=F ISym2X=0 I1Cent= 0 IOpClX= 0 NMat=1 NMatS=1 NMatT=0.
 -------------------------------------------------------------------
 Center     Atomic                   Forces (Hartrees/Bohr)
 Number     Number              X              Y              Z
 -------------------------------------------------------------------
      1        6           0.000482752   -0.000226424    0.000471365
      2       17          -0.001615453    0.000001029   -0.000004987
      3        1           0.000076681    0.000006208   -0.000132053
      4        1           0.000024112   -0.000004445   -0.000010756
      5        1          -0.000021618    0.000109096   -0.000063872
      6        6           0.000529369    0.000187858   -0.000291663
      7        7           0.000524156   -0.000073322    0.000031966
 -------------------------------------------------------------------
 Cartesian Forces:  Max     0.001615453 RMS     0.000427533
 IRC-IRC-IRC-IRC-IRC-IRC-IRC-IRC-IRC-IRC-IRC-IRC-IRC-IRC-IRC-IRC-IRC-IRC
 Pt187 Step number   1 out of a maximum of  20
 Point Number: 100          Path Number:   2
   CHANGE IN THE REACTION COORDINATE =    0.09995
   NET REACTION COORDINATE UP TO THIS POINT =    9.98539
  # OF POINTS ALONG THE PATH = 187
  # OF STEPS =   1

 Maximum number of steps reached.
 Calculation of REVERSE path complete.
 Reaction path calculation complete.
 
 Energies reported relative to the TS energy of        -593.070161
 --------------------------------------------------------------------------
    Summary of reaction path following
 --------------------------------------------------------------------------
                        Energy    RxCoord
   1                   -0.08816  -9.98539
   2                   -0.08813  -9.88544
   3                   -0.08809  -9.78547
   4                   -0.08805  -9.68549
   5                   -0.08800  -9.58552
   6                   -0.08796  -9.48556
   7                   -0.08791  -9.38567
   8                   -0.08786  -9.28596
   9                   -0.08782  -9.18626
  10                   -0.08777  -9.08643
  11                   -0.08771  -8.98652
  12                   -0.08766  -8.88657
  13                   -0.08760  -8.78660
  14                   -0.08754  -8.68662
  15                   -0.08747  -8.58664
  16                   -0.08740  -8.48666
  17                   -0.08733  -8.38668
  18                   -0.08726  -8.28670
  19                   -0.08718  -8.18672
  20                   -0.08710  -8.08674
  21                   -0.08701  -7.98676
  22                   -0.08693  -7.88677
  23                   -0.08683  -7.78679
  24                   -0.08674  -7.68681
  25                   -0.08664  -7.58683
  26                   -0.08654  -7.48685
  27                   -0.08643  -7.38687
  28                   -0.08632  -7.28689
  29                   -0.08621  -7.18691
  30                   -0.08608  -7.08693
  31                   -0.08595  -6.98695
  32                   -0.08582  -6.88697
  33                   -0.08568  -6.78699
  34                   -0.08553  -6.68710
  35                   -0.08538  -6.58923
  36                   -0.08522  -6.49093
  37                   -0.08507  -6.39110
  38                   -0.08489  -6.29113
  39                   -0.08471  -6.19116
  40                   -0.08452  -6.09118
  41                   -0.08432  -5.99138
  42                   -0.08411  -5.89287
  43                   -0.08390  -5.79353
  44                   -0.08368  -5.69361
  45                   -0.08344  -5.59366
  46                   -0.08319  -5.49426
  47                   -0.08293  -5.39748
  48                   -0.08271  -5.29766
  49                   -0.08243  -5.19768
  50                   -0.08214  -5.09771
  51                   -0.08184  -4.99779
  52                   -0.08152  -4.89808
  53                   -0.08113  -4.79861
  54                   -0.08059  -4.69889
  55                   -0.07983  -4.59898
  56                   -0.07885  -4.49902
  57                   -0.07763  -4.39905
  58                   -0.07621  -4.29907
  59                   -0.07460  -4.19909
  60                   -0.07280  -4.09911
  61                   -0.07086  -3.99912
  62                   -0.06877  -3.89914
  63                   -0.06656  -3.79916
  64                   -0.06425  -3.69918
  65                   -0.06186  -3.59920
  66                   -0.05939  -3.49922
  67                   -0.05686  -3.39924
  68                   -0.05428  -3.29926
  69                   -0.05168  -3.19928
  70                   -0.04906  -3.09930
  71                   -0.04643  -2.99932
  72                   -0.04381  -2.89934
  73                   -0.04119  -2.79936
  74                   -0.03861  -2.69938
  75                   -0.03605  -2.59940
  76                   -0.03354  -2.49942
  77                   -0.03108  -2.39944
  78                   -0.02867  -2.29947
  79                   -0.02633  -2.19949
  80                   -0.02406  -2.09951
  81                   -0.02187  -1.99953
  82                   -0.01977  -1.89955
  83                   -0.01775  -1.79957
  84                   -0.01583  -1.69959
  85                   -0.01401  -1.59961
  86                   -0.01228  -1.49963
  87                   -0.01067  -1.39966
  88                   -0.00917  -1.29968
  89                   -0.00778  -1.19970
  90                   -0.00650  -1.09972
  91                   -0.00534  -0.99975
  92                   -0.00429  -0.89977
  93                   -0.00336  -0.79979
  94                   -0.00255  -0.69982
  95                   -0.00186  -0.59984
  96                   -0.00127  -0.49987
  97                   -0.00081  -0.39989
  98                   -0.00045  -0.29992
  99                   -0.00020  -0.19996
 100                   -0.00005  -0.10000
 101                    0.00000   0.00000
 102                   -0.00005   0.10000
 103                   -0.00018   0.19996
 104                   -0.00041   0.29992
 105                   -0.00071   0.39989
 106                   -0.00108   0.49987
 107                   -0.00152   0.59984
 108                   -0.00202   0.69982
 109                   -0.00258   0.79980
 110                   -0.00318   0.89977
 111                   -0.00381   0.99975
 112                   -0.00448   1.09973
 113                   -0.00517   1.19971
 114                   -0.00587   1.29969
 115                   -0.00657   1.39967
 116                   -0.00727   1.49965
 117                   -0.00796   1.59963
 118                   -0.00862   1.69960
 119                   -0.00925   1.79958
 120                   -0.00985   1.89956
 121                   -0.01040   1.99953
 122                   -0.01090   2.09950
 123                   -0.01134   2.19945
 124                   -0.01174   2.29938
 125                   -0.01209   2.39930
 126                   -0.01241   2.49921
 127                   -0.01270   2.59913
 128                   -0.01297   2.69907
 129                   -0.01323   2.79903
 130                   -0.01348   2.89900
 131                   -0.01371   2.99898
 132                   -0.01394   3.09896
 133                   -0.01416   3.19893
 134                   -0.01436   3.29884
 135                   -0.01455   3.39866
 136                   -0.01474   3.49776
 137                   -0.01493   3.59763
 138                   -0.01510   3.69758
 139                   -0.01527   3.79756
 140                   -0.01542   3.89754
 141                   -0.01558   3.99752
 142                   -0.01572   4.09750
 143                   -0.01586   4.19746
 144                   -0.01599   4.29738
 145                   -0.01611   4.39716
 146                   -0.01623   4.49673
 147                   -0.01635   4.59635
 148                   -0.01646   4.69622
 149                   -0.01656   4.79617
 150                   -0.01667   4.89614
 151                   -0.01676   4.99612
 152                   -0.01685   5.09607
 153                   -0.01694   5.19593
 154                   -0.01702   5.29547
 155                   -0.01710   5.39457
 156                   -0.01718   5.49393
 157                   -0.01725   5.59376
 158                   -0.01732   5.69371
 159                   -0.01738   5.79369
 160                   -0.01744   5.89367
 161                   -0.01750   5.99365
 162                   -0.01756   6.09363
 163                   -0.01761   6.19362
 164                   -0.01766   6.29360
 165                   -0.01771   6.39358
 166                   -0.01775   6.49355
 167                   -0.01780   6.59353
 168                   -0.01784   6.69347
 169                   -0.01788   6.79340
 170                   -0.01792   6.89308
 171                   -0.01796   6.99271
 172                   -0.01800   7.09180
 173                   -0.01803   7.19132
 174                   -0.01807   7.29094
 175                   -0.01810   7.39079
 176                   -0.01813   7.49071
 177                   -0.01816   7.59066
 178                   -0.01819   7.69063
 179                   -0.01822   7.79061
 180                   -0.01825   7.89058
 181                   -0.01828   7.99056
 182                   -0.01830   8.09054
 183                   -0.01832   8.19052
 184                   -0.01835   8.29050
 185                   -0.01837   8.39047
 186                   -0.01839   8.49044
 187                   -0.01841   8.59041
 188                   -0.01843   8.69038
 --------------------------------------------------------------------------
 
 Total number of points:                  187
 Total number of gradient calculations:   188
 Total number of Hessian calculations:      1
 IRC-IRC-IRC-IRC-IRC-IRC-IRC-IRC-IRC-IRC-IRC-IRC-IRC-IRC-IRC-IRC-IRC-IRC
                          Input orientation:                          
 ---------------------------------------------------------------------
 Center     Atomic      Atomic             Coordinates (Angstroms)
 Number     Number       Type             X           Y           Z
 ---------------------------------------------------------------------
      1          6           0        0.943805    0.000192    0.009574
      2         17           0       -2.624353    0.000014   -0.002425
      3          1           0        0.557349    0.002593   -1.011416
      4          1           0        0.570695    0.886437    0.527154
      5          1           0        0.570400   -0.888644    0.522853
      6          6           0        2.401933   -0.000710    0.001065
      7          7           0        3.564218    0.000382   -0.005839
 ---------------------------------------------------------------------
                    Distance matrix (angstroms):
                    1          2          3          4          5
     1  C    0.000000
     2  Cl   3.568178   0.000000
     3  H    1.091684   3.337858   0.000000
     4  H    1.092031   3.357757   1.774417   0.000000
     5  H    1.092207   3.357391   1.774389   1.775086   0.000000
     6  C    1.458153   5.026287   2.104191   2.101721   2.101239
     7  N    2.620458   6.188572   3.170561   3.167073   3.167465
                    6          7
     6  C    0.000000
     7  N    1.162306   0.000000
 Symmetry turned off by external request.
 Stoichiometry    C2H3ClN(1-)
 Framework group  C1[X(C2H3ClN)]
 Deg. of freedom    15
 Full point group                 C1      NOp   1
 Rotational constants (GHZ):         159.1181622           1.0083254           1.0083244

 **********************************************************************

            Population analysis using the SCF Density.

 **********************************************************************

 Alpha  occ. eigenvalues -- -101.44430 -14.34959 -10.24932 -10.22434  -9.35751
 Alpha  occ. eigenvalues --   -7.11540  -7.11540  -7.11521  -0.91894  -0.76885
 Alpha  occ. eigenvalues --   -0.69669  -0.50930  -0.45215  -0.45205  -0.38248
 Alpha  occ. eigenvalues --   -0.33927  -0.33923  -0.24439  -0.24439  -0.24298
 Alpha virt. eigenvalues --   -0.00620   0.01759   0.01767   0.02716   0.04282
 Alpha virt. eigenvalues --    0.04285   0.05673   0.08504   0.08506   0.09423
 Alpha virt. eigenvalues --    0.11145   0.11203   0.12354   0.12373   0.13072
 Alpha virt. eigenvalues --    0.15493   0.19122   0.21566   0.21761   0.21785
 Alpha virt. eigenvalues --    0.22613   0.22627   0.27834   0.29368   0.36660
 Alpha virt. eigenvalues --    0.56868   0.66088   0.66480   0.66484   0.67208
 Alpha virt. eigenvalues --    0.67216   0.72435   0.72474   0.73409   0.84560
 Alpha virt. eigenvalues --    0.88005   0.89918   0.89924   0.95581   0.96248
 Alpha virt. eigenvalues --    0.96248   0.96429   0.96452   0.99979   0.99988
 Alpha virt. eigenvalues --    1.01225   1.11631   1.14741   1.32753   1.32793
 Alpha virt. eigenvalues --    1.41841   1.50568   1.50569   1.73726   1.73831
 Alpha virt. eigenvalues --    1.75784   1.93136   1.93161   2.01810   2.10616
 Alpha virt. eigenvalues --    2.10625   2.16883   2.27012   2.27046   2.60727
 Alpha virt. eigenvalues --    2.67578   2.67720   2.92210   2.96137   2.96296
 Alpha virt. eigenvalues --    3.15645   3.32378   3.41974   3.42099   4.12057
 Alpha virt. eigenvalues --    4.30893   4.37491   4.68196
          Condensed to atoms (all electrons):
               1          2          3          4          5          6
     1  C    5.258210  -0.078878   0.393021   0.391720   0.391923  -0.239676
     2  Cl  -0.078878  18.018240  -0.006809  -0.006695  -0.006684   0.069376
     3  H    0.393021  -0.006809   0.485053  -0.025526  -0.025551  -0.033866
     4  H    0.391720  -0.006695  -0.025526   0.485984  -0.025582  -0.032951
     5  H    0.391923  -0.006684  -0.025551  -0.025582   0.486297  -0.033369
     6  C   -0.239676   0.069376  -0.033866  -0.032951  -0.033369   5.799127
     7  N   -0.058576  -0.000698  -0.003346  -0.003403  -0.003327   0.466213
               7
     1  C   -0.058576
     2  Cl  -0.000698
     3  H   -0.003346
     4  H   -0.003403
     5  H   -0.003327
     6  C    0.466213
     7  N    7.212457
 Mulliken charges:
               1
     1  C   -0.057744
     2  Cl  -0.987851
     3  H    0.217024
     4  H    0.216453
     5  H    0.216293
     6  C    0.005145
     7  N   -0.609320
 Sum of Mulliken charges =  -1.00000
 Mulliken charges with hydrogens summed into heavy atoms:
               1
     1  C    0.592026
     2  Cl  -0.987851
     6  C    0.005145
     7  N   -0.609320
 APT charges:
               1
     1  C   -0.756588
     2  Cl  -1.006408
     3  H    0.329666
     4  H    0.333729
     5  H    0.333713
     6  C   -0.830987
     7  N    0.596875
 Sum of APT charges =  -1.00000
 APT charges with hydrogens summed into heavy atoms:
               1
     1  C    0.240519
     2  Cl  -1.006408
     6  C   -0.830987
     7  N    0.596875
 Electronic spatial extent (au):  <R**2>=           1015.1452
 Charge=             -1.0000 electrons
 Dipole moment (field-independent basis, Debye):
    X=              7.4782    Y=             -0.0010    Z=              0.0407  Tot=              7.4783
 Quadrupole moment (field-independent basis, Debye-Ang):
   XX=            -94.5352   YY=            -34.8393   ZZ=            -34.8403
   XY=             -0.0036   XZ=              0.0482   YZ=              0.0004
 Traceless Quadrupole moment (field-independent basis, Debye-Ang):
   XX=            -39.7969   YY=             19.8989   ZZ=             19.8980
   XY=             -0.0036   XZ=              0.0482   YZ=              0.0004
 Octapole moment (field-independent basis, Debye-Ang**2):
  XXX=             -2.9735  YYY=             -0.0053  ZZZ=             -0.8541  XYY=              4.2802
  XXY=             -0.0127  XXZ=              0.3104  XZZ=              4.2638  YZZ=              0.0068
  YYZ=              0.8927  XYZ=              0.0004
 Hexadecapole moment (field-independent basis, Debye-Ang**3):
 XXXX=          -2105.4527 YYYY=            -53.9318 ZZZZ=            -53.9771 XXXY=             -0.0375
 XXXZ=              0.4709 YYYX=             -0.0009 YYYZ=              0.0009 ZZZX=             -0.5268
 ZZZY=              0.0007 XXYY=           -253.1448 XXZZ=           -253.1602 YYZZ=            -17.9536
 XXYZ=              0.0009 YYXZ=              0.3555 ZZXY=              0.0036
 N-N= 1.024187872170D+02 E-N=-1.615044732996D+03  KE= 5.902642180642D+02
  Exact polarizability:   0.000   0.000   0.000   0.000   0.000   0.000
 Approx polarizability:  86.192   0.032  44.533  -0.174  -0.002  44.527

 This type of calculation cannot be archived.


 CLIMB THE MOUNTAINS AND GET THEIR GOOD TIDINGS.
 NATURE'S PEACE WILL FLOW INTO YOU AS SUNSHINE FLOWS INTO TREES.
 THE WINDS WILL BLOW THEIR OWN FRESHNESS INTO YOU, 
 AND CARES WILL DROP OFF LIKE AUTUMN LEAVES.

                                         -- JOHN MUIR
 Job cpu time:       0 days 13 hours  5 minutes 40.9 seconds.
 Elapsed time:       0 days  0 hours 18 minutes 18.0 seconds.
 File lengths (MBytes):  RWF=     51 Int=      0 D2E=      0 Chk=      5 Scr=      2
 Normal termination of Gaussian 16 at Sat Oct 12 23:10:41 2024.
