RxCoord=-9.88544 DE=0.02                                                
Freq      RB3LYP                                                      6-31++G(d,p)        
Number of atoms                            I                7
Info1-9                                    I   N=           9
          16          16           0           0           0         100
           6          18        -502
Full Title                                 C   N=           2
RxCoord=-9.88544 DE=0.02
Route                                      C   N=           6
#p b3lyp 6-31++g(d,p) scf=verytight NoSymm freq=noraman int=
ultrafine   
Charge                                     I               -1
Multiplicity                               I                1
Number of electrons                        I               40
Number of alpha electrons                  I               20
Number of beta electrons                   I               20
Number of basis functions                  I               98
Number of independent functions            I               98
Number of point charges in /Mol/           I                0
Number of translation vectors              I                0
Atomic numbers                             I   N=           7
           6          17           1           1           1           6
           7
Nuclear charges                            R   N=           7
  6.00000000E+00  1.70000000E+01  1.00000000E+00  1.00000000E+00  1.00000000E+00
  6.00000000E+00  7.00000000E+00
Current cartesian coordinates              R   N=          21
  1.77311302E+00 -3.15584263E-04  1.76764982E-02 -4.94703654E+00  3.21253441E-05
 -4.54668106E-03  1.04305323E+00  4.35203926E-03 -1.91225166E+00  1.06708299E+00
  1.67455435E+00  9.94827421E-01  1.06726629E+00 -1.67977377E+00  9.86803644E-01
  4.52855480E+00  4.32747283E-04 -4.98887697E-04  6.72494757E+00 -1.17163020E-04
 -8.35825865E-03
Number of symbols in /Mol/                 I                0
Force Field                                I                0
Atom Types                                 C   N=           7
                                                            
                        
Int Atom Types                             I   N=           7
           0           0           0           0           0           0
           0
MM charges                                 R   N=           7
  0.00000000E+00  0.00000000E+00  0.00000000E+00  0.00000000E+00  0.00000000E+00
  0.00000000E+00  0.00000000E+00
Integer atomic weights                     I   N=           7
          12          35           1           1           1          12
          14
Real atomic weights                        R   N=           7
  1.20000000E+01  3.49688527E+01  1.00782504E+00  1.00782504E+00  1.00782504E+00
  1.20000000E+01  1.40030740E+01
Atom fragment info                         I   N=           7
           0           0           0           0           0           0
           0
Atom residue num                           I   N=           7
           0           0           0           0           0           0
           0
Nuclear spins                              I   N=           7
           0           3           1           1           1           0
           2
Nuclear ZEff                               R   N=           7
 -3.60000000E+00 -1.42400000E+01 -1.00000000E+00 -1.00000000E+00 -1.00000000E+00
 -3.60000000E+00 -4.55000000E+00
Nuclear ZNuc                               R   N=           7
  6.00000000E+00  1.70000000E+01  1.00000000E+00  1.00000000E+00  1.00000000E+00
  6.00000000E+00  7.00000000E+00
Nuclear QMom                               R   N=           7
  0.00000000E+00 -8.16500000E+00  0.00000000E+00  0.00000000E+00  0.00000000E+00
  0.00000000E+00  2.04400000E+00
Nuclear GFac                               R   N=           7
  0.00000000E+00  8.21874000E-01  2.79284600E+00  2.79284600E+00  2.79284600E+00
  0.00000000E+00  4.03761000E-01
MicOpt                                     I   N=           7
          -1          -1          -1          -1          -1          -1
          -1
Number of residues                         I                0
Number of secondary structures             I                0
Number of contracted shells                I               33
Number of primitive shells                 I               72
Pure/Cartesian d shells                    I                1
Pure/Cartesian f shells                    I                0
Highest angular momentum                   I                2
Largest degree of contraction              I                6
Shell types                                I   N=          33
           0          -1          -1          -1           2           0
          -1          -1          -1          -1           2           0
           0           0           1           0           0           0
           1           0           0           0           1           0
          -1          -1          -1           2           0          -1
          -1          -1           2
Number of primitives per shell             I   N=          33
           6           3           1           1           1           6
           6           3           1           1           1           3
           1           1           1           3           1           1
           1           3           1           1           1           6
           3           1           1           1           6           3
           1           1           1
Shell to atom map                          I   N=          33
           1           1           1           1           1           2
           2           2           2           2           2           3
           3           3           3           4           4           4
           4           5           5           5           5           6
           6           6           6           6           7           7
           7           7           7
Primitive exponents                        R   N=          72
  3.04752488E+03  4.57369518E+02  1.03948685E+02  2.92101553E+01  9.28666296E+00
  3.16392696E+00  7.86827235E+00  1.88128854E+00  5.44249258E-01  1.68714478E-01
  4.38000000E-02  8.00000000E-01  2.51801000E+04  3.78035000E+03  8.60474000E+02
  2.42145000E+02  7.73349000E+01  2.62470000E+01  4.91765000E+02  1.16984000E+02
  3.74153000E+01  1.37834000E+01  5.45215000E+00  2.22588000E+00  3.18649000E+00
  1.14427000E+00  4.20377000E-01  1.42657000E-01  4.83000000E-02  7.50000000E-01
  1.87311370E+01  2.82539436E+00  6.40121692E-01  1.61277759E-01  3.60000000E-02
  1.10000000E+00  1.87311370E+01  2.82539436E+00  6.40121692E-01  1.61277759E-01
  3.60000000E-02  1.10000000E+00  1.87311370E+01  2.82539436E+00  6.40121692E-01
  1.61277759E-01  3.60000000E-02  1.10000000E+00  3.04752488E+03  4.57369518E+02
  1.03948685E+02  2.92101553E+01  9.28666296E+00  3.16392696E+00  7.86827235E+00
  1.88128854E+00  5.44249258E-01  1.68714478E-01  4.38000000E-02  8.00000000E-01
  4.17351146E+03  6.27457911E+02  1.42902093E+02  4.02343293E+01  1.28202129E+01
  4.39043701E+00  1.16263619E+01  2.71627981E+00  7.72218397E-01  2.12031498E-01
  6.39000000E-02  8.00000000E-01
Contraction coefficients                   R   N=          72
  1.83473713E-03  1.40373228E-02  6.88426223E-02  2.32184443E-01  4.67941348E-01
  3.62311985E-01 -1.19332420E-01 -1.60854152E-01  1.14345644E+00  1.00000000E+00
  1.00000000E+00  1.00000000E+00  1.83295985E-03  1.40341988E-02  6.90973943E-02
  2.37451980E-01  4.83033960E-01  3.39855972E-01 -2.29739142E-03 -3.07137189E-02
 -1.12528069E-01  4.50163278E-02  5.89353363E-01  4.65206287E-01 -2.51828028E-01
  6.15892514E-02  1.06018433E+00  1.00000000E+00  1.00000000E+00  1.00000000E+00
  3.34946043E-02  2.34726953E-01  8.13757326E-01  1.00000000E+00  1.00000000E+00
  1.00000000E+00  3.34946043E-02  2.34726953E-01  8.13757326E-01  1.00000000E+00
  1.00000000E+00  1.00000000E+00  3.34946043E-02  2.34726953E-01  8.13757326E-01
  1.00000000E+00  1.00000000E+00  1.00000000E+00  1.83473713E-03  1.40373228E-02
  6.88426223E-02  2.32184443E-01  4.67941348E-01  3.62311985E-01 -1.19332420E-01
 -1.60854152E-01  1.14345644E+00  1.00000000E+00  1.00000000E+00  1.00000000E+00
  1.83477216E-03  1.39946270E-02  6.85865518E-02  2.32240873E-01  4.69069948E-01
  3.60455199E-01 -1.14961182E-01 -1.69117479E-01  1.14585195E+00  1.00000000E+00
  1.00000000E+00  1.00000000E+00
P(S=P) Contraction coefficients            R   N=          72
  0.00000000E+00  0.00000000E+00  0.00000000E+00  0.00000000E+00  0.00000000E+00
  0.00000000E+00  6.89990666E-02  3.16423961E-01  7.44308291E-01  1.00000000E+00
  1.00000000E+00  0.00000000E+00  0.00000000E+00  0.00000000E+00  0.00000000E+00
  0.00000000E+00  0.00000000E+00  0.00000000E+00  3.98940088E-03  3.03177067E-02
  1.29880029E-01  3.27951072E-01  4.53527100E-01  2.52154056E-01 -1.42993147E-02
  3.23572333E-01  7.43507765E-01  1.00000000E+00  1.00000000E+00  0.00000000E+00
  0.00000000E+00  0.00000000E+00  0.00000000E+00  0.00000000E+00  0.00000000E+00
  0.00000000E+00  0.00000000E+00  0.00000000E+00  0.00000000E+00  0.00000000E+00
  0.00000000E+00  0.00000000E+00  0.00000000E+00  0.00000000E+00  0.00000000E+00
  0.00000000E+00  0.00000000E+00  0.00000000E+00  0.00000000E+00  0.00000000E+00
  0.00000000E+00  0.00000000E+00  0.00000000E+00  0.00000000E+00  6.89990666E-02
  3.16423961E-01  7.44308291E-01  1.00000000E+00  1.00000000E+00  0.00000000E+00
  0.00000000E+00  0.00000000E+00  0.00000000E+00  0.00000000E+00  0.00000000E+00
  0.00000000E+00  6.75797439E-02  3.23907296E-01  7.40895140E-01  1.00000000E+00
  1.00000000E+00  0.00000000E+00
Coordinates of each shell                  R   N=          99
  1.77311302E+00 -3.15584263E-04  1.76764982E-02  1.77311302E+00 -3.15584263E-04
  1.76764982E-02  1.77311302E+00 -3.15584263E-04  1.76764982E-02  1.77311302E+00
 -3.15584263E-04  1.76764982E-02  1.77311302E+00 -3.15584263E-04  1.76764982E-02
 -4.94703654E+00  3.21253441E-05 -4.54668106E-03 -4.94703654E+00  3.21253441E-05
 -4.54668106E-03 -4.94703654E+00  3.21253441E-05 -4.54668106E-03 -4.94703654E+00
  3.21253441E-05 -4.54668106E-03 -4.94703654E+00  3.21253441E-05 -4.54668106E-03
 -4.94703654E+00  3.21253441E-05 -4.54668106E-03  1.04305323E+00  4.35203926E-03
 -1.91225166E+00  1.04305323E+00  4.35203926E-03 -1.91225166E+00  1.04305323E+00
  4.35203926E-03 -1.91225166E+00  1.04305323E+00  4.35203926E-03 -1.91225166E+00
  1.06708299E+00  1.67455435E+00  9.94827421E-01  1.06708299E+00  1.67455435E+00
  9.94827421E-01  1.06708299E+00  1.67455435E+00  9.94827421E-01  1.06708299E+00
  1.67455435E+00  9.94827421E-01  1.06726629E+00 -1.67977377E+00  9.86803644E-01
  1.06726629E+00 -1.67977377E+00  9.86803644E-01  1.06726629E+00 -1.67977377E+00
  9.86803644E-01  1.06726629E+00 -1.67977377E+00  9.86803644E-01  4.52855480E+00
  4.32747283E-04 -4.98887697E-04  4.52855480E+00  4.32747283E-04 -4.98887697E-04
  4.52855480E+00  4.32747283E-04 -4.98887697E-04  4.52855480E+00  4.32747283E-04
 -4.98887697E-04  4.52855480E+00  4.32747283E-04 -4.98887697E-04  6.72494757E+00
 -1.17163020E-04 -8.35825865E-03  6.72494757E+00 -1.17163020E-04 -8.35825865E-03
  6.72494757E+00 -1.17163020E-04 -8.35825865E-03  6.72494757E+00 -1.17163020E-04
 -8.35825865E-03  6.72494757E+00 -1.17163020E-04 -8.35825865E-03
Num ILSW                                   I              100
ILSW                                       I   N=         100
           0           1           0           0           2           0
           0           0           0           0         402          -1
           5           0           0           0           2           0
           0           0           0           0           1           0
           1           1           0           0           0           0
           0           0      100000           0          -1           0
           0           0           0           0           0           0
           0           0           0           1           0           0
           0 -2000000000           1           0           0           0
           0           0           4          52           0           0
           0           0           5           0           0           0
           0           0           0           7           0           1
           0           0           0           0           0           0
           0           0           0           0           0           0
           0           0           0           0           0           0
           0           0           0           0           0           0
           0           0           0           0
Num RLSW                                   I               52
RLSW                                       R   N=          52
  8.00000000E-01  7.20000000E-01  1.00000000E+00  8.10000000E-01  2.00000000E-01
  0.00000000E+00  0.00000000E+00  1.00000000E+00  0.00000000E+00  0.00000000E+00
  0.00000000E+00  0.00000000E+00  1.00000000E+00  0.00000000E+00  0.00000000E+00
  0.00000000E+00  0.00000000E+00  1.00000000E+00  0.00000000E+00  0.00000000E+00
  0.00000000E+00  0.00000000E+00  1.00000000E+00  0.00000000E+00  0.00000000E+00
  0.00000000E+00  0.00000000E+00  1.00000000E+00  0.00000000E+00  0.00000000E+00
  0.00000000E+00  0.00000000E+00  1.00000000E+00  0.00000000E+00  0.00000000E+00
  0.00000000E+00  0.00000000E+00  0.00000000E+00  1.00000000E+00  1.00000000E+00
  0.00000000E+00  1.00000000E+00  0.00000000E+00  0.00000000E+00  0.00000000E+00
  0.00000000E+00  0.00000000E+00  0.00000000E+00  0.00000000E+00  0.00000000E+00
  0.00000000E+00  0.00000000E+00
MxBond                                     I                4
NBond                                      I   N=           7
           4           0           1           1           1           2
           1
IBond                                      I   N=          28
           3           4           5           6           0           0
           0           0           1           0           0           0
           1           0           0           0           1           0
           0           0           1           7           0           0
           6           0           0           0
RBond                                      R   N=          28
  1.00000000E+00  1.00000000E+00  1.00000000E+00  1.00000000E+00  0.00000000E+00
  0.00000000E+00  0.00000000E+00  0.00000000E+00  1.00000000E+00  0.00000000E+00
  0.00000000E+00  0.00000000E+00  1.00000000E+00  0.00000000E+00  0.00000000E+00
  0.00000000E+00  1.00000000E+00  0.00000000E+00  0.00000000E+00  0.00000000E+00
  1.00000000E+00  3.00000000E+00  0.00000000E+00  0.00000000E+00  3.00000000E+00
  0.00000000E+00  0.00000000E+00  0.00000000E+00
Virial Ratio                               R      2.004745728331872E+00
SCF Energy                                 R     -5.930594361957399E+02
Total Energy                               R     -5.930594361957399E+02
RMS Force                                  R      1.616356384565403E-03
RMS Density                                R      9.903445157184212E-09
NImag                                      I                2
Job Status                                 I                1
Nuclear derivative order                   I                2
External E-field                           R   N=          35
  0.00000000E+00  0.00000000E+00  0.00000000E+00  0.00000000E+00  0.00000000E+00
  0.00000000E+00  0.00000000E+00  0.00000000E+00  0.00000000E+00  0.00000000E+00
  0.00000000E+00  0.00000000E+00  0.00000000E+00  0.00000000E+00  0.00000000E+00
  0.00000000E+00  0.00000000E+00  0.00000000E+00  0.00000000E+00  0.00000000E+00
  0.00000000E+00  0.00000000E+00  0.00000000E+00  0.00000000E+00  0.00000000E+00
  0.00000000E+00  0.00000000E+00  0.00000000E+00  0.00000000E+00  0.00000000E+00
  0.00000000E+00  0.00000000E+00  0.00000000E+00  0.00000000E+00  0.00000000E+00
IOpCl                                      I                0
IROHF                                      I                0
Alpha Orbital Energies                     R   N=          98
 -1.01253592E+02 -1.42361542E+01 -1.01334455E+01 -1.01076389E+01 -9.16685122E+00
 -6.92466404E+00 -6.92464724E+00 -6.92464534E+00 -8.05593899E-01 -6.53224470E-01
 -5.03847538E-01 -3.90714553E-01 -3.37163267E-01 -3.36922909E-01 -2.65840934E-01
 -2.24971352E-01 -2.24940045E-01 -5.14678084E-02 -5.00872256E-02 -5.00787318E-02
  9.64268717E-02  1.29791701E-01  1.30018798E-01  1.40304731E-01  1.41652123E-01
  1.41709917E-01  1.96560464E-01  2.01251259E-01  2.01428407E-01  2.19233395E-01
  2.25705765E-01  2.25985397E-01  2.46441355E-01  2.57737044E-01  2.57914076E-01
  2.81777540E-01  3.22699040E-01  3.29420846E-01  3.29484763E-01  3.34847608E-01
  3.34971419E-01  3.35281895E-01  3.90630704E-01  4.02514973E-01  4.77989238E-01
  6.99027375E-01  7.80004477E-01  7.80059245E-01  8.36040136E-01  8.36204273E-01
  8.46368909E-01  8.51911057E-01  8.52184830E-01  8.82040762E-01  9.79289261E-01
  9.98153169E-01  1.01543509E+00  1.01559786E+00  1.09022486E+00  1.10919698E+00
  1.10929448E+00  1.15536624E+00  1.15537484E+00  1.16001384E+00  1.16010369E+00
  1.18557532E+00  1.22926484E+00  1.26337016E+00  1.44328002E+00  1.44362638E+00
  1.53077048E+00  1.61885621E+00  1.61886113E+00  1.85307650E+00  1.85344417E+00
  1.87495404E+00  2.04530007E+00  2.04560089E+00  2.13548062E+00  2.22237295E+00
  2.22256807E+00  2.28804642E+00  2.38728661E+00  2.38772051E+00  2.72837017E+00
  2.79198971E+00  2.79220747E+00  3.03793240E+00  3.07813416E+00  3.07889850E+00
  3.27228183E+00  3.43970106E+00  3.53668895E+00  3.53738377E+00  4.23638543E+00
  4.42340614E+00  4.56574835E+00  4.79785623E+00
Alpha MO coefficients                      R   N=        9604
 -8.13420859E-07 -1.01299153E-05 -7.80601115E-06 -1.19811049E-09  6.94207550E-10
  1.56748301E-04  1.25125007E-04  5.15192862E-08 -1.12374394E-06  7.76285423E-04
  2.43954729E-04  5.57799428E-08 -1.35814612E-06  8.06005111E-06  8.05563627E-07
  8.19575261E-07  3.90549955E-09 -3.18201466E-08  6.69787549E-10  9.95998053E-01
  1.51389125E-02  4.97720791E-06 -4.37569044E-10  7.54805586E-09 -2.10646443E-02
 -1.33956973E-05  6.65708778E-10 -3.06174337E-08  1.98799545E-03  3.22176819E-05
 -3.40413300E-10  4.25705112E-08 -3.37045540E-04 -3.72539205E-05 -6.77528842E-09
  2.33918207E-07  7.50266475E-03  7.50188462E-03  7.50188320E-03 -4.34343782E-10
  1.59468740E-08  5.92306621E-12  5.44602549E-06 -5.58328118E-06  5.62855344E-05
 -4.86572831E-06 -1.95270201E-09 -3.58737147E-07  5.29917196E-06 -4.49574412E-06
  5.47552764E-05 -5.13956584E-06  1.64930931E-07  1.61319221E-07  5.30285882E-06
 -4.46735445E-06  5.47494168E-05 -5.14615566E-06 -1.65507224E-07  1.57212105E-07
  2.29703441E-06  1.21316922E-05  6.77159076E-07 -3.41112986E-09  4.04333829E-08
 -4.74298750E-05  1.88084742E-04  2.92324994E-08 -1.16910997E-06 -9.55505032E-04
  2.84150266E-04  1.24264588E-07 -2.48132350E-06 -3.09933045E-06  3.40406182E-06
  3.42068606E-06 -3.47256331E-09  6.67754455E-08  2.79443095E-10  2.96918825E-06
  1.21681387E-05 -1.47439137E-06  2.14699235E-09 -1.81658700E-09 -1.60089399E-04
  4.97170799E-05 -3.22488024E-08 -8.69705291E-08  7.05448519E-05 -5.82627328E-05
 -3.86668910E-08  8.02713078E-07  4.82102092E-06  5.76409346E-06  5.76153531E-06
  4.38413974E-09 -2.63469102E-08 -1.45379534E-11  9.37975887E-06 -1.88279771E-04
  2.69208026E-04  7.62370530E-08 -1.93924129E-06  9.52605134E-04  6.13373848E-04
  4.51848476E-07 -5.66838361E-06  9.04338839E-03  2.18906356E-03  7.69470421E-07
 -1.25522567E-05  4.70464279E-04  2.65744166E-05  2.68440700E-05  2.86398127E-07
 -4.08368832E-06  2.98354353E-09  8.10106739E-08  2.18534686E-06  3.21291818E-06
 -2.10557696E-10  1.69991052E-08  6.67789313E-06 -1.66648952E-05  5.98464703E-10
 -8.14732485E-08 -6.62893296E-05  2.54099519E-05  8.57104550E-09  4.00594756E-08
  2.75228873E-04  9.60023218E-05 -8.49067395E-08  1.27877724E-06  3.24094457E-06
  1.11296987E-06  1.12674348E-06 -3.71379366E-09  5.34940347E-08  6.30336970E-11
  1.26276114E-06 -8.14245180E-05 -2.61238681E-04 -1.81338028E-06 -1.32599892E-08
 -2.23455162E-06  1.59478943E-06 -8.07670809E-05 -2.58303134E-04 -1.64791069E-06
  1.76790910E-06  1.14726115E-06  1.61644411E-06 -8.05198941E-05 -2.58331836E-04
 -1.60285771E-06 -1.82993800E-06  1.14938701E-06  7.56116718E-05  3.20976964E-04
 -5.62443387E-04  1.59787738E-07  1.90875302E-06  1.45137148E-05  1.27189514E-03
  1.68602884E-07 -7.28252714E-06 -6.33455146E-03  3.86011696E-03  6.09646336E-07
 -2.65930729E-05 -1.44855922E-03  1.64954034E-05  1.64707359E-05  2.26705936E-07
  7.20048856E-06  1.98234467E-09  9.92764236E-01  3.47075850E-02 -2.15104850E-03
  6.94145881E-07  7.12482164E-06  3.63127983E-03  8.04933674E-04 -3.56685362E-07
 -2.46041889E-06 -3.40125082E-03 -3.80539262E-04 -2.99719329E-07  5.47118929E-06
 -7.30975862E-03 -8.36418852E-03 -8.36417797E-03 -3.23533648E-07 -4.23729595E-06
  2.04414880E-09  6.35864940E-03  1.36036015E-04 -4.37025026E-04 -2.43548559E-07
  3.57412790E-06  6.99408443E-03  2.44280938E-03  1.34137765E-06 -2.19525834E-05
  6.39100975E-02  2.11963222E-02  5.03448561E-06 -1.01126164E-04 -1.03571966E-03
 -2.11743166E-04 -2.10956351E-04 -3.66880733E-07  6.76826919E-06 -1.95210920E-08
  2.98528817E-07  6.87478562E-06  1.95167746E-05 -3.84030933E-09  1.00604648E-07
  2.38690451E-05 -1.13342399E-04  1.92215495E-08 -5.24587487E-07 -3.59097612E-04
  3.23230774E-04 -3.45131396E-09  4.63613600E-07  2.89675187E-03  1.19869537E-03
 -4.29803332E-07  1.49013423E-05  3.08444526E-05 -1.00104926E-05 -9.91101125E-06
 -2.42033445E-08  6.86363135E-07  2.10869203E-09 -1.16798323E-04 -8.11984634E-04
 -2.43896035E-04  5.01260394E-05 -7.03729746E-08  9.06913955E-06 -1.14887869E-04
 -8.12937247E-04 -2.03518310E-04  5.11275417E-05 -8.58323059E-06 -5.01865014E-06
 -1.14786995E-04 -8.12764855E-04 -1.99752164E-04  5.07742959E-05  8.69150122E-06
 -5.07899213E-06  9.92752705E-01  5.03315250E-02  2.24237483E-04 -3.88160174E-07
  2.29715349E-06 -1.03962547E-02  7.12212831E-03  1.03786352E-06 -4.13961377E-05
 -6.90772011E-02  1.95289813E-02  9.30269840E-06 -1.95423670E-04 -7.86658860E-03
 -9.90933661E-03 -9.90935814E-03 -2.08996604E-07 -1.07140389E-05  9.40990054E-09
 -4.75670506E-04  3.14777806E-04  3.28088709E-04 -1.65778368E-07 -3.30076385E-08
 -7.37083756E-03  3.00669250E-03 -1.31013090E-06 -1.12620394E-05  7.55415474E-03
 -5.67754342E-03 -2.27527275E-06  6.22293149E-05 -1.31190157E-05  3.19879576E-04
  3.19922209E-04  4.35658504E-07 -5.02716744E-07  4.74830905E-10  9.93015702E-01
  5.06231844E-02  7.32854988E-04  2.79621804E-07 -6.12084604E-07 -2.45495820E-02
 -4.63939549E-03 -2.60687205E-06  2.99870584E-05  3.94771632E-02  1.60304874E-02
  2.85381020E-06 -5.93459645E-05 -8.94567830E-03 -8.85417467E-03 -8.85578658E-03
  2.16938425E-08  1.24943503E-06 -7.51916069E-08  6.21007516E-07  1.21589773E-05
  5.55685333E-06 -2.49229036E-09  2.39437665E-07  3.10943441E-05 -3.24395772E-05
  1.51703421E-08 -1.33612682E-06 -3.37085316E-04  2.10290538E-04 -4.33450817E-08
  2.66980218E-06  2.76352833E-03  1.17424122E-03 -2.15530815E-07  1.22999893E-05
  3.16684202E-05  1.70383590E-05  1.69182816E-05 -1.59811419E-08  8.67284273E-07
  5.18047834E-10  4.06283049E-06  3.15865585E-03  5.46896255E-05  2.66692380E-05
  4.12877276E-07 -1.25130667E-04  4.27831938E-06  3.15269101E-03  8.67648950E-05
  2.57423701E-05  1.09027445E-04  6.31711400E-05  3.90153250E-06  3.15179814E-03
  8.89906035E-05  2.59490457E-05 -1.09277339E-04  6.27473484E-05 -6.66369768E-03
 -4.88041019E-04  2.65413695E-04  6.98696001E-08 -8.98789813E-07  3.61043145E-03
 -9.57807609E-03 -9.71203504E-07  5.15089652E-05 -4.54254623E-02  1.15440784E-02
  6.22372346E-06 -1.45214225E-04 -8.29819240E-04 -5.66202798E-06 -5.36479004E-06
 -1.14832228E-07  5.99570784E-06 -1.53200611E-08 -1.96923687E-05 -5.97511177E-05
 -2.45693493E-04 -3.55972498E-08  1.96533902E-06  5.46080202E-03 -1.80946668E-03
  2.00098639E-06 -5.35924555E-06  4.63767419E-03 -2.28632480E-03 -1.63161541E-06
  4.56285699E-05  1.47725373E-04 -7.80407090E-05 -7.80069202E-05 -3.73485650E-07
  7.34134109E-07  3.74047715E-09  4.63302065E-05  2.71248581E-04  1.04368596E-04
  1.59993920E-08  9.97747750E-08 -3.07596858E-03 -2.56443342E-03 -1.22345310E-06
  2.97948809E-05  1.23738051E-02  4.59028758E-03  2.71421851E-07 -6.23710729E-06
 -1.23703225E-04  1.00978424E-04  9.91735993E-05 -9.23640529E-08  1.28328980E-06
 -2.13481557E-08 -2.84646499E-01  1.02262232E+00  2.90138899E-04 -4.18509941E-08
 -1.55346728E-08  7.48949465E-02  3.23957045E-04 -9.67680831E-09  5.87913799E-07
 -2.00663778E-02 -9.56009893E-04  6.40608225E-10 -9.55696535E-07  9.26080113E-03
  2.68483364E-03  3.07358688E-08 -8.14655434E-07 -1.57022378E-02 -1.57285222E-02
 -1.57282242E-02 -2.75775275E-10 -2.29223873E-07  5.94592291E-10  4.26779916E-05
 -9.04985068E-04 -2.85912295E-03  8.67598443E-05  2.01395221E-07 -6.19709321E-05
  4.89573976E-05 -9.36863292E-04 -2.75320454E-03  8.71850337E-05  5.64752656E-05
  3.19715406E-05  4.88944394E-05 -9.37623921E-04 -2.75169463E-03  8.72565750E-05
 -5.66406994E-05  3.17686433E-05 -2.35780551E-05 -1.64106896E-04 -2.29138853E-05
  1.23196484E-08 -2.21321073E-07 -6.22328725E-04 -4.47125508E-03 -1.63324070E-07
  2.31023323E-05 -4.40495161E-03  9.91979349E-04  1.23612754E-06 -4.31834924E-05
  7.10208235E-05 -1.23940817E-05 -1.27751609E-05  6.87434400E-08 -6.95740943E-07
  1.17953494E-10 -1.01111207E-04 -3.96139744E-04  1.97186855E-05 -8.62810670E-08
  6.40668055E-07  4.81814498E-03 -1.44057079E-03  9.48090239E-07  5.32880860E-07
 -2.22255733E-03  9.47354499E-04 -3.81936571E-07  8.07575481E-06 -1.59872918E-04
 -2.07549844E-04 -2.07449297E-04 -8.94528590E-08  2.87272398E-07  3.56791785E-10
  3.45246860E-05  3.35935721E-04  1.24250290E-04  5.90242070E-08 -3.29155581E-07
 -5.85043886E-03 -4.64949296E-03 -1.36240229E-06  7.40249559E-05 -7.88998068E-02
 -2.99804750E-02 -5.91242236E-06  1.05520911E-04 -3.06708573E-04  3.34638439E-05
  2.81971547E-05 -2.03532373E-07  5.04556461E-07  5.89409113E-08  1.11395574E-04
 -2.99750435E-04  9.89836840E-01 -2.30108752E-03 -4.25702822E-02  2.99895499E-04
  2.99911187E-02 -6.86880667E-05 -1.26836566E-03 -1.31187705E-03 -1.25687896E-02
  2.62888153E-05  4.83269454E-04 -2.05876991E-03  3.59290452E-03 -1.01567325E-05
 -2.24543820E-04  1.40967969E-04  1.82168627E-04  1.82478078E-04 -6.32935095E-08
 -3.13874318E-06 -8.96361688E-09 -1.73045289E-05 -6.63990860E-04 -2.98094611E-03
  1.73522141E-04  2.21834557E-07 -5.03868832E-05 -1.98967138E-06 -7.55091064E-04
 -2.72250141E-03  1.74854401E-04  5.30228274E-05  2.86903575E-05 -2.57735906E-06
 -7.53555162E-04 -2.73858674E-03  1.75186129E-04 -5.29433788E-05  2.84262201E-05
 -1.28156277E-04 -6.38408672E-04  2.40188523E-05  2.49277997E-07 -4.45849296E-06
  7.18084134E-04 -9.19521072E-03 -1.22948973E-06  5.56598998E-05  9.27186386E-02
 -2.73691934E-02 -1.58260412E-05  2.48839019E-04 -4.33075985E-05 -1.69036662E-04
 -1.69943634E-04  2.27224977E-07 -1.32323071E-06 -1.95800017E-09 -1.34214784E-04
 -5.98591613E-04  4.51979185E-05  1.19439441E-08 -9.92219215E-07  8.20784104E-03
 -2.99566334E-03  1.10152905E-06  1.20071184E-05 -3.44596784E-03  4.38415328E-03
  5.25556839E-06 -7.06386352E-05 -1.02450024E-04 -2.56324140E-04 -2.56064647E-04
 -2.01323542E-07  7.04868145E-07 -8.89185979E-09  5.65978835E-07  1.09333376E-05
  5.81506303E-06 -3.25427635E-09  9.67544277E-06 -2.38439595E-04 -2.32573626E-04
  2.27486521E-07 -4.91978962E-04 -4.00036747E-03 -1.52320857E-03 -6.06718600E-07
  3.44259897E-04 -1.55911859E-05 -3.19145390E-05  3.27131667E-05 -2.25149351E-08
  3.14724777E-05 -2.49653408E-07  4.83544676E-06 -1.28577080E-05  4.25645091E-02
 -6.08545927E-04  9.89926211E-01  1.32615862E-05  1.29186790E-03 -1.81449917E-05
  2.95355964E-02 -5.54632955E-05 -5.47993450E-04  6.90188956E-06 -1.13040656E-02
 -1.31020974E-04  1.36249640E-04 -2.68179520E-06  4.64512076E-03  5.77385238E-06
  1.11920996E-05  5.99409504E-06 -1.96951668E-08  4.01279638E-05  1.67309910E-08
  9.56890376E-05 -7.37240575E-04  3.42223792E-03 -1.98146275E-05  1.94929334E-07
 -7.38888277E-05 -4.62869855E-05  2.80022665E-04 -1.92667637E-03  2.26475399E-05
 -2.91861983E-05 -1.09291001E-05 -4.59827079E-05  2.77892402E-04 -1.91474307E-03
  2.25810288E-05  2.90508574E-05 -1.06614334E-05 -6.21480106E-06 -3.10256592E-05
  9.06682836E-07  7.71199719E-09  2.04200234E-05  1.68167376E-05 -4.45568151E-04
 -1.36412878E-07  5.10325314E-06  4.73451685E-03 -1.40623636E-03 -6.60812391E-07
  1.15636725E-03 -2.76998968E-06 -1.01524707E-05 -5.68260411E-06  1.55350867E-08
 -1.72269516E-05 -2.69110147E-08 -6.97240666E-06 -3.07807294E-05  2.43836512E-06
 -1.80987171E-08 -7.57582808E-06  4.12550271E-04 -1.52434826E-04  1.53056072E-07
  4.86963223E-05 -1.83639376E-04  2.33976342E-04  5.21462159E-08 -4.78995006E-04
 -5.13393589E-06 -1.09968891E-05 -1.62134083E-05 -1.34607205E-08 -9.46337007E-07
  1.72602127E-08  8.78128873E-08  8.13480625E-07  2.96479149E-07  7.97248673E-06
  3.15621659E-09 -1.34123834E-05 -1.04937436E-05 -4.75207882E-04 -8.34992395E-08
 -1.61770297E-04 -6.23659409E-05  3.04004351E-04  2.61333798E-07 -6.97200187E-07
  2.91343339E-07 -1.27476616E-07  2.92415585E-05  2.23759389E-08 -3.60819344E-05
  2.48830166E-07 -6.57829453E-07  2.32492023E-03  9.90838829E-01  5.09117420E-04
  6.99891279E-07  7.03949980E-05  2.95605610E-02  1.52061029E-05 -3.14759767E-06
 -2.93764042E-05 -1.13081748E-02 -5.86460103E-06 -3.75658394E-06  8.89333937E-06
  4.63527322E-03  2.47236531E-06  3.41914949E-07  3.98659334E-07  4.39653070E-07
  4.00351253E-05  2.10420808E-08  3.11200039E-06 -2.14063414E-07 -2.18530280E-07
 -1.23755969E-05  4.50281014E-07  5.13551149E-06  2.31819738E-08 -8.19930781E-05
  5.70746343E-04 -3.00690880E-03  2.43729339E-05 -4.91651647E-05 -3.16885063E-05
  8.21048430E-05 -5.75168900E-04  3.00009385E-03 -2.36303901E-05 -4.96509948E-05
  3.16201081E-05 -2.76516948E-07 -1.38869519E-06  6.12340180E-08  2.00087289E-05