RxCoord=-9.68549 DE=0.07                                                
Freq      RB3LYP                                                      6-31++G(d,p)        
Number of atoms                            I                7
Info1-9                                    I   N=           9
          16          16           0           0           0         100
           6          18        -502
Full Title                                 C   N=           2
RxCoord=-9.68549 DE=0.07
Route                                      C   N=           6
#p b3lyp 6-31++g(d,p) scf=verytight NoSymm freq=noraman int=
ultrafine   
Charge                                     I               -1
Multiplicity                               I                1
Number of electrons                        I               40
Number of alpha electrons                  I               20
Number of beta electrons                   I               20
Number of basis functions                  I               98
Number of independent functions            I               98
Number of point charges in /Mol/           I                0
Number of translation vectors              I                0
Atomic numbers                             I   N=           7
           6          17           1           1           1           6
           7
Nuclear charges                            R   N=           7
  6.00000000E+00  1.70000000E+01  1.00000000E+00  1.00000000E+00  1.00000000E+00
  6.00000000E+00  7.00000000E+00
Current cartesian coordinates              R   N=          21
  1.75215217E+00 -1.41729459E-04  1.51083604E-02 -4.92227735E+00  3.21253441E-05
 -4.58825503E-03  1.02440352E+00  4.30668584E-03 -1.91558136E+00  1.04404723E+00
  1.67445041E+00  9.90885452E-01  1.04417762E+00 -1.67937126E+00  9.83031751E-01
  4.50743333E+00 -7.93684972E-05  7.80456889E-04  6.70383933E+00  1.51178090E-04
 -6.35703868E-03
Number of symbols in /Mol/                 I                0
Force Field                                I                0
Atom Types                                 C   N=           7
                                                            
                        
Int Atom Types                             I   N=           7
           0           0           0           0           0           0
           0
MM charges                                 R   N=           7
  0.00000000E+00  0.00000000E+00  0.00000000E+00  0.00000000E+00  0.00000000E+00
  0.00000000E+00  0.00000000E+00
Integer atomic weights                     I   N=           7
          12          35           1           1           1          12
          14
Real atomic weights                        R   N=           7
  1.20000000E+01  3.49688527E+01  1.00782504E+00  1.00782504E+00  1.00782504E+00
  1.20000000E+01  1.40030740E+01
Atom fragment info                         I   N=           7
           0           0           0           0           0           0
           0
Atom residue num                           I   N=           7
           0           0           0           0           0           0
           0
Nuclear spins                              I   N=           7
           0           3           1           1           1           0
           2
Nuclear ZEff                               R   N=           7
 -3.60000000E+00 -1.42400000E+01 -1.00000000E+00 -1.00000000E+00 -1.00000000E+00
 -3.60000000E+00 -4.55000000E+00
Nuclear ZNuc                               R   N=           7
  6.00000000E+00  1.70000000E+01  1.00000000E+00  1.00000000E+00  1.00000000E+00
  6.00000000E+00  7.00000000E+00
Nuclear QMom                               R   N=           7
  0.00000000E+00 -8.16500000E+00  0.00000000E+00  0.00000000E+00  0.00000000E+00
  0.00000000E+00  2.04400000E+00
Nuclear GFac                               R   N=           7
  0.00000000E+00  8.21874000E-01  2.79284600E+00  2.79284600E+00  2.79284600E+00
  0.00000000E+00  4.03761000E-01
MicOpt                                     I   N=           7
          -1          -1          -1          -1          -1          -1
          -1
Number of residues                         I                0
Number of secondary structures             I                0
Number of contracted shells                I               33
Number of primitive shells                 I               72
Pure/Cartesian d shells                    I                1
Pure/Cartesian f shells                    I                0
Highest angular momentum                   I                2
Largest degree of contraction              I                6
Shell types                                I   N=          33
           0          -1          -1          -1           2           0
          -1          -1          -1          -1           2           0
           0           0           1           0           0           0
           1           0           0           0           1           0
          -1          -1          -1           2           0          -1
          -1          -1           2
Number of primitives per shell             I   N=          33
           6           3           1           1           1           6
           6           3           1           1           1           3
           1           1           1           3           1           1
           1           3           1           1           1           6
           3           1           1           1           6           3
           1           1           1
Shell to atom map                          I   N=          33
           1           1           1           1           1           2
           2           2           2           2           2           3
           3           3           3           4           4           4
           4           5           5           5           5           6
           6           6           6           6           7           7
           7           7           7
Primitive exponents                        R   N=          72
  3.04752488E+03  4.57369518E+02  1.03948685E+02  2.92101553E+01  9.28666296E+00
  3.16392696E+00  7.86827235E+00  1.88128854E+00  5.44249258E-01  1.68714478E-01
  4.38000000E-02  8.00000000E-01  2.51801000E+04  3.78035000E+03  8.60474000E+02
  2.42145000E+02  7.73349000E+01  2.62470000E+01  4.91765000E+02  1.16984000E+02
  3.74153000E+01  1.37834000E+01  5.45215000E+00  2.22588000E+00  3.18649000E+00
  1.14427000E+00  4.20377000E-01  1.42657000E-01  4.83000000E-02  7.50000000E-01
  1.87311370E+01  2.82539436E+00  6.40121692E-01  1.61277759E-01  3.60000000E-02
  1.10000000E+00  1.87311370E+01  2.82539436E+00  6.40121692E-01  1.61277759E-01
  3.60000000E-02  1.10000000E+00  1.87311370E+01  2.82539436E+00  6.40121692E-01
  1.61277759E-01  3.60000000E-02  1.10000000E+00  3.04752488E+03  4.57369518E+02
  1.03948685E+02  2.92101553E+01  9.28666296E+00  3.16392696E+00  7.86827235E+00
  1.88128854E+00  5.44249258E-01  1.68714478E-01  4.38000000E-02  8.00000000E-01
  4.17351146E+03  6.27457911E+02  1.42902093E+02  4.02343293E+01  1.28202129E+01
  4.39043701E+00  1.16263619E+01  2.71627981E+00  7.72218397E-01  2.12031498E-01
  6.39000000E-02  8.00000000E-01
Contraction coefficients                   R   N=          72
  1.83473713E-03  1.40373228E-02  6.88426223E-02  2.32184443E-01  4.67941348E-01
  3.62311985E-01 -1.19332420E-01 -1.60854152E-01  1.14345644E+00  1.00000000E+00
  1.00000000E+00  1.00000000E+00  1.83295985E-03  1.40341988E-02  6.90973943E-02
  2.37451980E-01  4.83033960E-01  3.39855972E-01 -2.29739142E-03 -3.07137189E-02
 -1.12528069E-01  4.50163278E-02  5.89353363E-01  4.65206287E-01 -2.51828028E-01
  6.15892514E-02  1.06018433E+00  1.00000000E+00  1.00000000E+00  1.00000000E+00
  3.34946043E-02  2.34726953E-01  8.13757326E-01  1.00000000E+00  1.00000000E+00
  1.00000000E+00  3.34946043E-02  2.34726953E-01  8.13757326E-01  1.00000000E+00
  1.00000000E+00  1.00000000E+00  3.34946043E-02  2.34726953E-01  8.13757326E-01
  1.00000000E+00  1.00000000E+00  1.00000000E+00  1.83473713E-03  1.40373228E-02
  6.88426223E-02  2.32184443E-01  4.67941348E-01  3.62311985E-01 -1.19332420E-01
 -1.60854152E-01  1.14345644E+00  1.00000000E+00  1.00000000E+00  1.00000000E+00
  1.83477216E-03  1.39946270E-02  6.85865518E-02  2.32240873E-01  4.69069948E-01
  3.60455199E-01 -1.14961182E-01 -1.69117479E-01  1.14585195E+00  1.00000000E+00
  1.00000000E+00  1.00000000E+00
P(S=P) Contraction coefficients            R   N=          72
  0.00000000E+00  0.00000000E+00  0.00000000E+00  0.00000000E+00  0.00000000E+00
  0.00000000E+00  6.89990666E-02  3.16423961E-01  7.44308291E-01  1.00000000E+00
  1.00000000E+00  0.00000000E+00  0.00000000E+00  0.00000000E+00  0.00000000E+00
  0.00000000E+00  0.00000000E+00  0.00000000E+00  3.98940088E-03  3.03177067E-02
  1.29880029E-01  3.27951072E-01  4.53527100E-01  2.52154056E-01 -1.42993147E-02
  3.23572333E-01  7.43507765E-01  1.00000000E+00  1.00000000E+00  0.00000000E+00
  0.00000000E+00  0.00000000E+00  0.00000000E+00  0.00000000E+00  0.00000000E+00
  0.00000000E+00  0.00000000E+00  0.00000000E+00  0.00000000E+00  0.00000000E+00
  0.00000000E+00  0.00000000E+00  0.00000000E+00  0.00000000E+00  0.00000000E+00
  0.00000000E+00  0.00000000E+00  0.00000000E+00  0.00000000E+00  0.00000000E+00
  0.00000000E+00  0.00000000E+00  0.00000000E+00  0.00000000E+00  6.89990666E-02
  3.16423961E-01  7.44308291E-01  1.00000000E+00  1.00000000E+00  0.00000000E+00
  0.00000000E+00  0.00000000E+00  0.00000000E+00  0.00000000E+00  0.00000000E+00
  0.00000000E+00  6.75797439E-02  3.23907296E-01  7.40895140E-01  1.00000000E+00
  1.00000000E+00  0.00000000E+00
Coordinates of each shell                  R   N=          99
  1.75215217E+00 -1.41729459E-04  1.51083604E-02  1.75215217E+00 -1.41729459E-04
  1.51083604E-02  1.75215217E+00 -1.41729459E-04  1.51083604E-02  1.75215217E+00
 -1.41729459E-04  1.51083604E-02  1.75215217E+00 -1.41729459E-04  1.51083604E-02
 -4.92227735E+00  3.21253441E-05 -4.58825503E-03 -4.92227735E+00  3.21253441E-05
 -4.58825503E-03 -4.92227735E+00  3.21253441E-05 -4.58825503E-03 -4.92227735E+00
  3.21253441E-05 -4.58825503E-03 -4.92227735E+00  3.21253441E-05 -4.58825503E-03
 -4.92227735E+00  3.21253441E-05 -4.58825503E-03  1.02440352E+00  4.30668584E-03
 -1.91558136E+00  1.02440352E+00  4.30668584E-03 -1.91558136E+00  1.02440352E+00
  4.30668584E-03 -1.91558136E+00  1.02440352E+00  4.30668584E-03 -1.91558136E+00
  1.04404723E+00  1.67445041E+00  9.90885452E-01  1.04404723E+00  1.67445041E+00
  9.90885452E-01  1.04404723E+00  1.67445041E+00  9.90885452E-01  1.04404723E+00
  1.67445041E+00  9.90885452E-01  1.04417762E+00 -1.67937126E+00  9.83031751E-01
  1.04417762E+00 -1.67937126E+00  9.83031751E-01  1.04417762E+00 -1.67937126E+00
  9.83031751E-01  1.04417762E+00 -1.67937126E+00  9.83031751E-01  4.50743333E+00
 -7.93684972E-05  7.80456889E-04  4.50743333E+00 -7.93684972E-05  7.80456889E-04
  4.50743333E+00 -7.93684972E-05  7.80456889E-04  4.50743333E+00 -7.93684972E-05
  7.80456889E-04  4.50743333E+00 -7.93684972E-05  7.80456889E-04  6.70383933E+00
  1.51178090E-04 -6.35703868E-03  6.70383933E+00  1.51178090E-04 -6.35703868E-03
  6.70383933E+00  1.51178090E-04 -6.35703868E-03  6.70383933E+00  1.51178090E-04
 -6.35703868E-03  6.70383933E+00  1.51178090E-04 -6.35703868E-03
Num ILSW                                   I              100
ILSW                                       I   N=         100
           0           1           0           0           2           0
           0           0           0           0         402          -1
           5           0           0           0           2           0
           0           0           0           0           1           0
           1           1           0           0           0           0
           0           0      100000           0          -1           0
           0           0           0           0           0           0
           0           0           0           1           0           0
           0 -2000000000           1           0           0           0
           0           0           4          52           0           0
           0           0           5           0           0           0
           0           0           0           7           0           1
           0           0           0           0           0           0
           0           0           0           0           0           0
           0           0           0           0           0           0
           0           0           0           0           0           0
           0           0           0           0
Num RLSW                                   I               52
RLSW                                       R   N=          52
  8.00000000E-01  7.20000000E-01  1.00000000E+00  8.10000000E-01  2.00000000E-01
  0.00000000E+00  0.00000000E+00  1.00000000E+00  0.00000000E+00  0.00000000E+00
  0.00000000E+00  0.00000000E+00  1.00000000E+00  0.00000000E+00  0.00000000E+00
  0.00000000E+00  0.00000000E+00  1.00000000E+00  0.00000000E+00  0.00000000E+00
  0.00000000E+00  0.00000000E+00  1.00000000E+00  0.00000000E+00  0.00000000E+00
  0.00000000E+00  0.00000000E+00  1.00000000E+00  0.00000000E+00  0.00000000E+00
  0.00000000E+00  0.00000000E+00  1.00000000E+00  0.00000000E+00  0.00000000E+00
  0.00000000E+00  0.00000000E+00  0.00000000E+00  1.00000000E+00  1.00000000E+00
  0.00000000E+00  1.00000000E+00  0.00000000E+00  0.00000000E+00  0.00000000E+00
  0.00000000E+00  0.00000000E+00  0.00000000E+00  0.00000000E+00  0.00000000E+00
  0.00000000E+00  0.00000000E+00
MxBond                                     I                4
NBond                                      I   N=           7
           4           0           1           1           1           2
           1
IBond                                      I   N=          28
           3           4           5           6           0           0
           0           0           1           0           0           0
           1           0           0           0           1           0
           0           0           1           7           0           0
           6           0           0           0
RBond                                      R   N=          28
  1.00000000E+00  1.00000000E+00  1.00000000E+00  1.00000000E+00  0.00000000E+00
  0.00000000E+00  0.00000000E+00  0.00000000E+00  1.00000000E+00  0.00000000E+00
  0.00000000E+00  0.00000000E+00  1.00000000E+00  0.00000000E+00  0.00000000E+00
  0.00000000E+00  1.00000000E+00  0.00000000E+00  0.00000000E+00  0.00000000E+00
  1.00000000E+00  3.00000000E+00  0.00000000E+00  0.00000000E+00  3.00000000E+00
  0.00000000E+00  0.00000000E+00  0.00000000E+00
Virial Ratio                               R      2.004743160036768E+00
SCF Energy                                 R     -5.930595382589665E+02
Total Energy                               R     -5.930595382589665E+02
RMS Force                                  R      1.615333170671503E-03
RMS Density                                R      2.389759227190750E-09
NImag                                      I                2
Job Status                                 I                1
Nuclear derivative order                   I                2
External E-field                           R   N=          35
  0.00000000E+00  0.00000000E+00  0.00000000E+00  0.00000000E+00  0.00000000E+00
  0.00000000E+00  0.00000000E+00  0.00000000E+00  0.00000000E+00  0.00000000E+00
  0.00000000E+00  0.00000000E+00  0.00000000E+00  0.00000000E+00  0.00000000E+00
  0.00000000E+00  0.00000000E+00  0.00000000E+00  0.00000000E+00  0.00000000E+00
  0.00000000E+00  0.00000000E+00  0.00000000E+00  0.00000000E+00  0.00000000E+00
  0.00000000E+00  0.00000000E+00  0.00000000E+00  0.00000000E+00  0.00000000E+00
  0.00000000E+00  0.00000000E+00  0.00000000E+00  0.00000000E+00  0.00000000E+00
IOpCl                                      I                0
IROHF                                      I                0
Alpha Orbital Energies                     R   N=          98
 -1.01253719E+02 -1.42355836E+01 -1.01328618E+01 -1.01067758E+01 -9.16698678E+00
 -6.92479224E+00 -6.92478539E+00 -6.92478381E+00 -8.05044119E-01 -6.52481766E-01
 -5.04052364E-01 -3.90012458E-01 -3.36380676E-01 -3.36152279E-01 -2.65327721E-01
 -2.24383741E-01 -2.24353466E-01 -5.16395445E-02 -5.02787169E-02 -5.02714938E-02
  9.67891295E-02  1.30301592E-01  1.30479766E-01  1.40531212E-01  1.42063566E-01
  1.42109020E-01  1.96775974E-01  2.01606366E-01  2.01749344E-01  2.19264962E-01
  2.26182445E-01  2.26396972E-01  2.46980040E-01  2.57896028E-01  2.58044128E-01
  2.82629243E-01  3.23082022E-01  3.29963202E-01  3.29990042E-01  3.35508072E-01
  3.35771133E-01  3.36101174E-01  3.91006172E-01  4.03031592E-01  4.78607427E-01
  6.98217296E-01  7.80537688E-01  7.80577527E-01  8.36865290E-01  8.36996587E-01
  8.46932002E-01  8.51676017E-01  8.51906193E-01  8.81698177E-01  9.80536421E-01
  1.00066351E+00  1.01629347E+00  1.01638492E+00  1.09145321E+00  1.10995005E+00
  1.11002933E+00  1.15521010E+00  1.15521898E+00  1.15990971E+00  1.15997951E+00
  1.18684078E+00  1.23010222E+00  1.26404943E+00  1.44401307E+00  1.44432683E+00
  1.53142149E+00  1.61940401E+00  1.61940520E+00  1.85369157E+00  1.85404797E+00
  1.87709054E+00  2.04593591E+00  2.04610631E+00  2.13644544E+00  2.22342557E+00
  2.22363112E+00  2.28934800E+00  2.38804098E+00  2.38832784E+00  2.73142753E+00
  2.79268925E+00  2.79283486E+00  3.03891201E+00  3.07892203E+00  3.07974576E+00
  3.27316360E+00  3.44052134E+00  3.53780635E+00  3.53848966E+00  4.23739324E+00
  4.42479310E+00  4.56653745E+00  4.79867323E+00
Alpha MO coefficients                      R   N=        9604
 -6.58988250E-07 -9.05002510E-06 -7.88756438E-06  2.62378855E-10  2.08109005E-09
  1.48435625E-04  1.20731827E-04  1.98617815E-09 -8.42789934E-07  8.10601847E-04
  2.54949230E-04  5.91705195E-09 -1.10007165E-06  7.45489215E-06  1.14784894E-06
  1.15138654E-06 -3.16781910E-10 -1.82195496E-08 -9.37980267E-11  9.95998047E-01
  1.51388817E-02  4.99634727E-06 -6.61503844E-11  6.73525071E-09 -2.10647263E-02
 -1.35364884E-05  2.72733908E-10 -2.83871635E-08  1.98864164E-03  3.26401627E-05
 -5.27698160E-10  4.37011452E-08 -3.36698861E-04 -3.73052441E-05 -1.11178748E-09
  1.91808329E-07  7.50260291E-03  7.50177844E-03  7.50177730E-03 -9.50026420E-11
  1.36027805E-08 -8.99504055E-12  5.69009439E-06 -6.76976646E-06  5.58621013E-05
 -4.57919195E-06  1.27943301E-09 -5.59930579E-07  5.58449817E-06 -5.90425202E-06
  5.45847297E-05 -4.82843258E-06  3.66259379E-07  2.64071990E-07  5.58292908E-06
 -5.89989418E-06  5.45728832E-05 -4.82966828E-06 -3.66802586E-07  2.61928778E-07
  2.23270897E-06  1.17004347E-05  7.32284869E-07  2.76308002E-10  3.06859770E-08
 -5.08133471E-05  1.76138925E-04  7.71145784E-09 -8.97524140E-07 -9.90788072E-04
  2.92413404E-04  2.80023674E-09 -2.01003743E-06 -2.93184083E-06  3.35183536E-06
  3.36486399E-06 -5.92562862E-11  5.01927307E-08 -1.13671889E-11  2.78107674E-06
  1.13690597E-05 -1.39795111E-06 -4.28086864E-10  1.57418061E-09 -1.48993658E-04
  4.55681518E-05  7.92305027E-09 -9.94044931E-08  7.54448184E-05 -5.98885715E-05
 -1.24613214E-09  6.52323466E-07  4.62700426E-06  5.37097974E-06  5.36887874E-06
 -6.14294365E-10 -1.78059240E-08 -5.48341545E-12  9.41127661E-06 -1.88127399E-04
  2.69312103E-04  5.47147618E-09 -1.52760734E-06  9.53086963E-04  6.14101318E-04
 -3.14322726E-08 -4.28213597E-06  9.13607829E-03  2.23077336E-03 -1.64021627E-08
 -9.72445189E-06  4.70547143E-04  2.66640207E-05  2.68675981E-05 -1.16969753E-08
 -3.09347361E-06 -1.57419642E-09  7.43122620E-08  1.99569305E-06  3.35740924E-06
 -1.75062979E-10  1.63535816E-08  6.46149204E-06 -1.75644100E-05  9.36034179E-10
 -8.01449795E-08 -6.44979341E-05  2.81748217E-05 -2.47526061E-09  6.84048809E-08
  2.82938298E-04  9.73839560E-05  2.76417378E-09  1.04262307E-06  3.05896026E-06
  5.38858515E-07  5.50506467E-07  1.23504058E-10  4.51054349E-08  5.26335839E-12
  1.22299398E-06 -8.03112988E-05 -2.58081730E-04 -1.80379559E-06  8.30469765E-09
 -2.25360211E-06  1.48570468E-06 -7.98197456E-05 -2.55496671E-04 -1.68447756E-06
  1.80624945E-06  1.11999820E-06  1.48267605E-06 -7.98677826E-05 -2.55461834E-04
 -1.69246164E-06 -1.80257755E-06  1.11001563E-06  7.57175362E-05  3.21369237E-04
 -5.62080665E-04 -6.23178300E-08  1.76319002E-06  1.36416838E-05  1.27431950E-03
  5.72608234E-08 -5.88881733E-06 -6.44913386E-03  3.89122212E-03  2.08204434E-07
 -2.18763055E-05 -1.44813192E-03  1.66169747E-05  1.65945875E-05 -1.46674262E-07
  6.23958537E-06  1.00831128E-10  9.92764193E-01  3.47080583E-02 -2.15033433E-03
 -2.51563516E-07  6.67864789E-06  3.62860151E-03  8.05824228E-04  1.13025384E-07
 -2.45240187E-06 -3.39549103E-03 -3.85247657E-04 -1.81753692E-09  4.36409006E-06
 -7.31011003E-03 -8.36416751E-03 -8.36415824E-03  1.30815696E-07 -3.87632609E-06
 -5.19383058E-10  6.29472779E-03  1.33357061E-04 -4.36377090E-04  5.78871681E-09
  2.75766152E-06  6.99560606E-03  2.44604543E-03 -4.21351290E-08 -1.73613700E-05
  6.50336133E-02  2.17015471E-02  1.47160802E-07 -7.92499739E-05 -1.03433075E-03
 -2.10446922E-04 -2.09753569E-04 -4.13578000E-09  5.27683667E-06  1.36896674E-09
  2.77115028E-07  6.21816409E-06  1.99955468E-05 -5.30612604E-10  9.30139081E-08
  2.25722783E-05 -1.16545662E-04  2.95088008E-09 -4.91378863E-07 -3.53069541E-04
  3.37360804E-04 -5.74230321E-09  5.61473705E-07  3.00439937E-03  1.23320514E-03
 -8.83255710E-08  1.29433400E-05  3.04984909E-05 -1.16363011E-05 -1.15545367E-05
 -3.25691664E-09  5.91252352E-07 -3.61476426E-10 -1.17117970E-04 -8.05819825E-04
 -2.09989229E-04  4.95019370E-05 -1.08736118E-08  9.46778216E-06 -1.15535737E-04
 -8.06316226E-04 -1.77208931E-04  5.04302412E-05 -8.78765455E-06 -5.17623440E-06
 -1.15549886E-04 -8.06391862E-04 -1.77610752E-04  5.04780109E-05  8.80543841E-06
 -5.11879162E-06  9.92754110E-01  5.03359165E-02  2.26523747E-04  7.22225398E-08
  1.50647320E-06 -1.04061703E-02  7.13874257E-03  3.08229930E-07 -3.34087100E-05
 -7.04368872E-02  1.99011386E-02  3.89956193E-07 -1.57382862E-04 -7.86408839E-03
 -9.90804405E-03 -9.90808308E-03  1.85700766E-07 -9.15117850E-06 -1.65298470E-09
 -4.75306329E-04  3.16424026E-04  3.28600192E-04  3.95833944E-08 -1.65394935E-07
 -7.39168641E-03  3.01685206E-03  4.45780772E-07 -1.10356688E-05  7.61256509E-03
 -5.73217520E-03 -2.82178480E-07  5.09048500E-05 -1.43874253E-05  3.20821964E-04
  3.20855143E-04 -9.32508372E-08  5.40303248E-08 -2.36006734E-11  9.93015943E-01
  5.06251590E-02  7.34890629E-04 -4.58078283E-08 -2.44657696E-07 -2.45493163E-02
 -4.63541794E-03  2.01598013E-07  2.31319134E-05  4.00956704E-02  1.63353133E-02
  2.29852123E-07 -4.48725226E-05 -8.94535379E-03 -8.85505606E-03 -8.85645277E-03
 -7.84946294E-09  1.00837987E-06  1.95638474E-08  6.47313178E-07  1.24169412E-05
  5.54965424E-06 -1.69007892E-09  2.07803680E-07  3.24072765E-05 -3.21499300E-05
  9.31033021E-09 -1.16220866E-06 -3.38904202E-04  2.10562220E-04 -1.77243687E-08
  2.38050620E-06  2.84679384E-03  1.20171824E-03 -9.64383889E-08  1.07551279E-05
  3.07060342E-05  1.78804825E-05  1.77672724E-05 -6.06223980E-09  7.45933324E-07
 -2.44361133E-10  3.81074549E-06  3.16158535E-03  7.41537065E-05  2.67546502E-05
  2.73358882E-07 -1.24847352E-04  3.95443850E-06  3.15607235E-03  9.89235609E-05
  2.58159422E-05  1.08609053E-04  6.30837889E-05  4.02293180E-06  3.15623718E-03
  9.89101858E-05  2.57928894E-05 -1.08917749E-04  6.25631422E-05 -6.59909911E-03
 -4.82698587E-04  2.65652408E-04  3.55697726E-09 -6.30570190E-07  3.60274881E-03
 -9.56829028E-03 -4.96758128E-07  4.14213881E-05 -4.61895088E-02  1.17437520E-02
  3.15937022E-07 -1.17826586E-04 -8.30404355E-04 -5.46975152E-06 -5.17623277E-06
 -4.56740726E-08  4.90606765E-06  9.67432060E-10 -1.95292540E-05 -5.87531405E-05
 -2.45994074E-04 -1.92729251E-08  1.61672464E-06  5.45057872E-03 -1.80516335E-03
 -3.82818955E-07 -2.36023026E-06  4.66789910E-03 -2.31193669E-03 -1.50105174E-07
  3.74445117E-05  1.47825663E-04 -7.76810991E-05 -7.76585334E-05  7.46015249E-08
  1.90257171E-07 -4.81133066E-10  4.74209044E-05  2.80693235E-04  1.11034295E-04
 -6.70122145E-09  1.50466591E-07 -3.23596518E-03 -2.68944648E-03 -7.36932696E-08
  2.40947557E-05  1.23597754E-02  4.70995359E-03 -9.76069350E-08 -4.41774397E-06
 -1.30160472E-04  1.01275079E-04  9.98154581E-05  5.03765876E-09  1.01640327E-06
  2.39483722E-09 -2.84646225E-01  1.02262436E+00  2.88214364E-04  3.07590795E-10
 -5.09517822E-08  7.49028326E-02  3.30867891E-04 -6.85620456E-09  5.75310962E-07
 -2.01146655E-02 -9.73049790E-04  1.65823005E-08 -1.04008548E-06  9.38247384E-03
  2.74093291E-03 -1.45349197E-08 -1.35443019E-07 -1.56986283E-02 -1.57233739E-02
 -1.57231176E-02  1.99436805E-09 -2.01899843E-07  5.22113146E-10  3.91079702E-05
 -9.00086690E-04 -2.84937613E-03  9.04646522E-05  1.40634320E-07 -6.23489719E-05
  4.45628180E-05 -9.27012358E-04 -2.75911565E-03  9.09422477E-05  5.63616322E-05
  3.20939105E-05  4.46265261E-05 -9.27169044E-04 -2.75860148E-03  9.09342982E-05
 -5.65278236E-05  3.18340462E-05 -2.52908977E-05 -1.73974457E-04 -2.26907309E-05
 -4.16151974E-09 -1.93558711E-07 -5.88606417E-04 -4.66542160E-03 -2.55836137E-07
  2.00715290E-05 -4.52289800E-03  9.89731993E-04  3.24063574E-07 -3.63692149E-05
  7.33757524E-05 -1.46780361E-05 -1.50100177E-05 -6.49929003E-09 -5.43179309E-07
  5.63337719E-11 -1.03129746E-04 -4.05451448E-04  2.05031026E-05  1.25955852E-08
  4.70521054E-07  4.96259469E-03 -1.48976914E-03 -2.41510803E-07  1.40779165E-06
 -2.18523048E-03  9.45162059E-04 -3.39310270E-08  6.89225614E-06 -1.62384843E-04
 -2.10997535E-04 -2.10910241E-04  1.92001391E-08  1.61119856E-07  1.73326306E-10
  3.45214753E-05  3.41188845E-04  1.34257055E-04 -7.81612386E-09 -7.03028431E-07
 -6.01561779E-03 -4.79778324E-03 -7.08707377E-07  9.56013680E-05 -7.98265952E-02
 -3.03369269E-02 -3.22727732E-08  5.59406104E-05 -3.13490014E-04  3.26040064E-05
  2.36381267E-05  4.43257708E-08 -1.95200834E-06 -1.49884186E-08  1.10922543E-04
 -2.96276945E-04  9.85135823E-01  1.26068947E-03 -1.05341153E-01  3.03346306E-04
  2.98629078E-02  3.76008783E-05 -3.14159016E-03 -1.32569105E-03 -1.25455373E-02
 -1.43650086E-05  1.20053535E-03 -2.17491764E-03  3.53930877E-03  6.06644815E-06
 -5.16694626E-04  1.42790355E-04  1.86322128E-04  1.86962701E-04  6.08021466E-08
 -5.53010180E-06  2.23559542E-09 -3.22096315E-05 -5.86948238E-04 -3.16222177E-03
  1.78526985E-04  1.02023494E-07 -4.45313621E-05 -8.76814213E-06 -7.36921941E-04
 -2.57131711E-03  1.77174655E-04  5.32062436E-05  2.88124567E-05 -8.49129829E-06
 -7.38315719E-04 -2.56468719E-03  1.77123777E-04 -5.34735571E-05  2.86376114E-05
 -1.30546191E-04 -6.51120931E-04  2.44643774E-05  1.53004629E-09 -5.08257258E-06
  8.30889329E-04 -9.36837144E-03 -4.37023821E-07  4.64225928E-05  9.35085436E-02
 -2.75762616E-02  7.22837095E-07  1.17613435E-04 -4.05265162E-05 -1.72746785E-04
 -1.73867223E-04 -3.90350560E-08  2.62119676E-07 -4.55549028E-10 -1.34372963E-04
 -6.01153383E-04  4.60768095E-05  8.66787026E-09 -3.20545717E-07  8.28442903E-03
 -3.02261528E-03 -4.09317943E-07  7.99068265E-06 -3.37644621E-03  4.36910510E-03
 -4.22975592E-07 -2.32322329E-05 -1.02653839E-04 -2.55544792E-04 -2.54948161E-04
  3.85105026E-08  5.20477339E-07  1.86230246E-09  2.90612858E-06  3.35416035E-05
  1.47880102E-05  1.74841077E-08  8.26577258E-06 -6.34080400E-04 -5.42978032E-04
 -1.22791005E-06 -4.95750132E-04 -9.07632528E-03 -3.45341009E-03  8.11536849E-07
  3.50415641E-04 -3.56934141E-05 -3.04820285E-05  3.49003075E-05  7.60324847E-08
  3.19138104E-05 -3.55933672E-07  1.18936952E-05 -3.16025908E-05  1.05327742E-01
  2.41116342E-03  9.85222538E-01  3.28049993E-05  3.19486048E-03  7.19403344E-05
  2.93976014E-02 -1.41274886E-04 -1.34818471E-03 -2.75288091E-05 -1.12547842E-02
 -2.70471878E-04  3.62215477E-04  1.13287836E-05  4.63295047E-03  1.50435816E-05
  2.33070140E-05  1.80317053E-05  9.89539324E-08  4.01497369E-05  2.86890685E-08
  9.75334407E-05 -7.93263637E-04  3.26458486E-03 -7.25827598E-06  2.11066050E-07
 -7.92602273E-05 -5.00000490E-05  2.51916591E-04 -2.11568597E-03  3.35996895E-05
 -2.74903626E-05 -9.90816405E-06 -4.91783588E-05  2.46150374E-04 -2.08623704E-03
  3.33747771E-05  2.70344811E-05 -9.45668897E-06 -1.46066487E-05 -7.29065897E-05
  2.53218518E-06  4.93995295E-08  2.11269502E-05  7.69821233E-05 -1.04860055E-03
 -4.15215350E-08  5.58918992E-06  1.06624411E-02 -3.15244829E-03  2.55120346E-06
  1.15858791E-03 -5.12456126E-06 -2.15111894E-05 -1.67524355E-05 -4.28050975E-08
 -1.72619726E-05 -2.44465018E-08 -1.54394691E-05 -6.88025727E-05  5.36425135E-06
 -1.19289910E-08 -7.58186116E-06  9.40011112E-04 -3.44637654E-04  4.16959359E-08
  4.91490154E-05 -3.90698430E-04  5.06884103E-04 -1.03038137E-06 -4.74255713E-04
 -1.16225637E-05 -2.69489377E-05 -3.22199398E-05  1.72826581E-09 -1.18782060E-06
  2.93607390E-08 -4.48550865E-08 -4.94220111E-07 -2.11176170E-07  6.82412189E-06
 -1.65328648E-08  9.11520207E-06  7.68916040E-06 -4.86115714E-04  1.04894240E-06
  1.26190515E-04  4.81118411E-05  3.13621426E-04 -8.28950879E-07  5.04842099E-07
  2.61441008E-07 -3.32492103E-07  3.00700610E-05 -7.31122062E-08 -3.69075106E-05
 -1.70571829E-07  4.53169015E-07 -1.50974076E-03  9.90837354E-01 -2.26347000E-03
 -4.71040334E-07 -4.57862980E-05  2.95631048E-02 -6.75395702E-05  2.04390181E-06
  1.92976449E-05 -1.13134079E-02  2.58593066E-05  3.65212742E-06 -5.28647107E-06
  4.64887674E-03 -1.06172786E-05 -2.17559739E-07 -3.20507731E-07 -2.69547223E-07
  4.03577183E-05 -9.09426487E-08  3.17023093E-06 -4.41996044E-07  4.48989636E-06
 -1.19350485E-05 -1.56462735E-07  5.42258740E-06  4.38986290E-07 -8.55778167E-05
  5.93688593E-04 -3.03394083E-03  2.28043799E-05 -5.14190680E-05 -3.31284904E-05
  8.60547774E-05 -5.94149286E-04  3.05916889E-03 -2.34951017E-05 -5.16985361E-05
  3.29105335E-05  2.05685843E-07  1.02797592E-06 -3.68978606E-08  2.10797598E-05