 Entering Gaussian System, Link 0=g16
 Initial command:
 /usr/local/g16_AVX//g16/l1.exe "/scratch/alanqf/0006-54448.ixchel.mda.cinvestav.mx/Gau-20511.inp" -scrdir="/scratch/alanqf/0006-54448.ixchel.mda.cinvestav.mx/"
 Entering Link 1 = /usr/local/g16_AVX//g16/l1.exe PID=     20512.
  
 Copyright (c) 1988-2017, Gaussian, Inc.  All Rights Reserved.
  
 This is part of the Gaussian(R) 16 program.  It is based on
 the Gaussian(R) 09 system (copyright 2009, Gaussian, Inc.),
 the Gaussian(R) 03 system (copyright 2003, Gaussian, Inc.),
 the Gaussian(R) 98 system (copyright 1998, Gaussian, Inc.),
 the Gaussian(R) 94 system (copyright 1995, Gaussian, Inc.),
 the Gaussian 92(TM) system (copyright 1992, Gaussian, Inc.),
 the Gaussian 90(TM) system (copyright 1990, Gaussian, Inc.),
 the Gaussian 88(TM) system (copyright 1988, Gaussian, Inc.),
 the Gaussian 86(TM) system (copyright 1986, Carnegie Mellon
 University), and the Gaussian 82(TM) system (copyright 1983,
 Carnegie Mellon University). Gaussian is a federally registered
 trademark of Gaussian, Inc.
  
 This software contains proprietary and confidential information,
 including trade secrets, belonging to Gaussian, Inc.
  
 This software is provided under written license and may be
 used, copied, transmitted, or stored only in accord with that
 written license.
  
 The following legend is applicable only to US Government
 contracts under FAR:
  
                    RESTRICTED RIGHTS LEGEND
  
 Use, reproduction and disclosure by the US Government is
 subject to restrictions as set forth in subparagraphs (a)
 and (c) of the Commercial Computer Software - Restricted
 Rights clause in FAR 52.227-19.
  
 Gaussian, Inc.
 340 Quinnipiac St., Bldg. 40, Wallingford CT 06492
  
  
 ---------------------------------------------------------------
 Warning -- This program may not be used in any manner that
 competes with the business of Gaussian, Inc. or will provide
 assistance to any competitor of Gaussian, Inc.  The licensee
 of this program is prohibited from giving any competitor of
 Gaussian, Inc. access to this program.  By using this program,
 the user acknowledges that Gaussian, Inc. is engaged in the
 business of creating and licensing software in the field of
 computational chemistry and represents and warrants to the
 licensee that it is not a competitor of Gaussian, Inc. and that
 it will not use this program in any manner prohibited above.
 ---------------------------------------------------------------
  

 Cite this work as:
 Gaussian 16, Revision B.01,
 M. J. Frisch, G. W. Trucks, H. B. Schlegel, G. E. Scuseria, 
 M. A. Robb, J. R. Cheeseman, G. Scalmani, V. Barone, 
 G. A. Petersson, H. Nakatsuji, X. Li, M. Caricato, A. V. Marenich, 
 J. Bloino, B. G. Janesko, R. Gomperts, B. Mennucci, H. P. Hratchian, 
 J. V. Ortiz, A. F. Izmaylov, J. L. Sonnenberg, D. Williams-Young, 
 F. Ding, F. Lipparini, F. Egidi, J. Goings, B. Peng, A. Petrone, 
 T. Henderson, D. Ranasinghe, V. G. Zakrzewski, J. Gao, N. Rega, 
 G. Zheng, W. Liang, M. Hada, M. Ehara, K. Toyota, R. Fukuda, 
 J. Hasegawa, M. Ishida, T. Nakajima, Y. Honda, O. Kitao, H. Nakai, 
 T. Vreven, K. Throssell, J. A. Montgomery, Jr., J. E. Peralta, 
 F. Ogliaro, M. J. Bearpark, J. J. Heyd, E. N. Brothers, K. N. Kudin, 
 V. N. Staroverov, T. A. Keith, R. Kobayashi, J. Normand, 
 K. Raghavachari, A. P. Rendell, J. C. Burant, S. S. Iyengar, 
 J. Tomasi, M. Cossi, J. M. Millam, M. Klene, C. Adamo, R. Cammi, 
 J. W. Ochterski, R. L. Martin, K. Morokuma, O. Farkas, 
 J. B. Foresman, and D. J. Fox, Gaussian, Inc., Wallingford CT, 2016.
 
 ******************************************
 Gaussian 16:  ES64L-G16RevB.01 20-Dec-2017
                13-Oct-2024 
 ******************************************
 %NProcShared=26
 Will use up to   26 processors via shared memory.
 %MEM=20GB
 %chk=CHKfiles/0006.chk
 ---------------------------------------------------------------------
 #p b3lyp 6-31++g(d,p) scf=verytight NoSymm freq=noraman int=ultrafine
 ---------------------------------------------------------------------
 1/10=4,30=1,38=1/1,3;
 2/12=2,15=1,17=6,18=5,40=1/2;
 3/5=1,6=6,7=1111,11=2,25=1,30=1,71=2,74=-5,75=-5,140=1/1,2,3;
 4//1;
 5/5=2,17=3,38=5,98=1/2;
 8/6=4,10=90,11=11/1;
 11/6=1,8=1,9=11,15=111,16=1,31=1/1,2,10;
 10/6=1,31=1/2;
 6/7=2,8=2,9=2,10=2,28=1/1;
 7/8=1,10=1,25=1,30=1/1,2,3,16;
 1/10=4,30=1/3;
 99//99;
 Leave Link    1 at Sun Oct 13 09:46:24 2024, MaxMem=  2684354560 cpu:               1.1 elap:               0.1
 (Enter /usr/local/g16_AVX//g16/l101.exe)
 ------------------------
 RxCoord=-9.48556 DE=0.13
 ------------------------
 Symbolic Z-matrix:
 Charge = -1 Multiplicity = 1
 C                     0.9161    0.00002   0.00713 
 Cl                   -2.59164   0.00002  -0.00246 
 H                     0.53227   0.0022   -1.01505 
 H                     0.54039   0.88606   0.52278 
 H                     0.54045  -0.88851   0.51872 
 C                     2.37403  -0.00029   0.00073 
 N                     3.53632   0.0002   -0.0025 
 
 ITRead=  0  0  0  0  0  0  0
 MicOpt= -1 -1 -1 -1 -1 -1 -1
 NAtoms=      7 NQM=        7 NQMF=       0 NMMI=      0 NMMIF=      0
                NMic=       0 NMicF=      0.
                    Isotopes and Nuclear Properties:
 (Nuclear quadrupole moments (NQMom) in fm**2, nuclear magnetic moments (NMagM)
  in nuclear magnetons)

  Atom         1           2           3           4           5           6           7
 IAtWgt=          12          35           1           1           1          12          14
 AtmWgt=  12.0000000  34.9688527   1.0078250   1.0078250   1.0078250  12.0000000  14.0030740
 NucSpn=           0           3           1           1           1           0           2
 AtZEff=  -0.0000000  -0.0000000  -0.0000000  -0.0000000  -0.0000000  -0.0000000  -0.0000000
 NQMom=    0.0000000  -8.1650000   0.0000000   0.0000000   0.0000000   0.0000000   2.0440000
 NMagM=    0.0000000   0.8218740   2.7928460   2.7928460   2.7928460   0.0000000   0.4037610
 AtZNuc=   6.0000000  17.0000000   1.0000000   1.0000000   1.0000000   6.0000000   7.0000000
 Leave Link  101 at Sun Oct 13 09:46:24 2024, MaxMem=  2684354560 cpu:               2.9 elap:               0.2
 (Enter /usr/local/g16_AVX//g16/l103.exe)

 GradGradGradGradGradGradGradGradGradGradGradGradGradGradGradGradGradGrad
 Berny optimization.
 Initialization pass.
 Trust Radius=3.00D-01 FncErr=1.00D-07 GrdErr=1.00D-07 EigMax=2.50D+02 EigMin=1.00D-04
 Number of steps in this run=      2 maximum allowed number of steps=      2.
 GradGradGradGradGradGradGradGradGradGradGradGradGradGradGradGradGradGrad

 Leave Link  103 at Sun Oct 13 09:46:25 2024, MaxMem=  2684354560 cpu:               0.5 elap:               0.1
 (Enter /usr/local/g16_AVX//g16/l202.exe)
                          Input orientation:                          
 ---------------------------------------------------------------------
 Center     Atomic      Atomic             Coordinates (Angstroms)
 Number     Number       Type             X           Y           Z
 ---------------------------------------------------------------------
      1          6           0        0.916095    0.000022    0.007126
      2         17           0       -2.591638    0.000019   -0.002459
      3          1           0        0.532271    0.002204   -1.015050
      4          1           0        0.540387    0.886059    0.522776
      5          1           0        0.540448   -0.888506    0.518719
      6          6           0        2.374034   -0.000292    0.000734
      7          7           0        3.536318    0.000202   -0.002497
 ---------------------------------------------------------------------
                    Distance matrix (angstroms):
                    1          2          3          4          5
     1  C    0.000000
     2  Cl   3.507746   0.000000
     3  H    1.091865   3.283923   0.000000
     4  H    1.091839   3.297047   1.773746   0.000000
     5  H    1.091934   3.297130   1.773662   1.774570   0.000000
     6  C    1.457953   4.965673   2.103310   2.102476   2.102206
     7  N    2.620241   6.127956   3.170105   3.168005   3.168076
                    6          7
     6  C    0.000000
     7  N    1.162289   0.000000
 Symmetry turned off by external request.
 Stoichiometry    C2H3ClN(1-)
 Framework group  C1[X(C2H3ClN)]
 Deg. of freedom    15
 Full point group                 C1      NOp   1
 Rotational constants (GHZ):         159.2907879           1.0310685           1.0310663
 Leave Link  202 at Sun Oct 13 09:46:25 2024, MaxMem=  2684354560 cpu:               0.2 elap:               0.0
 (Enter /usr/local/g16_AVX//g16/l301.exe)
 Standard basis: 6-31++G(d,p) (6D, 7F)
 Ernie: Thresh=  0.10000D-02 Tol=  0.10000D-05 Strict=F.
    98 basis functions,   176 primitive gaussians,    98 cartesian basis functions
    20 alpha electrons       20 beta electrons
       nuclear repulsion energy       103.0565599753 Hartrees.
 IExCor=  402 DFT=T Ex+Corr=B3LYP ExCW=0 ScaHFX=  0.200000
 ScaDFX=  0.800000  0.720000  1.000000  0.810000 ScalE2=  1.000000  1.000000
 IRadAn=      5 IRanWt=     -1 IRanGd=            0 ICorTp=0 IEmpDi=  4
 NAtoms=    7 NActive=    7 NUniq=    7 SFac= 1.00D+00 NAtFMM=   60 NAOKFM=F Big=F
 Integral buffers will be    131072 words long.
 Raffenetti 2 integral format.
 Two-electron integral symmetry is turned off.
 Leave Link  301 at Sun Oct 13 09:46:25 2024, MaxMem=  2684354560 cpu:               1.5 elap:               0.1
 (Enter /usr/local/g16_AVX//g16/l302.exe)
 NPDir=0 NMtPBC=     1 NCelOv=     1 NCel=       1 NClECP=     1 NCelD=      1
         NCelK=      1 NCelE2=     1 NClLst=     1 CellRange=     0.0.
 One-electron integrals computed using PRISM.
 NBasis=    98 RedAO= T EigKep=  1.75D-05  NBF=    98
 NBsUse=    98 1.00D-06 EigRej= -1.00D+00 NBFU=    98
 Precomputing XC quadrature grid using
 IXCGrd= 4 IRadAn=           5 IRanWt=          -1 IRanGd=           0 AccXCQ= 0.00D+00.
 Generated NRdTot=       0 NPtTot=           0 NUsed=           0 NTot=          32
 NSgBfM=    98    98    98    98    98 MxSgAt=     7 MxSgA2=     7.
 Leave Link  302 at Sun Oct 13 09:46:25 2024, MaxMem=  2684354560 cpu:               3.9 elap:               0.2
 (Enter /usr/local/g16_AVX//g16/l303.exe)
 DipDrv:  MaxL=1.
 Leave Link  303 at Sun Oct 13 09:46:25 2024, MaxMem=  2684354560 cpu:               0.8 elap:               0.1
 (Enter /usr/local/g16_AVX//g16/l401.exe)
 ExpMin= 3.60D-02 ExpMax= 2.52D+04 ExpMxC= 3.78D+03 IAcc=3 IRadAn=         5 AccDes= 0.00D+00
 Harris functional with IExCor=  402 and IRadAn=       5 diagonalized for initial guess.
 HarFok:  IExCor=  402 AccDes= 0.00D+00 IRadAn=         5 IDoV= 1 UseB2=F ITyADJ=14
 ICtDFT=  3500011 ScaDFX=  1.000000  1.000000  1.000000  1.000000
 FoFCou: FMM=F IPFlag=           0 FMFlag=      100000 FMFlg1=           0
         NFxFlg=           0 DoJE=T BraDBF=F KetDBF=T FulRan=T
         wScrn=  0.000000 ICntrl=       500 IOpCl=  0 I1Cent=   200000004 NGrid=           0
         NMat0=    1 NMatS0=      1 NMatT0=    0 NMatD0=    1 NMtDS0=    0 NMtDT0=    0
 Symmetry not used in FoFCou.
 Harris En= -593.114094361035    
 JPrj=0 DoOrth=F DoCkMO=F.
 Leave Link  401 at Sun Oct 13 09:46:25 2024, MaxMem=  2684354560 cpu:               6.0 elap:               0.3
 (Enter /usr/local/g16_AVX//g16/l502.exe)
 Keep R1 ints in memory in canonical form, NReq=35752935.
 FoFCou: FMM=F IPFlag=           0 FMFlag=           0 FMFlg1=           0
         NFxFlg=           0 DoJE=F BraDBF=F KetDBF=F FulRan=T
         wScrn=  0.000000 ICntrl=       600 IOpCl=  0 I1Cent=           0 NGrid=           0
         NMat0=    1 NMatS0=   4851 NMatT0=    0 NMatD0=    1 NMtDS0=    0 NMtDT0=    0
 Symmetry not used in FoFCou.
 Two-electron integral symmetry not used.
 Closed shell SCF:
 Using DIIS extrapolation, IDIIS=  1040.
 NGot=  2684354560 LenX=  2672563405 LenY=  2672553360
 Requested convergence on RMS density matrix=1.00D-08 within 128 cycles.
 Requested convergence on MAX density matrix=1.00D-06.
 Requested convergence on             energy=1.00D-06.
 No special actions if energy rises.

 Cycle   1  Pass 1  IDiag  1:
 E= -592.950166904011    
 DIIS: error= 2.70D-02 at cycle   1 NSaved=   1.
 NSaved= 1 IEnMin= 1 EnMin= -592.950166904011     IErMin= 1 ErrMin= 2.70D-02
 ErrMax= 2.70D-02  0.00D+00 EMaxC= 1.00D-01 BMatC= 1.03D-01 BMatP= 1.03D-01
 IDIUse=3 WtCom= 7.30D-01 WtEn= 2.70D-01
 Coeff-Com:  0.100D+01
 Coeff-En:   0.100D+01
 Coeff:      0.100D+01
 Gap=     0.158 Goal=   None    Shift=    0.000
 GapD=    0.158 DampG=1.000 DampE=0.500 DampFc=0.5000 IDamp=-1.
 Damping current iteration by 5.00D-01
 RMSDP=1.08D-02 MaxDP=1.81D-01              OVMax= 1.80D-01

 Cycle   2  Pass 1  IDiag  1:
 E= -592.988903250764     Delta-E=       -0.038736346754 Rises=F Damp=T
 DIIS: error= 1.71D-02 at cycle   2 NSaved=   2.
 NSaved= 2 IEnMin= 2 EnMin= -592.988903250764     IErMin= 2 ErrMin= 1.71D-02
 ErrMax= 1.71D-02  0.00D+00 EMaxC= 1.00D-01 BMatC= 1.50D-02 BMatP= 1.03D-01
 IDIUse=3 WtCom= 8.29D-01 WtEn= 1.71D-01
 Coeff-Com:  0.166D+00 0.834D+00
 Coeff-En:   0.252D+00 0.748D+00
 Coeff:      0.180D+00 0.820D+00
 Gap=     0.144 Goal=   None    Shift=    0.000
 RMSDP=4.48D-03 MaxDP=1.47D-01 DE=-3.87D-02 OVMax= 1.44D-01

 Cycle   3  Pass 1  IDiag  1:
 E= -593.041672539623     Delta-E=       -0.052769288859 Rises=F Damp=F
 DIIS: error= 1.44D-02 at cycle   3 NSaved=   3.
 NSaved= 3 IEnMin= 3 EnMin= -593.041672539623     IErMin= 3 ErrMin= 1.44D-02
 ErrMax= 1.44D-02  0.00D+00 EMaxC= 1.00D-01 BMatC= 1.94D-02 BMatP= 1.50D-02
 IDIUse=2 WtCom= 0.00D+00 WtEn= 1.00D+00
 Coeff-En:   0.000D+00 0.000D+00 0.100D+01
 Coeff:      0.000D+00 0.000D+00 0.100D+01
 Gap=     0.148 Goal=   None    Shift=    0.000
 RMSDP=6.95D-03 MaxDP=2.52D-01 DE=-5.28D-02 OVMax= 1.63D-01

 Cycle   4  Pass 1  IDiag  1:
 E= -592.947523131574     Delta-E=        0.094149408049 Rises=F Damp=F
 DIIS: error= 3.27D-02 at cycle   4 NSaved=   4.
 NSaved= 4 IEnMin= 3 EnMin= -593.041672539623     IErMin= 3 ErrMin= 1.44D-02
 ErrMax= 3.27D-02  0.00D+00 EMaxC= 1.00D-01 BMatC= 1.25D-01 BMatP= 1.50D-02
 IDIUse=2 WtCom= 0.00D+00 WtEn= 1.00D+00
 Coeff-En:   0.000D+00 0.000D+00 0.802D+00 0.198D+00
 Coeff:      0.000D+00 0.000D+00 0.802D+00 0.198D+00
 Gap=     0.147 Goal=   None    Shift=    0.000
 RMSDP=3.11D-03 MaxDP=1.07D-01 DE= 9.41D-02 OVMax= 8.37D-02

 Cycle   5  Pass 1  IDiag  1:
 E= -593.050331501349     Delta-E=       -0.102808369775 Rises=F Damp=F
 DIIS: error= 9.44D-03 at cycle   5 NSaved=   5.
 NSaved= 5 IEnMin= 5 EnMin= -593.050331501349     IErMin= 5 ErrMin= 9.44D-03
 ErrMax= 9.44D-03  0.00D+00 EMaxC= 1.00D-01 BMatC= 1.03D-02 BMatP= 1.50D-02
 IDIUse=3 WtCom= 9.06D-01 WtEn= 9.44D-02
 Coeff-Com: -0.921D-03 0.195D-01 0.325D+00-0.939D-01 0.750D+00
 Coeff-En:   0.000D+00 0.000D+00 0.383D+00 0.000D+00 0.617D+00
 Coeff:     -0.834D-03 0.177D-01 0.331D+00-0.850D-01 0.737D+00
 Gap=     0.148 Goal=   None    Shift=    0.000
 RMSDP=1.36D-03 MaxDP=4.72D-02 DE=-1.03D-01 OVMax= 3.24D-02

 Cycle   6  Pass 1  IDiag  1:
 E= -593.059625715009     Delta-E=       -0.009294213660 Rises=F Damp=F
 DIIS: error= 1.75D-04 at cycle   6 NSaved=   6.
 NSaved= 6 IEnMin= 6 EnMin= -593.059625715009     IErMin= 6 ErrMin= 1.75D-04
 ErrMax= 1.75D-04  0.00D+00 EMaxC= 1.00D-01 BMatC= 5.60D-06 BMatP= 1.03D-02
 IDIUse=3 WtCom= 9.98D-01 WtEn= 1.75D-03
 Coeff-Com: -0.205D-02 0.811D-02 0.118D+00-0.474D-01 0.320D+00 0.603D+00
 Coeff-En:   0.000D+00 0.000D+00 0.000D+00 0.000D+00 0.000D+00 0.100D+01
 Coeff:     -0.205D-02 0.810D-02 0.117D+00-0.473D-01 0.320D+00 0.604D+00
 Gap=     0.148 Goal=   None    Shift=    0.000
 RMSDP=3.60D-05 MaxDP=6.63D-04 DE=-9.29D-03 OVMax= 6.19D-04

 Cycle   7  Pass 1  IDiag  1:
 E= -593.059630935700     Delta-E=       -0.000005220691 Rises=F Damp=F
 DIIS: error= 7.11D-05 at cycle   7 NSaved=   7.
 NSaved= 7 IEnMin= 7 EnMin= -593.059630935700     IErMin= 7 ErrMin= 7.11D-05
 ErrMax= 7.11D-05  0.00D+00 EMaxC= 1.00D-01 BMatC= 5.21D-07 BMatP= 5.60D-06
 IDIUse=1 WtCom= 1.00D+00 WtEn= 0.00D+00
 Coeff-Com: -0.417D-03 0.142D-02 0.205D-01-0.109D-01 0.610D-01 0.191D+00
 Coeff-Com:  0.738D+00
 Coeff:     -0.417D-03 0.142D-02 0.205D-01-0.109D-01 0.610D-01 0.191D+00
 Coeff:      0.738D+00
 Gap=     0.148 Goal=   None    Shift=    0.000
 RMSDP=1.32D-05 MaxDP=3.95D-04 DE=-5.22D-06 OVMax= 2.49D-04

 Cycle   8  Pass 1  IDiag  1:
 E= -593.059631430565     Delta-E=       -0.000000494864 Rises=F Damp=F
 DIIS: error= 1.26D-05 at cycle   8 NSaved=   8.
 NSaved= 8 IEnMin= 8 EnMin= -593.059631430565     IErMin= 8 ErrMin= 1.26D-05
 ErrMax= 1.26D-05  0.00D+00 EMaxC= 1.00D-01 BMatC= 1.64D-08 BMatP= 5.21D-07
 IDIUse=1 WtCom= 1.00D+00 WtEn= 0.00D+00
 Coeff-Com:  0.121D-04-0.774D-04 0.377D-02-0.198D-02 0.104D-01 0.472D-01
 Coeff-Com:  0.263D+00 0.677D+00
 Coeff:      0.121D-04-0.774D-04 0.377D-02-0.198D-02 0.104D-01 0.472D-01
 Coeff:      0.263D+00 0.677D+00
 Gap=     0.148 Goal=   None    Shift=    0.000
 RMSDP=6.86D-06 MaxDP=2.25D-04 DE=-4.95D-07 OVMax= 3.95D-05

 Cycle   9  Pass 1  IDiag  1:
 E= -593.059631448738     Delta-E=       -0.000000018174 Rises=F Damp=F
 DIIS: error= 2.01D-06 at cycle   9 NSaved=   9.
 NSaved= 9 IEnMin= 9 EnMin= -593.059631448738     IErMin= 9 ErrMin= 2.01D-06
 ErrMax= 2.01D-06  0.00D+00 EMaxC= 1.00D-01 BMatC= 5.17D-10 BMatP= 1.64D-08
 IDIUse=1 WtCom= 1.00D+00 WtEn= 0.00D+00
 Coeff-Com:  0.307D-04-0.698D-04-0.565D-03 0.837D-04-0.123D-02-0.954D-03
 Coeff-Com:  0.119D-01 0.165D+00 0.826D+00
 Coeff:      0.307D-04-0.698D-04-0.565D-03 0.837D-04-0.123D-02-0.954D-03
 Coeff:      0.119D-01 0.165D+00 0.826D+00
 Gap=     0.148 Goal=   None    Shift=    0.000
 RMSDP=8.86D-07 MaxDP=3.17D-05 DE=-1.82D-08 OVMax= 6.53D-06

 Cycle  10  Pass 1  IDiag  1:
 E= -593.059631449270     Delta-E=       -0.000000000532 Rises=F Damp=F
 DIIS: error= 2.60D-07 at cycle  10 NSaved=  10.
 NSaved=10 IEnMin=10 EnMin= -593.059631449270     IErMin=10 ErrMin= 2.60D-07
 ErrMax= 2.60D-07  0.00D+00 EMaxC= 1.00D-01 BMatC= 1.12D-11 BMatP= 5.17D-10
 IDIUse=1 WtCom= 1.00D+00 WtEn= 0.00D+00
 Coeff-Com:  0.721D-05-0.191D-04-0.104D-03 0.515D-04-0.291D-03-0.302D-03
 Coeff-Com: -0.281D-02 0.183D-01 0.152D+00 0.833D+00
 Coeff:      0.721D-05-0.191D-04-0.104D-03 0.515D-04-0.291D-03-0.302D-03
 Coeff:     -0.281D-02 0.183D-01 0.152D+00 0.833D+00
 Gap=     0.148 Goal=   None    Shift=    0.000
 RMSDP=7.43D-08 MaxDP=2.13D-06 DE=-5.32D-10 OVMax= 1.15D-06

 Cycle  11  Pass 1  IDiag  1:
 E= -593.059631449284     Delta-E=       -0.000000000014 Rises=F Damp=F
 DIIS: error= 6.21D-08 at cycle  11 NSaved=  11.
 NSaved=11 IEnMin=11 EnMin= -593.059631449284     IErMin=11 ErrMin= 6.21D-08
 ErrMax= 6.21D-08  0.00D+00 EMaxC= 1.00D-01 BMatC= 3.51D-13 BMatP= 1.12D-11
 IDIUse=1 WtCom= 1.00D+00 WtEn= 0.00D+00
 Coeff-Com: -0.957D-06 0.206D-05-0.614D-05 0.174D-05-0.542D-05-0.196D-04
 Coeff-Com: -0.640D-03-0.255D-02-0.540D-02 0.244D-01 0.984D+00
 Coeff:     -0.957D-06 0.206D-05-0.614D-05 0.174D-05-0.542D-05-0.196D-04
 Coeff:     -0.640D-03-0.255D-02-0.540D-02 0.244D-01 0.984D+00
 Gap=     0.148 Goal=   None    Shift=    0.000
 RMSDP=5.27D-08 MaxDP=2.03D-06 DE=-1.36D-11 OVMax= 1.93D-07

 Cycle  12  Pass 1  IDiag  1:
 E= -593.059631449283     Delta-E=        0.000000000001 Rises=F Damp=F
 DIIS: error= 8.50D-09 at cycle  12 NSaved=  12.
 NSaved=12 IEnMin=11 EnMin= -593.059631449284     IErMin=12 ErrMin= 8.50D-09
 ErrMax= 8.50D-09  0.00D+00 EMaxC= 1.00D-01 BMatC= 2.67D-15 BMatP= 3.51D-13
 IDIUse=1 WtCom= 1.00D+00 WtEn= 0.00D+00
 Coeff-Com: -0.364D-06 0.775D-06-0.425D-06-0.622D-07 0.179D-05-0.520D-05
 Coeff-Com: -0.139D-03-0.835D-03-0.308D-02 0.335D-02 0.261D+00 0.740D+00
 Coeff:     -0.364D-06 0.775D-06-0.425D-06-0.622D-07 0.179D-05-0.520D-05
 Coeff:     -0.139D-03-0.835D-03-0.308D-02 0.335D-02 0.261D+00 0.740D+00
 Gap=     0.148 Goal=   None    Shift=    0.000
 RMSDP=1.23D-08 MaxDP=4.92D-07 DE= 1.36D-12 OVMax= 1.96D-08

 Cycle  13  Pass 1  IDiag  1:
 E= -593.059631449284     Delta-E=       -0.000000000001 Rises=F Damp=F
 DIIS: error= 1.44D-09 at cycle  13 NSaved=  13.
 NSaved=13 IEnMin=11 EnMin= -593.059631449284     IErMin=13 ErrMin= 1.44D-09
 ErrMax= 1.44D-09  0.00D+00 EMaxC= 1.00D-01 BMatC= 1.61D-16 BMatP= 2.67D-15
 IDIUse=1 WtCom= 1.00D+00 WtEn= 0.00D+00
 Coeff-Com: -0.192D-07 0.304D-07 0.271D-06-0.673D-07 0.489D-06-0.232D-05
 Coeff-Com:  0.663D-05-0.144D-04-0.360D-03 0.991D-03-0.111D-01 0.128D+00
 Coeff-Com:  0.882D+00
 Coeff:     -0.192D-07 0.304D-07 0.271D-06-0.673D-07 0.489D-06-0.232D-05
 Coeff:      0.663D-05-0.144D-04-0.360D-03 0.991D-03-0.111D-01 0.128D+00
 Coeff:      0.882D+00
 Gap=     0.148 Goal=   None    Shift=    0.000
 RMSDP=2.29D-09 MaxDP=8.78D-08 DE=-9.09D-13 OVMax= 5.98D-09

 SCF Done:  E(RB3LYP) =  -593.059631449     A.U. after   13 cycles
            NFock= 13  Conv=0.23D-08     -V/T= 2.0047
 KE= 5.902615351274D+02 PE=-1.616177348052D+03 EE= 3.297996214997D+02
 Leave Link  502 at Sun Oct 13 09:46:27 2024, MaxMem=  2684354560 cpu:              38.7 elap:               1.8
 (Enter /usr/local/g16_AVX//g16/l801.exe)
 DoSCS=F DFT=T ScalE2(SS,OS)=  1.000000  1.000000
 Range of M.O.s used for correlation:     1    98
 NBasis=    98 NAE=    20 NBE=    20 NFC=     0 NFV=     0
 NROrb=     98 NOA=    20 NOB=    20 NVA=    78 NVB=    78

 **** Warning!!: The largest alpha MO coefficient is  0.11990599D+03

 Leave Link  801 at Sun Oct 13 09:46:27 2024, MaxMem=  2684354560 cpu:               0.7 elap:               0.1
 (Enter /usr/local/g16_AVX//g16/l1101.exe)
 Using compressed storage, NAtomX=     7.
 Will process      8 centers per pass.
 Leave Link 1101 at Sun Oct 13 09:46:27 2024, MaxMem=  2684354560 cpu:               3.6 elap:               0.2
 (Enter /usr/local/g16_AVX//g16/l1102.exe)
 Symmetrizing basis deriv contribution to polar:
 IMax=3 JMax=2 DiffMx= 0.00D+00
 Leave Link 1102 at Sun Oct 13 09:46:28 2024, MaxMem=  2684354560 cpu:               0.7 elap:               0.1
 (Enter /usr/local/g16_AVX//g16/l1110.exe)
 Forming Gx(P) for the SCF density, NAtomX=     7.
 Integral derivatives from FoFJK, PRISM(SPDF).
 Do as many integral derivatives as possible in FoFJK.
 G2DrvN: MDV=    2684353864.
 G2DrvN: will do     8 centers at a time, making    1 passes.
 Calling FoFCou, ICntrl=  3107 FMM=F I1Cent=   0 AccDes= 0.00D+00.
 FoFJK:  IHMeth= 1 ICntrl=    3107 DoSepK=F KAlg= 0 I1Cent=           0 FoldK=F
 IRaf=         0 NMat=       1 IRICut=       1 DoRegI=T DoRafI=F ISym2E= 0 IDoP0=0 IntGTp=1.
 FoFCou: FMM=F IPFlag=           0 FMFlag=      100000 FMFlg1=           0
         NFxFlg=           0 DoJE=F BraDBF=F KetDBF=F FulRan=T
         wScrn=  0.000000 ICntrl=      3107 IOpCl=  0 I1Cent=           0 NGrid=           0
         NMat0=    1 NMatS0=      1 NMatT0=    0 NMatD0=    1 NMtDS0=    0 NMtDT0=    0
 Symmetry not used in FoFCou.
 End of G2Drv F.D. properties file   721 does not exist.
 End of G2Drv F.D. properties file   722 does not exist.
 End of G2Drv F.D. properties file   788 does not exist.
 Leave Link 1110 at Sun Oct 13 09:46:29 2024, MaxMem=  2684354560 cpu:              39.7 elap:               1.6
 (Enter /usr/local/g16_AVX//g16/l1002.exe)
 Minotr:  Closed shell wavefunction.
          IDoAtm=1111111
          Direct CPHF calculation.
          Differentiating once with respect to electric field.
                with respect to dipole field.
          Differentiating once with respect to nuclear coordinates.
          Requested convergence is 1.0D-08 RMS, and 1.0D-07 maximum.
          Secondary convergence is 1.0D-12 RMS, and 1.0D-12 maximum.
          NewPWx=T KeepS1=F KeepF1=F KeepIn=T MapXYZ=F SortEE=F KeepMc=T.
         2136 words used for storage of precomputed grid.
 Keep R1 ints in memory in canonical form, NReq=35668397.
 FoFCou: FMM=F IPFlag=           0 FMFlag=           0 FMFlg1=           0
         NFxFlg=           0 DoJE=F BraDBF=F KetDBF=F FulRan=T
         wScrn=  0.000000 ICntrl=       600 IOpCl=  0 I1Cent=           0 NGrid=           0
         NMat0=    1 NMatS0=   4851 NMatT0=    0 NMatD0=    1 NMtDS0=    0 NMtDT0=    0
 Symmetry not used in FoFCou.
 Two-electron integral symmetry not used.
          MDV=    2684354560 using IRadAn=       1.
          Solving linear equations simultaneously, MaxMat=       0.
          There are    24 degrees of freedom in the 1st order CPHF.  IDoFFX=6 NUNeed=     3.
     21 vectors produced by pass  0 Test12= 6.50D-15 4.17D-09 XBig12= 6.90D+01 3.10D+00.
 AX will form    21 AO Fock derivatives at one time.
     21 vectors produced by pass  1 Test12= 6.50D-15 4.17D-09 XBig12= 4.92D+01 2.07D+00.
     21 vectors produced by pass  2 Test12= 6.50D-15 4.17D-09 XBig12= 2.23D+00 5.00D-01.
     21 vectors produced by pass  3 Test12= 6.50D-15 4.17D-09 XBig12= 8.81D-03 2.30D-02.
     21 vectors produced by pass  4 Test12= 6.50D-15 4.17D-09 XBig12= 1.09D-05 6.36D-04.
     17 vectors produced by pass  5 Test12= 6.50D-15 4.17D-09 XBig12= 2.15D-08 3.25D-05.
      5 vectors produced by pass  6 Test12= 6.50D-15 4.17D-09 XBig12= 5.25D-11 1.73D-06.
      3 vectors produced by pass  7 Test12= 6.50D-15 4.17D-09 XBig12= 9.47D-14 7.41D-08.
 InvSVY:  IOpt=1 It=  1 EMax= 3.55D-15
 Solved reduced A of dimension   130 with    24 vectors.
 FullF1:  Do perturbations      1 to       3.
 Isotropic polarizability for W=    0.000000       53.79 Bohr**3.
 End of Minotr F.D. properties file   721 does not exist.
 End of Minotr F.D. properties file   722 does not exist.
 End of Minotr F.D. properties file   788 does not exist.
 Leave Link 1002 at Sun Oct 13 09:46:31 2024, MaxMem=  2684354560 cpu:              56.4 elap:               2.2
 (Enter /usr/local/g16_AVX//g16/l601.exe)
 Copying SCF densities to generalized density rwf, IOpCl= 0 IROHF=0.

 **********************************************************************

            Population analysis using the SCF Density.

 **********************************************************************

 Alpha  occ. eigenvalues -- -101.25384 -14.23500 -10.13226 -10.10591  -9.16712
 Alpha  occ. eigenvalues --   -6.92492  -6.92492  -6.92492  -0.80449  -0.65173
 Alpha  occ. eigenvalues --   -0.50426  -0.38928  -0.33560  -0.33538  -0.26481
 Alpha  occ. eigenvalues --   -0.22380  -0.22376  -0.05181  -0.05047  -0.05046
 Alpha virt. eigenvalues --    0.09715   0.13080   0.13096   0.14076   0.14247
 Alpha virt. eigenvalues --    0.14253   0.19699   0.20196   0.20208   0.21930
 Alpha virt. eigenvalues --    0.22662   0.22684   0.24751   0.25805   0.25818
 Alpha virt. eigenvalues --    0.28348   0.32346   0.33046   0.33052   0.33618
 Alpha virt. eigenvalues --    0.33636   0.33716   0.39136   0.40355   0.47920
 Alpha virt. eigenvalues --    0.69739   0.78107   0.78111   0.83765   0.83784
 Alpha virt. eigenvalues --    0.84754   0.85144   0.85162   0.88148   0.98156
 Alpha virt. eigenvalues --    1.00332   1.01714   1.01719   1.09258   1.11073
 Alpha virt. eigenvalues --    1.11077   1.15506   1.15507   1.15981   1.15986
 Alpha virt. eigenvalues --    1.18826   1.23100   1.26473   1.44479   1.44501
 Alpha virt. eigenvalues --    1.53209   1.61995   1.61996   1.85443   1.85462
 Alpha virt. eigenvalues --    1.87925   2.04651   2.04669   2.13738   2.22439
 Alpha virt. eigenvalues --    2.22465   2.29073   2.38882   2.38897   2.73443
 Alpha virt. eigenvalues --    2.79328   2.79363   3.03989   3.07987   3.08043
 Alpha virt. eigenvalues --    3.27401   3.44139   3.53893   3.53942   4.23843
 Alpha virt. eigenvalues --    4.42619   4.56737   4.79950
          Condensed to atoms (all electrons):
               1          2          3          4          5          6
     1  C    5.788643  -0.081817   0.417114   0.421499   0.421211  -0.852745
     2  Cl  -0.081817  17.927329  -0.003511  -0.003534  -0.003534   0.106498
     3  H    0.417114  -0.003511   0.485239  -0.023260  -0.023275  -0.061316
     4  H    0.421499  -0.003534  -0.023260   0.487015  -0.023346  -0.066459
     5  H    0.421211  -0.003534  -0.023275  -0.023346   0.487201  -0.066285
     6  C   -0.852745   0.106498  -0.061316  -0.066459  -0.066285   6.542884
     7  N   -0.008280  -0.000152  -0.004316  -0.004228  -0.004199   0.416460
               7
     1  C   -0.008280
     2  Cl  -0.000152
     3  H   -0.004316
     4  H   -0.004228
     5  H   -0.004199
     6  C    0.416460
     7  N    7.176641
 Mulliken charges:
               1
     1  C   -0.105624
     2  Cl  -0.941279
     3  H    0.213325
     4  H    0.212311
     5  H    0.212228
     6  C   -0.019036
     7  N   -0.571925
 Sum of Mulliken charges =  -1.00000
 Mulliken charges with hydrogens summed into heavy atoms:
               1
     1  C    0.532240
     2  Cl  -0.941279
     6  C   -0.019036
     7  N   -0.571925
 APT charges:
               1
     1  C    0.011745
     2  Cl  -0.987384
     3  H    0.080593
     4  H    0.079098
     5  H    0.079009
     6  C    0.200210
     7  N   -0.463271
 Sum of APT charges =  -1.00000
 APT charges with hydrogens summed into heavy atoms:
               1
     1  C    0.250445
     2  Cl  -0.987384
     6  C    0.200210
     7  N   -0.463271
 Electronic spatial extent (au):  <R**2>=            994.5771
 Charge=             -1.0000 electrons
 Dipole moment (field-independent basis, Debye):
    X=              6.8217    Y=             -0.0006    Z=              0.0252  Tot=              6.8217
 Quadrupole moment (field-independent basis, Debye-Ang):
   XX=            -92.0059   YY=            -35.4644   ZZ=            -35.4661
   XY=             -0.0016   XZ=              0.0054   YZ=              0.0003
 Traceless Quadrupole moment (field-independent basis, Debye-Ang):
   XX=            -37.6937   YY=             18.8477   ZZ=             18.8460
   XY=             -0.0016   XZ=              0.0054   YZ=              0.0003
 Octapole moment (field-independent basis, Debye-Ang**2):
  XXX=             -5.2402  YYY=             -0.0053  ZZZ=             -0.8398  XYY=              4.8140
  XXY=             -0.0061  XXZ=              0.1732  XZZ=              4.8026  YZZ=              0.0060
  YYZ=              0.8668  XYZ=              0.0002
 Hexadecapole moment (field-independent basis, Debye-Ang**3):
 XXXX=          -2029.9453 YYYY=            -58.3432 ZZZZ=            -58.3758 XXXY=             -0.0156
 XXXZ=             -0.1508 YYYX=             -0.0012 YYYZ=              0.0000 ZZZX=             -0.7230
 ZZZY=              0.0006 XXYY=           -251.1992 XXZZ=           -251.2091 YYZZ=            -19.4330
 XXYZ=              0.0003 YYXZ=              0.3043 ZZXY=              0.0033
 N-N= 1.030565599753D+02 E-N=-1.616177347843D+03  KE= 5.902615351274D+02
  Exact polarizability:  78.104   0.005  41.619  -0.037  -0.000  41.633
 Approx polarizability:  96.435   0.015  49.682  -0.074  -0.000  49.696
 No NMR shielding tensors so no spin-rotation constants.
 Leave Link  601 at Sun Oct 13 09:46:32 2024, MaxMem=  2684354560 cpu:               2.6 elap:               0.1
 (Enter /usr/local/g16_AVX//g16/l701.exe)
 ... and contract with generalized density number  0.
 Compute integral second derivatives.
 Leave Link  701 at Sun Oct 13 09:46:32 2024, MaxMem=  2684354560 cpu:               4.6 elap:               0.2
 (Enter /usr/local/g16_AVX//g16/l702.exe)
 L702 exits ... SP integral derivatives will be done elsewhere.
 Leave Link  702 at Sun Oct 13 09:46:32 2024, MaxMem=  2684354560 cpu:               0.6 elap:               0.1
 (Enter /usr/local/g16_AVX//g16/l703.exe)
 Integral derivatives from FoFJK, PRISM(SPDF).
 Compute integral second derivatives, UseDBF=F ICtDFT=           0.
 Calling FoFJK, ICntrl=    100127 FMM=F ISym2X=0 I1Cent= 0 IOpClX= 0 NMat=1 NMatS=1 NMatT=0.
 FoFJK:  IHMeth= 1 ICntrl=  100127 DoSepK=F KAlg= 0 I1Cent=           0 FoldK=F
 IRaf=         0 NMat=       1 IRICut=       1 DoRegI=T DoRafI=F ISym2E= 0 IDoP0=0 IntGTp=1.
 FoFCou: FMM=F IPFlag=           0 FMFlag=      100000 FMFlg1=         800
         NFxFlg=           0 DoJE=F BraDBF=F KetDBF=F FulRan=T
         wScrn=  0.000000 ICntrl=    100127 IOpCl=  0 I1Cent=           0 NGrid=           0
         NMat0=    1 NMatS0=      1 NMatT0=    0 NMatD0=    1 NMtDS0=    0 NMtDT0=    0
 Symmetry not used in FoFCou.
 Leave Link  703 at Sun Oct 13 09:46:35 2024, MaxMem=  2684354560 cpu:              66.2 elap:               2.6
 (Enter /usr/local/g16_AVX//g16/l716.exe)
 Dipole        = 2.68386293D+00-2.38589464D-04 9.91969562D-03
 Polarizability= 7.81039795D+01 5.34620901D-03 4.16192964D+01
                -3.74970668D-02-6.35285332D-05 4.16331393D+01
 Full mass-weighted force constant matrix:
 Low frequencies ---  -60.0383  -58.9199   -0.0017    0.0018    0.0032   17.6151
 Low frequencies ---   17.7627   70.3430  129.1665
 ******    2 imaginary frequencies (negative Signs) ****** 
 Diagonal vibrational polarizability:
      113.3223228     186.6598129     178.1839867
 Harmonic frequencies (cm**-1), IR intensities (KM/Mole), Raman scattering
 activities (A**4/AMU), depolarization ratios for plane and unpolarized
 incident light, reduced masses (AMU), force constants (mDyne/A),
 and normal coordinates:
                      1                      2                      3
                      A                      A                      A
 Frequencies --    -55.9141               -54.6083                70.3430
 Red. masses --      3.5474                 3.5548                11.9067
 Frc consts  --      0.0065                 0.0062                 0.0347
 IR Inten    --     20.6437                20.6343                20.6571
  Atom  AN      X      Y      Z        X      Y      Z        X      Y      Z
     1   6     0.00   0.02   0.37     0.00   0.37  -0.02    -0.36   0.00  -0.00
     2  17     0.00  -0.00  -0.08    -0.00  -0.08   0.00     0.43  -0.00   0.00
     3   1    -0.28   0.02   0.48     0.01   0.49  -0.02    -0.37   0.00   0.00
     4   1     0.15   0.03   0.47     0.24   0.47   0.00    -0.37  -0.00  -0.00
     5   1     0.13   0.02   0.47    -0.25   0.47  -0.04    -0.37   0.00  -0.00
     6   6    -0.00   0.00   0.02     0.00   0.02  -0.00    -0.37   0.00  -0.00
     7   7    -0.00  -0.01  -0.25     0.00  -0.25   0.01    -0.37  -0.00   0.00
                      4                      5                      6
                      A                      A                      A
 Frequencies --    371.8214               372.3323               921.0003
 Red. masses --      3.5660                 3.5682                 4.7336
 Frc consts  --      0.2905                 0.2914                 2.3657
 IR Inten    --      1.3500                 1.3449                 9.3703
  Atom  AN      X      Y      Z        X      Y      Z        X      Y      Z
     1   6    -0.00  -0.00  -0.06    -0.00  -0.06   0.00     0.44   0.00  -0.00
     2  17    -0.00  -0.00  -0.00    -0.00  -0.00   0.00    -0.00  -0.00   0.00
     3   1     0.59  -0.02  -0.29    -0.05  -0.28   0.02     0.48  -0.00  -0.01
     4   1    -0.34  -0.02  -0.28    -0.49  -0.28   0.02     0.47   0.01   0.00
     5   1    -0.26  -0.02  -0.28     0.54  -0.28   0.02     0.47  -0.01   0.00
     6   6     0.00   0.03   0.40    -0.00   0.41  -0.03    -0.20   0.00   0.00
     7   7    -0.00  -0.02  -0.23     0.00  -0.23   0.02    -0.30  -0.00   0.00
                      7                      8                      9
                      A                      A                      A
 Frequencies --   1023.5366              1024.5480              1368.8421
 Red. masses --      1.5071                 1.5048                 1.2249
 Frc consts  --      0.9302                 0.9306                 1.3522
 IR Inten    --      1.3063                 1.2899                32.1790
  Atom  AN      X      Y      Z        X      Y      Z        X      Y      Z
     1   6     0.00   0.00   0.16     0.00   0.16  -0.00    -0.14   0.00   0.00
     2  17     0.00  -0.00  -0.00    -0.00  -0.00   0.00     0.00   0.00   0.00
     3   1     0.71  -0.01  -0.12    -0.02  -0.33   0.00     0.52   0.00  -0.24
     4   1    -0.38   0.09  -0.28    -0.61  -0.17   0.11     0.52   0.20   0.12
     5   1    -0.34  -0.10  -0.28     0.63  -0.17  -0.09     0.52  -0.20   0.12
     6   6    -0.00  -0.00  -0.13     0.00  -0.13   0.00     0.00  -0.00  -0.00
     7   7     0.00   0.00   0.02    -0.00   0.02  -0.00     0.01   0.00  -0.00
                     10                     11                     12
                      A                      A                      A
 Frequencies --   1451.5583              1451.9353              2348.8526
 Red. masses --      1.0400                 1.0400                12.5217
 Frc consts  --      1.2911                 1.2917                40.7028
 IR Inten    --     13.4821                13.4756                43.7307
  Atom  AN      X      Y      Z        X      Y      Z        X      Y      Z
     1   6     0.00   0.01  -0.05     0.00  -0.05  -0.01    -0.09   0.00   0.00
     2  17     0.00   0.00  -0.00     0.00  -0.00  -0.00     0.00   0.00   0.00
     3   1     0.35  -0.09  -0.16     0.05   0.71  -0.02    -0.07  -0.00   0.02
     4   1    -0.14  -0.39   0.54    -0.33   0.01  -0.31    -0.07  -0.02  -0.01
     5   1    -0.22   0.37   0.44     0.29   0.10   0.44    -0.07   0.02  -0.01
     6   6    -0.00   0.00  -0.02    -0.00  -0.02  -0.00     0.80   0.00  -0.00
     7   7    -0.00  -0.00   0.00    -0.00   0.00   0.00    -0.59  -0.00   0.00
                     13                     14                     15
                      A                      A                      A
 Frequencies --   3080.5036              3163.1745              3163.7703
 Red. masses --      1.0336                 1.1032                 1.1032
 Frc consts  --      5.7788                 6.5034                 6.5061
 IR Inten    --      1.1716                 0.1624                 0.1609
  Atom  AN      X      Y      Z        X      Y      Z        X      Y      Z
     1   6    -0.05  -0.00   0.00     0.00  -0.06   0.07    -0.00  -0.07  -0.06
     2  17    -0.00   0.00  -0.00     0.00   0.00  -0.00    -0.00   0.00   0.00
     3   1     0.19  -0.00   0.54    -0.21  -0.01  -0.56     0.19  -0.02   0.51
     4   1     0.19  -0.47  -0.27    -0.06   0.13   0.10    -0.28   0.65   0.37
     5   1     0.19   0.47  -0.27     0.27   0.63  -0.36     0.09   0.19  -0.13
     6   6    -0.00  -0.00   0.00     0.00   0.00  -0.00    -0.00   0.00   0.00
     7   7     0.00  -0.00  -0.00    -0.00  -0.00   0.00     0.00  -0.00  -0.00

 -------------------
 - Thermochemistry -
 -------------------
 Temperature   298.150 Kelvin.  Pressure   1.00000 Atm.
 Atom     1 has atomic number  6 and mass  12.00000
 Atom     2 has atomic number 17 and mass  34.96885
 Atom     3 has atomic number  1 and mass   1.00783
 Atom     4 has atomic number  1 and mass   1.00783
 Atom     5 has atomic number  1 and mass   1.00783
 Atom     6 has atomic number  6 and mass  12.00000
 Atom     7 has atomic number  7 and mass  14.00307
 Molecular mass:    75.99540 amu.
 Principal axes and moments of inertia in atomic units:
                           1         2         3
     Eigenvalues --    11.329851750.360101750.36393
           X            1.00000  -0.00003  -0.00045
           Y           -0.00000   0.99722  -0.07446
           Z            0.00045   0.07446   0.99722
 This molecule is an asymmetric top.
 Rotational symmetry number  1.
 Rotational temperatures (Kelvin)      7.64475     0.04948     0.04948
 Rotational constants (GHZ):         159.29079     1.03107     1.03107
    2 imaginary frequencies ignored.
 Zero-point vibrational energy     118503.4 (Joules/Mol)
                                   28.32299 (Kcal/Mol)
 Warning -- explicit consideration of   3 degrees of freedom as
           vibrations may cause significant error
 Vibrational temperatures:    101.21   534.97   535.70  1325.11  1472.64
          (Kelvin)           1474.10  1969.46  2088.47  2089.01  3379.48
                             4432.16  4551.10  4551.96
 
 Zero-point correction=                           0.045136 (Hartree/Particle)
 Thermal correction to Energy=                    0.049574
 Thermal correction to Enthalpy=                  0.050518
 Thermal correction to Gibbs Free Energy=         0.016979
 Sum of electronic and zero-point Energies=           -593.014496
 Sum of electronic and thermal Energies=              -593.010058
 Sum of electronic and thermal Enthalpies=            -593.009114
 Sum of electronic and thermal Free Energies=         -593.042652
 
                     E (Thermal)             CV                S
                      KCal/Mol        Cal/Mol-Kelvin    Cal/Mol-Kelvin
 Total                   31.108             12.462             70.588
 Electronic               0.000              0.000              0.000
 Translational            0.889              2.981             38.900
 Rotational               0.889              2.981             25.054
 Vibrational             29.331              6.501              6.634
 Vibration     1          0.598              1.968              4.144
 Vibration     2          0.744              1.530              1.072
 Vibration     3          0.744              1.529              1.070
                       Q            Log10(Q)             Ln(Q)
 Total Bot       0.154925D-07         -7.809879        -17.982910
 Total V=0       0.893340D+13         12.951017         29.820818
 Vib (Bot)       0.892074D-20        -20.049599        -46.165908
 Vib (Bot)    1  0.293182D+01          0.467137          1.075623
 Vib (Bot)    2  0.489031D+00         -0.310664         -0.715330
 Vib (Bot)    3  0.488189D+00         -0.311412         -0.717053
 Vib (V=0)       0.514395D+01          0.711296          1.637820
 Vib (V=0)    1  0.347415D+01          0.540848          1.245350
 Vib (V=0)    2  0.119939D+01          0.078962          0.181816
 Vib (V=0)    3  0.119880D+01          0.078748          0.181325
 Electronic      0.100000D+01          0.000000          0.000000
 Translational   0.260396D+08          7.415635         17.075130
 Rotational      0.666938D+05          4.824086         11.107868
 
                                                       RxCoord=-9.48556 DE=0.13
                                                             IR Spectrum
 
      3  3                            2                                   1   1           11                                         
      1  0                            3                                   4   3           00    9                     3              
      6  8                            4                                   5   6           22    2                     7           7  
      3  1                            9                                   2   9           54    1                     2           0  
 
      X  X                            X                                   X   X           XX    X                     X           X  
                                      X                                   X   X                 X                                 X  
                                      X                                   X   X                 X                                 X  
                                      X                                   X   X                 X                                 X  
                                      X                                   X   X                                                   X  
                                      X                                   X   X                                                   X  
                                      X                                   X   X                                                   X  
                                      X                                   X   X                                                   X  
                                      X                                   X   X                                                   X  
                                      X                                   X   X                                                      
                                      X                                   X   X                                                      
                                      X                                   X   X                                                      
                                      X                                       X                                                      
                                      X                                       X                                                      
                                      X                                       X                                                      
                                      X                                                                                              
                                      X                                                                                              
                                      X                                                                                              
                                      X                                                                                              
                                      X                                                                                              
 
 -------------------------------------------------------------------
 Center     Atomic                   Forces (Hartrees/Bohr)
 Number     Number              X              Y              Z
 -------------------------------------------------------------------
      1        6           0.002550274   -0.000118650   -0.000076617
      2       17           0.001869998    0.000000499   -0.000001440
      3        1          -0.003008746    0.000006434    0.001229559
      4        1          -0.003038797   -0.001065506   -0.000569564
      5        1          -0.003055419    0.001124628   -0.000586515
      6        6           0.001326223    0.000082257    0.000073492
      7        7           0.003356467   -0.000029662   -0.000068914
 -------------------------------------------------------------------
 Cartesian Forces:  Max     0.003356467 RMS     0.001622257
 Z-matrix is all fixed cartesians, so copy forces.
 Force constants in Cartesian coordinates: 
                1             2             3             4             5 
      1  0.487530D+00
      2 -0.111954D-03  0.557087D+00
      3  0.576680D-03  0.156407D-03  0.556808D+00
      4 -0.303901D-02  0.113950D-05  0.138570D-04  0.357419D-02
      5  0.000000D+00 -0.399652D-03  0.000000D+00  0.000000D+00  0.264090D-03
      6  0.850949D-05  0.000000D+00 -0.406662D-03  0.376704D-05  0.000000D+00
      7 -0.727872D-01  0.199349D-03 -0.903145D-01  0.414871D-03  0.195346D-05
      8  0.199604D-03 -0.413733D-01  0.531394D-03  0.233951D-05 -0.810154D-03
      9 -0.892137D-01  0.531140D-03 -0.292142D+00 -0.981228D-03 -0.237624D-05
     10 -0.714737D-01  0.765945D-01  0.446079D-01  0.398425D-03  0.802474D-03
     11  0.756506D-01 -0.229749D+00 -0.109609D+00  0.827148D-03  0.615330D-04
     12  0.440710D-01 -0.109618D+00 -0.105159D+00  0.492532D-03  0.496393D-03
     13 -0.714631D-01 -0.767203D-01  0.442133D-01  0.397518D-03 -0.804290D-03
     14 -0.757675D-01 -0.230635D+00  0.108930D+00 -0.829861D-03  0.669862D-04
     15  0.436802D-01  0.108939D+00 -0.104118D+00  0.489234D-03 -0.494051D-03
     16 -0.258586D+00  0.738003D-04  0.861954D-03  0.117674D-03  0.000000D+00
     17  0.863108D-05 -0.760327D-01 -0.656673D-05  0.000000D+00  0.896512D-03
     18  0.695114D-03 -0.684969D-05 -0.761191D-01 -0.316104D-04  0.000000D+00
     19 -0.101816D-01 -0.364942D-04  0.408135D-04 -0.186367D-02  0.000000D+00
     20  0.201185D-04  0.211024D-01 -0.211508D-05  0.000000D+00 -0.793146D-04
     21  0.182173D-03 -0.191292D-05  0.211356D-01  0.134479D-04  0.000000D+00
                6             7             8             9            10 
      6  0.261304D-03
      7 -0.938122D-03  0.839790D-01
      8 -0.245225D-05 -0.218960D-03  0.431404D-01
      9  0.320121D-03  0.991228D-01 -0.576280D-03  0.311354D+00
     10  0.470068D-03  0.447926D-02 -0.990167D-02 -0.465794D-02  0.825791D-01
     11  0.496746D-03 -0.961073D-03  0.645505D-03  0.129822D-02 -0.841596D-01
     12 -0.496522D-03  0.106776D-01 -0.240984D-01 -0.126977D-01 -0.490319D-01
     13  0.466130D-03  0.447957D-02  0.992098D-02 -0.461400D-02  0.438511D-02
     14 -0.494338D-03  0.911886D-03  0.539433D-03 -0.123468D-02 -0.877360D-02
     15 -0.500644D-03  0.106847D-01  0.241601D-01 -0.126020D-01 -0.623586D-02
     16 -0.559029D-05 -0.208197D-01  0.402538D-05 -0.286526D-02 -0.205725D-01
     17  0.000000D+00  0.767217D-04 -0.326558D-02 -0.231897D-04  0.291174D-01
     18  0.904624D-03 -0.334594D-01 -0.205213D-04  0.726509D-02  0.169825D-01
     19 -0.476276D-05  0.254225D-03 -0.631728D-05  0.320935D-02  0.204313D-03
     20  0.000000D+00 -0.987766D-05  0.112370D-02  0.717146D-05 -0.367945D-02
     21 -0.822228D-04  0.422698D-02  0.607084D-05 -0.149817D-02 -0.213468D-02
               11            12            13            14            15 
     11  0.244593D+00
     12  0.117299D+00  0.111339D+00
     13  0.879876D-02 -0.619373D-02  0.825879D-01
     14 -0.191837D-01  0.127037D-01  0.843171D-01  0.245551D+00
     15 -0.128244D-01  0.727844D-02 -0.486098D-01 -0.116589D+00  0.110235D+00
     16  0.261260D-02  0.157929D-02 -0.205774D-01 -0.263610D-02  0.157406D-02
     17  0.443474D-02  0.431374D-02 -0.292027D-01  0.447143D-02 -0.428143D-02
     18  0.444513D-02 -0.753758D-03  0.168573D-01 -0.441540D-02 -0.791953D-03
     19 -0.276841D-02 -0.159477D-02  0.190488D-03  0.277804D-02 -0.158251D-02
     20 -0.801868D-03 -0.109648D-02  0.369051D-02 -0.810040D-03  0.108989D-02
     21 -0.110543D-02  0.488767D-03 -0.211922D-02  0.109993D-02  0.498643D-03
               16            17            18            19            20 
     16  0.155739D+01
     17  0.450925D-03  0.108247D+00
     18 -0.446945D-02 -0.507513D-05  0.108268D+00
     19 -0.123696D+01 -0.451036D-03  0.342558D-02  0.124835D+01
     20 -0.505024D-03 -0.387514D-01  0.300141D-05  0.484140D-03  0.182165D-01
     21  0.332500D-02  0.281177D-05 -0.387732D-01 -0.349370D-02 -0.161982D-05
               21 
     21  0.182306D-01
 Leave Link  716 at Sun Oct 13 09:46:35 2024, MaxMem=  2684354560 cpu:               0.9 elap:               0.1
 (Enter /usr/local/g16_AVX//g16/l103.exe)

 GradGradGradGradGradGradGradGradGradGradGradGradGradGradGradGradGradGrad
 Berny optimization.
 Search for a local minimum.
 Step number   1 out of a maximum of    2
 All quantities printed in internal units (Hartrees-Bohrs-Radians)
 Second derivative matrix not updated -- analytic derivatives used.
 ITU=  0
     Eigenvalues ---   -0.00049  -0.00047   0.00350   0.02480   0.02485
     Eigenvalues ---    0.09677   0.09681   0.09778   0.16289   0.16292
     Eigenvalues ---    0.28099   0.64820   0.81910   0.81957   2.66490
 Eigenvalue     1 is  -4.93D-04 should be greater than     0.000000 Eigenvector:
                          Z3        Z4        Z5        Z7        Z1
   1                    0.44237   0.42944   0.42807  -0.35618   0.32943
                          X3        Z2        X4        X5        Z6
   1                   -0.29720  -0.24992   0.16309   0.13716  -0.05470
 Eigenvalue     2 is  -4.71D-04 should be greater than     0.000000 Eigenvector:
                          Y5        Y3        Y4        Y7        Y1
   1                    0.43351   0.43336   0.43282  -0.35669   0.32986
                          X5        X4        Y2        Y6        Z5
   1                   -0.26512   0.25029  -0.25002  -0.05434  -0.03276
 Quadratic step=5.990D-01 exceeds max=3.000D-01 adjusted using Lamda=-3.604D-03.
 Angle between NR and scaled steps=   5.87 degrees.
 Angle between quadratic step and forces=  62.96 degrees.
 Linear search not attempted -- first point.
 B after Tr=     0.047329    0.000019   -0.000115
         Rot=    1.000000    0.000000   -0.000010    0.000002 Ang=   0.00 deg.
 Variable       Old X    -DE/DX   Delta X   Delta X   Delta X     New X
                                 (Linear)    (Quad)   (Total)
    X1        1.73117   0.00255   0.00000  -0.06816  -0.02083   1.71034
    Y1        0.00004  -0.00012   0.00000  -0.00020  -0.00018  -0.00014
    Z1        0.01347  -0.00008   0.00000   0.00035   0.00020   0.01367
    X2       -4.89749   0.00187   0.00000   0.19676   0.24409  -4.65340
    Y2        0.00004   0.00000   0.00000   0.00001   0.00005   0.00008
    Z2       -0.00465  -0.00000   0.00000  -0.00008  -0.00009  -0.00474
    X3        1.00585  -0.00301   0.00000  -0.11246  -0.06517   0.94067
    Y3        0.00416   0.00001   0.00000  -0.00004  -0.00003   0.00414
    Z3       -1.91817   0.00123   0.00000   0.01707   0.01694  -1.90123
    X4        1.02118  -0.00304   0.00000  -0.11411  -0.06675   0.95443
    Y4        1.67441  -0.00107   0.00000  -0.01494  -0.01492   1.65949
    Z4        0.98790  -0.00057   0.00000  -0.00791  -0.00804   0.97986
    X5        1.02130  -0.00306   0.00000  -0.11399  -0.06665   0.95465
    Y5       -1.67903   0.00112   0.00000   0.01481   0.01482  -1.66421
    Z5        0.98024  -0.00059   0.00000  -0.00775  -0.00788   0.97236
    X6        4.48627   0.00133   0.00000  -0.06112  -0.01379   4.47248
    Y6       -0.00055   0.00008   0.00000   0.00055   0.00055   0.00000
    Z6        0.00139   0.00007   0.00000   0.00098   0.00077   0.00216
    X7        6.68267   0.00336   0.00000  -0.05822  -0.01089   6.67178
    Y7        0.00038  -0.00003   0.00000  -0.00028  -0.00029   0.00009
    Z7       -0.00472  -0.00007   0.00000  -0.00165  -0.00190  -0.00662
         Item               Value     Threshold  Converged?
 Maximum Force            0.003356     0.000450     NO 
 RMS     Force            0.001622     0.000300     NO 
 Maximum Displacement     0.244090     0.001800     NO 
 RMS     Displacement     0.059494     0.001200     NO 
 Predicted change in Energy=-6.691663D-04
 GradGradGradGradGradGradGradGradGradGradGradGradGradGradGradGradGradGrad

 Leave Link  103 at Sun Oct 13 09:46:35 2024, MaxMem=  2684354560 cpu:               0.6 elap:               0.1
 (Enter /usr/local/g16_AVX//g16/l9999.exe)

 ----------------------------------------------------------------------

 Electric dipole moment (input orientation):
 (Debye = 10**-18 statcoulomb cm , SI units = C m)
                  (au)            (Debye)         (10**-30 SI)
   Tot        0.268388D+01      0.682175D+01      0.227549D+02
   x          0.268386D+01      0.682170D+01      0.227547D+02
   y         -0.238589D-03     -0.606434D-03     -0.202285D-02
   z          0.991970D-02      0.252134D-01      0.841027D-01

 Dipole polarizability, Alpha (input orientation).
 (esu units = cm**3 , SI units = C**2 m**2 J**-1)
 Alpha(0;0):
               (au)            (10**-24 esu)      (10**-40 SI)
   iso        0.537855D+02      0.797018D+01      0.886803D+01
   aniso      0.364778D+02      0.540546D+01      0.601438D+01
   xx         0.781040D+02      0.115738D+02      0.128776D+02
   yx         0.534621D-02      0.792226D-03      0.881471D-03
   yy         0.416193D+02      0.616734D+01      0.686210D+01
   zx        -0.374971D-01     -0.555649D-02     -0.618243D-02
   zy        -0.635285D-04     -0.941396D-05     -0.104744D-04
   zz         0.416331D+02      0.616939D+01      0.686438D+01

 ----------------------------------------------------------------------

 Dipole orientation:
     6         -0.00706763          0.00019610          1.73120659
    17         -0.01345447         -0.00039827         -4.89746974
     1          1.92187141          0.00408352          0.99874958
     1         -0.98397408          1.67458709          1.02467892
     1         -0.97660410         -1.67885539          1.02506397
     6          0.01519432         -0.00015433          4.48624859
     7          0.02941803          0.00097318          6.68260936

 Electric dipole moment (dipole orientation):
 (Debye = 10**-18 statcoulomb cm , SI units = C m)
                  (au)            (Debye)         (10**-30 SI)
   Tot        0.268388D+01      0.682175D+01      0.227549D+02
   x          0.000000D+00      0.000000D+00      0.000000D+00
   y          0.000000D+00      0.000000D+00      0.000000D+00
   z          0.268388D+01      0.682175D+01      0.227549D+02

 Dipole polarizability, Alpha (dipole orientation).
 (esu units = cm**3 , SI units = C**2 m**2 J**-1)
 Alpha(0;0):
               (au)            (10**-24 esu)      (10**-40 SI)
   iso        0.537855D+02      0.797018D+01      0.886803D+01
   aniso      0.364778D+02      0.540546D+01      0.601438D+01
   xx         0.416339D+02      0.616951D+01      0.686451D+01
   yx         0.973095D-04      0.144198D-04      0.160442D-04
   yy         0.416193D+02      0.616734D+01      0.686210D+01
   zx         0.172293D+00      0.255312D-01      0.284073D-01
   zy         0.857399D-02      0.127053D-02      0.141366D-02
   zz         0.781032D+02      0.115737D+02      0.128775D+02

 ----------------------------------------------------------------------
 1\1\GINC-NODO4\Freq\RB3LYP\6-31++G(d,p)\C2H3Cl1N1(1-)\ALANQF\13-Oct-20
 24\0\\#p b3lyp 6-31++g(d,p) scf=verytight NoSymm freq=noraman int=ultr
 afine\\RxCoord=-9.48556 DE=0.13\\-1,1\C,0.916095,0.000022,0.007126\Cl,
 -2.591638,0.000019,-0.002459\H,0.532271,0.002204,-1.01505\H,0.540387,0
 .886059,0.522776\H,0.540448,-0.888506,0.518719\C,2.374034,-0.000292,0.
 000734\N,3.536318,0.000202,-0.002497\\Version=ES64L-G16RevB.01\HF=-593
 .0596314\RMSD=2.286e-09\RMSF=1.622e-03\ZeroPoint=0.0451356\Thermal=0.0
 495737\Dipole=2.7832073,-0.0002447,0.0106137\DipoleDeriv=-0.1025194,-0
 .0000933,0.0001354,0.0001753,0.0694478,-0.000011,-0.0001168,-0.0000104
 ,0.0683076,-1.0885657,-0.0000076,-0.0001041,-0.0000136,-0.9367685,-0.0
 000031,0.0000755,-0.000003,-0.9368171,0.1154496,-0.0000184,0.0171511,0
 .0001193,0.1117913,0.0001931,-0.0192539,0.0001985,0.0145387,0.1117062,
 -0.0148418,-0.0080114,0.0166549,0.038416,-0.0426007,0.0106079,-0.04247
 92,0.0871707,0.1116154,0.0149015,-0.0079345,-0.0168087,0.0378991,0.042
 4128,0.0106808,0.0422861,0.0875117,0.4906315,-0.0001805,-0.0024146,-0.
 0001444,0.0549909,0.0000369,-0.0033517,0.0000364,0.0550081,-0.6383176,
 0.0002399,0.001178,0.0000172,-0.3757766,-0.0000279,0.0013582,-0.000028
 4,-0.3757197\Polar=78.1039795,0.0053462,41.6192964,-0.0374971,-0.00006
 35,41.6331393\Quadrupole=-28.0243692,14.0128052,14.011564,-0.0011635,0
 .0039907,0.0002293\PG=C01 [X(C2H3Cl1N1)]\NImag=2\\0.48753046,-0.000111
 95,0.55708742,0.00057668,0.00015641,0.55680826,-0.00303901,0.00000114,
 0.00001386,0.00357419,0.00000043,-0.00039965,0.00000027,-0.00000042,0.
 00026409,0.00000851,0.00000028,-0.00040666,0.00000377,-0.00000010,0.00
 026130,-0.07278721,0.00019935,-0.09031446,0.00041487,0.00000195,-0.000
 93812,0.08397895,0.00019960,-0.04137332,0.00053139,0.00000234,-0.00081
 015,-0.00000245,-0.00021896,0.04314042,-0.08921368,0.00053114,-0.29214
 172,-0.00098123,-0.00000238,0.00032012,0.09912276,-0.00057628,0.311354
 36,-0.07147370,0.07659448,0.04460785,0.00039843,0.00080247,0.00047007,
 0.00447926,-0.00990167,-0.00465794,0.08257912,0.07565063,-0.22974900,-
 0.10960896,0.00082715,0.00006153,0.00049675,-0.00096107,0.00064551,0.0
 0129822,-0.08415965,0.24459282,0.04407100,-0.10961771,-0.10515862,0.00
 049253,0.00049639,-0.00049652,0.01067759,-0.02409835,-0.01269771,-0.04
 903191,0.11729875,0.11133940,-0.07146314,-0.07672032,0.04421331,0.0003
 9752,-0.00080429,0.00046613,0.00447957,0.00992098,-0.00461400,0.004385
 11,0.00879876,-0.00619373,0.08258787,-0.07576746,-0.23063519,0.1089295
 7,-0.00082986,0.00006699,-0.00049434,0.00091189,0.00053943,-0.00123468
 ,-0.00877360,-0.01918374,0.01270367,0.08431709,0.24555112,0.04368020,0
 .10893865,-0.10411775,0.00048923,-0.00049405,-0.00050064,0.01068465,0.
 02416014,-0.01260197,-0.00623586,-0.01282445,0.00727844,-0.04860978,-0
 .11658875,0.11023523,-0.25858580,0.00007380,0.00086195,0.00011767,-0.0
 0000023,-0.00000559,-0.02081967,0.00000403,-0.00286526,-0.02057253,0.0
 0261260,0.00157929,-0.02057741,-0.00263610,0.00157406,1.55739405,0.000
 00863,-0.07603270,-0.00000657,0.00000007,0.00089651,-0.00000028,0.0000
 7672,-0.00326558,-0.00002319,0.02911742,0.00443474,0.00431374,-0.02920
 273,0.00447143,-0.00428143,0.00045092,0.10824701,0.00069511,-0.0000068
 5,-0.07611907,-0.00003161,-0.00000028,0.00090462,-0.03345940,-0.000020
 52,0.00726509,0.01698247,0.00444513,-0.00075376,0.01685729,-0.00441540
 ,-0.00079195,-0.00446945,-0.00000508,0.10826824,-0.01018160,-0.0000364
 9,0.00004081,-0.00186367,0.00000008,-0.00000476,0.00025423,-0.00000632
 ,0.00320935,0.00020431,-0.00276841,-0.00159477,0.00019049,0.00277804,-
 0.00158251,-1.23695631,-0.00045104,0.00342558,1.24835255,0.00002012,0.
 02110244,-0.00000212,-0.00000042,-0.00007931,0.00000015,-0.00000988,0.
 00112370,0.00000717,-0.00367945,-0.00080187,-0.00109648,0.00369051,-0.
 00081004,0.00108989,-0.00050502,-0.03875141,0.00000300,0.00048414,0.01
 821649,0.00018217,-0.00000191,0.02113556,0.00001345,0.00000015,-0.0000
 8222,0.00422698,0.00000607,-0.00149817,-0.00213468,-0.00110543,0.00048
 877,-0.00211922,0.00109993,0.00049864,0.00332500,0.00000281,-0.0387731
 8,-0.00349370,-0.00000162,0.01823061\\-0.00255027,0.00011865,0.0000766
 2,-0.00187000,-0.00000050,0.00000144,0.00300875,-0.00000643,-0.0012295
 6,0.00303880,0.00106551,0.00056956,0.00305542,-0.00112463,0.00058651,-
 0.00132622,-0.00008226,-0.00007349,-0.00335647,0.00002966,0.00006891\\
 \@


 THE RARE EARTHS PERPLEX US IN OUR RESEARCHES,
 BAFFLE US IN OUR SPECULATIONS, AND HAUNT US IN OUR
 VERY DREAMS.  THEY STRETCH LIKE AN UNKNOWN BEFORE US,
 MOCKING, MYSTIFYING, AND MURMURING STRANGE REVELATIONS
 AND POSSIBILITIES.  -- SIR WILLIAM CROOKE, 1832-1919
 Job cpu time:       0 days  0 hours  3 minutes 53.7 seconds.
 Elapsed time:       0 days  0 hours  0 minutes 10.1 seconds.
 File lengths (MBytes):  RWF=     88 Int=      0 D2E=      0 Chk=      2 Scr=      2
 Normal termination of Gaussian 16 at Sun Oct 13 09:46:35 2024.
