 Entering Gaussian System, Link 0=g16
 Initial command:
 /usr/local/g16_AVX//g16/l1.exe "/scratch/alanqf/0007-54449.ixchel.mda.cinvestav.mx/Gau-20616.inp" -scrdir="/scratch/alanqf/0007-54449.ixchel.mda.cinvestav.mx/"
 Entering Link 1 = /usr/local/g16_AVX//g16/l1.exe PID=     20617.
  
 Copyright (c) 1988-2017, Gaussian, Inc.  All Rights Reserved.
  
 This is part of the Gaussian(R) 16 program.  It is based on
 the Gaussian(R) 09 system (copyright 2009, Gaussian, Inc.),
 the Gaussian(R) 03 system (copyright 2003, Gaussian, Inc.),
 the Gaussian(R) 98 system (copyright 1998, Gaussian, Inc.),
 the Gaussian(R) 94 system (copyright 1995, Gaussian, Inc.),
 the Gaussian 92(TM) system (copyright 1992, Gaussian, Inc.),
 the Gaussian 90(TM) system (copyright 1990, Gaussian, Inc.),
 the Gaussian 88(TM) system (copyright 1988, Gaussian, Inc.),
 the Gaussian 86(TM) system (copyright 1986, Carnegie Mellon
 University), and the Gaussian 82(TM) system (copyright 1983,
 Carnegie Mellon University). Gaussian is a federally registered
 trademark of Gaussian, Inc.
  
 This software contains proprietary and confidential information,
 including trade secrets, belonging to Gaussian, Inc.
  
 This software is provided under written license and may be
 used, copied, transmitted, or stored only in accord with that
 written license.
  
 The following legend is applicable only to US Government
 contracts under FAR:
  
                    RESTRICTED RIGHTS LEGEND
  
 Use, reproduction and disclosure by the US Government is
 subject to restrictions as set forth in subparagraphs (a)
 and (c) of the Commercial Computer Software - Restricted
 Rights clause in FAR 52.227-19.
  
 Gaussian, Inc.
 340 Quinnipiac St., Bldg. 40, Wallingford CT 06492
  
  
 ---------------------------------------------------------------
 Warning -- This program may not be used in any manner that
 competes with the business of Gaussian, Inc. or will provide
 assistance to any competitor of Gaussian, Inc.  The licensee
 of this program is prohibited from giving any competitor of
 Gaussian, Inc. access to this program.  By using this program,
 the user acknowledges that Gaussian, Inc. is engaged in the
 business of creating and licensing software in the field of
 computational chemistry and represents and warrants to the
 licensee that it is not a competitor of Gaussian, Inc. and that
 it will not use this program in any manner prohibited above.
 ---------------------------------------------------------------
  

 Cite this work as:
 Gaussian 16, Revision B.01,
 M. J. Frisch, G. W. Trucks, H. B. Schlegel, G. E. Scuseria, 
 M. A. Robb, J. R. Cheeseman, G. Scalmani, V. Barone, 
 G. A. Petersson, H. Nakatsuji, X. Li, M. Caricato, A. V. Marenich, 
 J. Bloino, B. G. Janesko, R. Gomperts, B. Mennucci, H. P. Hratchian, 
 J. V. Ortiz, A. F. Izmaylov, J. L. Sonnenberg, D. Williams-Young, 
 F. Ding, F. Lipparini, F. Egidi, J. Goings, B. Peng, A. Petrone, 
 T. Henderson, D. Ranasinghe, V. G. Zakrzewski, J. Gao, N. Rega, 
 G. Zheng, W. Liang, M. Hada, M. Ehara, K. Toyota, R. Fukuda, 
 J. Hasegawa, M. Ishida, T. Nakajima, Y. Honda, O. Kitao, H. Nakai, 
 T. Vreven, K. Throssell, J. A. Montgomery, Jr., J. E. Peralta, 
 F. Ogliaro, M. J. Bearpark, J. J. Heyd, E. N. Brothers, K. N. Kudin, 
 V. N. Staroverov, T. A. Keith, R. Kobayashi, J. Normand, 
 K. Raghavachari, A. P. Rendell, J. C. Burant, S. S. Iyengar, 
 J. Tomasi, M. Cossi, J. M. Millam, M. Klene, C. Adamo, R. Cammi, 
 J. W. Ochterski, R. L. Martin, K. Morokuma, O. Farkas, 
 J. B. Foresman, and D. J. Fox, Gaussian, Inc., Wallingford CT, 2016.
 
 ******************************************
 Gaussian 16:  ES64L-G16RevB.01 20-Dec-2017
                13-Oct-2024 
 ******************************************
 %NProcShared=26
 Will use up to   26 processors via shared memory.
 %MEM=20GB
 %chk=CHKfiles/0007.chk
 ---------------------------------------------------------------------
 #p b3lyp 6-31++g(d,p) scf=verytight NoSymm freq=noraman int=ultrafine
 ---------------------------------------------------------------------
 1/10=4,30=1,38=1/1,3;
 2/12=2,15=1,17=6,18=5,40=1/2;
 3/5=1,6=6,7=1111,11=2,25=1,30=1,71=2,74=-5,75=-5,140=1/1,2,3;
 4//1;
 5/5=2,17=3,38=5,98=1/2;
 8/6=4,10=90,11=11/1;
 11/6=1,8=1,9=11,15=111,16=1,31=1/1,2,10;
 10/6=1,31=1/2;
 6/7=2,8=2,9=2,10=2,28=1/1;
 7/8=1,10=1,25=1,30=1/1,2,3,16;
 1/10=4,30=1/3;
 99//99;
 Leave Link    1 at Sun Oct 13 09:46:25 2024, MaxMem=  2684354560 cpu:               1.4 elap:               0.1
 (Enter /usr/local/g16_AVX//g16/l101.exe)
 ------------------------
 RxCoord=-9.38567 DE=0.16
 ------------------------
 Symbolic Z-matrix:
 Charge = -1 Multiplicity = 1
 C                     0.91057  -0.00032   0.00654 
 Cl                   -2.5851    0.00002  -0.00246 
 H                     0.52747   0.00211  -1.01576 
 H                     0.53434   0.8858    0.52201 
 H                     0.53465  -0.88856   0.51817 
 C                     2.36844   0.00063   0.00155 
 N                     3.53073  -0.00026  -0.00254 
 
 ITRead=  0  0  0  0  0  0  0
 MicOpt= -1 -1 -1 -1 -1 -1 -1
 NAtoms=      7 NQM=        7 NQMF=       0 NMMI=      0 NMMIF=      0
                NMic=       0 NMicF=      0.
                    Isotopes and Nuclear Properties:
 (Nuclear quadrupole moments (NQMom) in fm**2, nuclear magnetic moments (NMagM)
  in nuclear magnetons)

  Atom         1           2           3           4           5           6           7
 IAtWgt=          12          35           1           1           1          12          14
 AtmWgt=  12.0000000  34.9688527   1.0078250   1.0078250   1.0078250  12.0000000  14.0030740
 NucSpn=           0           3           1           1           1           0           2
 AtZEff=  -0.0000000  -0.0000000  -0.0000000  -0.0000000  -0.0000000  -0.0000000  -0.0000000
 NQMom=    0.0000000  -8.1650000   0.0000000   0.0000000   0.0000000   0.0000000   2.0440000
 NMagM=    0.0000000   0.8218740   2.7928460   2.7928460   2.7928460   0.0000000   0.4037610
 AtZNuc=   6.0000000  17.0000000   1.0000000   1.0000000   1.0000000   6.0000000   7.0000000
 Leave Link  101 at Sun Oct 13 09:46:25 2024, MaxMem=  2684354560 cpu:               2.9 elap:               0.1
 (Enter /usr/local/g16_AVX//g16/l103.exe)

 GradGradGradGradGradGradGradGradGradGradGradGradGradGradGradGradGradGrad
 Berny optimization.
 Initialization pass.
 Trust Radius=3.00D-01 FncErr=1.00D-07 GrdErr=1.00D-07 EigMax=2.50D+02 EigMin=1.00D-04
 Number of steps in this run=      2 maximum allowed number of steps=      2.
 GradGradGradGradGradGradGradGradGradGradGradGradGradGradGradGradGradGrad

 Leave Link  103 at Sun Oct 13 09:46:25 2024, MaxMem=  2684354560 cpu:               0.5 elap:               0.1
 (Enter /usr/local/g16_AVX//g16/l202.exe)
                          Input orientation:                          
 ---------------------------------------------------------------------
 Center     Atomic      Atomic             Coordinates (Angstroms)
 Number     Number       Type             X           Y           Z
 ---------------------------------------------------------------------
      1          6           0        0.910573   -0.000315    0.006539
      2         17           0       -2.585104    0.000016   -0.002461
      3          1           0        0.527472    0.002112   -1.015761
      4          1           0        0.534344    0.885795    0.522014
      5          1           0        0.534647   -0.888563    0.518172
      6          6           0        2.368439    0.000629    0.001548
      7          7           0        3.530726   -0.000262   -0.002543
 ---------------------------------------------------------------------
                    Distance matrix (angstroms):
                    1          2          3          4          5
     1  C    0.000000
     2  Cl   3.495689   0.000000
     3  H    1.091728   3.273364   0.000000
     4  H    1.091995   3.284910   1.773611   0.000000
     5  H    1.091821   3.285343   1.773782   1.774362   0.000000
     6  C    1.457875   4.953545   2.103350   2.101977   2.102464
     7  N    2.620169   6.115830   3.169566   3.168369   3.168077
                    6          7
     6  C    0.000000
     7  N    1.162295   0.000000
 Symmetry turned off by external request.
 Stoichiometry    C2H3ClN(1-)
 Framework group  C1[X(C2H3ClN)]
 Deg. of freedom    15
 Full point group                 C1      NOp   1
 Rotational constants (GHZ):         159.3090991           1.0357037           1.0357021
 Leave Link  202 at Sun Oct 13 09:46:25 2024, MaxMem=  2684354560 cpu:               0.2 elap:               0.0
 (Enter /usr/local/g16_AVX//g16/l301.exe)
 Standard basis: 6-31++G(d,p) (6D, 7F)
 Ernie: Thresh=  0.10000D-02 Tol=  0.10000D-05 Strict=F.
    98 basis functions,   176 primitive gaussians,    98 cartesian basis functions
    20 alpha electrons       20 beta electrons
       nuclear repulsion energy       103.1866657501 Hartrees.
 IExCor=  402 DFT=T Ex+Corr=B3LYP ExCW=0 ScaHFX=  0.200000
 ScaDFX=  0.800000  0.720000  1.000000  0.810000 ScalE2=  1.000000  1.000000
 IRadAn=      5 IRanWt=     -1 IRanGd=            0 ICorTp=0 IEmpDi=  4
 NAtoms=    7 NActive=    7 NUniq=    7 SFac= 1.00D+00 NAtFMM=   60 NAOKFM=F Big=F
 Integral buffers will be    131072 words long.
 Raffenetti 2 integral format.
 Two-electron integral symmetry is turned off.
 Leave Link  301 at Sun Oct 13 09:46:25 2024, MaxMem=  2684354560 cpu:               1.4 elap:               0.1
 (Enter /usr/local/g16_AVX//g16/l302.exe)
 NPDir=0 NMtPBC=     1 NCelOv=     1 NCel=       1 NClECP=     1 NCelD=      1
         NCelK=      1 NCelE2=     1 NClLst=     1 CellRange=     0.0.
 One-electron integrals computed using PRISM.
 NBasis=    98 RedAO= T EigKep=  1.74D-05  NBF=    98
 NBsUse=    98 1.00D-06 EigRej= -1.00D+00 NBFU=    98
 Precomputing XC quadrature grid using
 IXCGrd= 4 IRadAn=           5 IRanWt=          -1 IRanGd=           0 AccXCQ= 0.00D+00.
 Generated NRdTot=       0 NPtTot=           0 NUsed=           0 NTot=          32
 NSgBfM=    98    98    98    98    98 MxSgAt=     7 MxSgA2=     7.
 Leave Link  302 at Sun Oct 13 09:46:25 2024, MaxMem=  2684354560 cpu:               3.8 elap:               0.2
 (Enter /usr/local/g16_AVX//g16/l303.exe)
 DipDrv:  MaxL=1.
 Leave Link  303 at Sun Oct 13 09:46:25 2024, MaxMem=  2684354560 cpu:               0.8 elap:               0.1
 (Enter /usr/local/g16_AVX//g16/l401.exe)
 ExpMin= 3.60D-02 ExpMax= 2.52D+04 ExpMxC= 3.78D+03 IAcc=3 IRadAn=         5 AccDes= 0.00D+00
 Harris functional with IExCor=  402 and IRadAn=       5 diagonalized for initial guess.
 HarFok:  IExCor=  402 AccDes= 0.00D+00 IRadAn=         5 IDoV= 1 UseB2=F ITyADJ=14
 ICtDFT=  3500011 ScaDFX=  1.000000  1.000000  1.000000  1.000000
 FoFCou: FMM=F IPFlag=           0 FMFlag=      100000 FMFlg1=           0
         NFxFlg=           0 DoJE=T BraDBF=F KetDBF=T FulRan=T
         wScrn=  0.000000 ICntrl=       500 IOpCl=  0 I1Cent=   200000004 NGrid=           0
         NMat0=    1 NMatS0=      1 NMatT0=    0 NMatD0=    1 NMtDS0=    0 NMtDT0=    0
 Symmetry not used in FoFCou.
 Harris En= -593.114102629221    
 JPrj=0 DoOrth=F DoCkMO=F.
 Leave Link  401 at Sun Oct 13 09:46:26 2024, MaxMem=  2684354560 cpu:               5.9 elap:               0.3
 (Enter /usr/local/g16_AVX//g16/l502.exe)
 Keep R1 ints in memory in canonical form, NReq=35752935.
 FoFCou: FMM=F IPFlag=           0 FMFlag=           0 FMFlg1=           0
         NFxFlg=           0 DoJE=F BraDBF=F KetDBF=F FulRan=T
         wScrn=  0.000000 ICntrl=       600 IOpCl=  0 I1Cent=           0 NGrid=           0
         NMat0=    1 NMatS0=   4851 NMatT0=    0 NMatD0=    1 NMtDS0=    0 NMtDT0=    0
 Symmetry not used in FoFCou.
 Two-electron integral symmetry not used.
 Closed shell SCF:
 Using DIIS extrapolation, IDIIS=  1040.
 NGot=  2684354560 LenX=  2672563405 LenY=  2672553360
 Requested convergence on RMS density matrix=1.00D-08 within 128 cycles.
 Requested convergence on MAX density matrix=1.00D-06.
 Requested convergence on             energy=1.00D-06.
 No special actions if energy rises.

 Cycle   1  Pass 1  IDiag  1:
 E= -592.950202206472    
 DIIS: error= 2.70D-02 at cycle   1 NSaved=   1.
 NSaved= 1 IEnMin= 1 EnMin= -592.950202206472     IErMin= 1 ErrMin= 2.70D-02
 ErrMax= 2.70D-02  0.00D+00 EMaxC= 1.00D-01 BMatC= 1.03D-01 BMatP= 1.03D-01
 IDIUse=3 WtCom= 7.30D-01 WtEn= 2.70D-01
 Coeff-Com:  0.100D+01
 Coeff-En:   0.100D+01
 Coeff:      0.100D+01
 Gap=     0.159 Goal=   None    Shift=    0.000
 GapD=    0.159 DampG=1.000 DampE=0.500 DampFc=0.5000 IDamp=-1.
 Damping current iteration by 5.00D-01
 RMSDP=1.08D-02 MaxDP=1.82D-01              OVMax= 1.80D-01

 Cycle   2  Pass 1  IDiag  1:
 E= -592.988997656162     Delta-E=       -0.038795449690 Rises=F Damp=T
 DIIS: error= 1.71D-02 at cycle   2 NSaved=   2.
 NSaved= 2 IEnMin= 2 EnMin= -592.988997656162     IErMin= 2 ErrMin= 1.71D-02
 ErrMax= 1.71D-02  0.00D+00 EMaxC= 1.00D-01 BMatC= 1.50D-02 BMatP= 1.03D-01
 IDIUse=3 WtCom= 8.29D-01 WtEn= 1.71D-01
 Coeff-Com:  0.165D+00 0.835D+00
 Coeff-En:   0.251D+00 0.749D+00
 Coeff:      0.180D+00 0.820D+00
 Gap=     0.144 Goal=   None    Shift=    0.000
 RMSDP=4.50D-03 MaxDP=1.48D-01 DE=-3.88D-02 OVMax= 1.44D-01

 Cycle   3  Pass 1  IDiag  1:
 E= -593.041713378025     Delta-E=       -0.052715721863 Rises=F Damp=F
 DIIS: error= 1.44D-02 at cycle   3 NSaved=   3.
 NSaved= 3 IEnMin= 3 EnMin= -593.041713378025     IErMin= 3 ErrMin= 1.44D-02
 ErrMax= 1.44D-02  0.00D+00 EMaxC= 1.00D-01 BMatC= 1.94D-02 BMatP= 1.50D-02
 IDIUse=2 WtCom= 0.00D+00 WtEn= 1.00D+00
 Coeff-En:   0.000D+00 0.000D+00 0.100D+01
 Coeff:      0.000D+00 0.000D+00 0.100D+01
 Gap=     0.148 Goal=   None    Shift=    0.000
 RMSDP=6.98D-03 MaxDP=2.54D-01 DE=-5.27D-02 OVMax= 1.63D-01

 Cycle   4  Pass 1  IDiag  1:
 E= -592.947520557723     Delta-E=        0.094192820302 Rises=F Damp=F
 DIIS: error= 3.27D-02 at cycle   4 NSaved=   4.
 NSaved= 4 IEnMin= 3 EnMin= -593.041713378025     IErMin= 3 ErrMin= 1.44D-02
 ErrMax= 3.27D-02  0.00D+00 EMaxC= 1.00D-01 BMatC= 1.25D-01 BMatP= 1.50D-02
 IDIUse=2 WtCom= 0.00D+00 WtEn= 1.00D+00
 Coeff-En:   0.000D+00 0.000D+00 0.802D+00 0.198D+00
 Coeff:      0.000D+00 0.000D+00 0.802D+00 0.198D+00
 Gap=     0.147 Goal=   None    Shift=    0.000
 RMSDP=3.13D-03 MaxDP=1.08D-01 DE= 9.42D-02 OVMax= 8.37D-02

 Cycle   5  Pass 1  IDiag  1:
 E= -593.050364438120     Delta-E=       -0.102843880397 Rises=F Damp=F
 DIIS: error= 9.45D-03 at cycle   5 NSaved=   5.
 NSaved= 5 IEnMin= 5 EnMin= -593.050364438120     IErMin= 5 ErrMin= 9.45D-03
 ErrMax= 9.45D-03  0.00D+00 EMaxC= 1.00D-01 BMatC= 1.03D-02 BMatP= 1.50D-02
 IDIUse=3 WtCom= 9.06D-01 WtEn= 9.45D-02
 Coeff-Com: -0.927D-03 0.196D-01 0.325D+00-0.941D-01 0.750D+00
 Coeff-En:   0.000D+00 0.000D+00 0.383D+00 0.000D+00 0.617D+00
 Coeff:     -0.840D-03 0.177D-01 0.331D+00-0.852D-01 0.738D+00
 Gap=     0.149 Goal=   None    Shift=    0.000
 RMSDP=1.36D-03 MaxDP=4.76D-02 DE=-1.03D-01 OVMax= 3.25D-02

 Cycle   6  Pass 1  IDiag  1:
 E= -593.059667383439     Delta-E=       -0.009302945319 Rises=F Damp=F
 DIIS: error= 1.75D-04 at cycle   6 NSaved=   6.
 NSaved= 6 IEnMin= 6 EnMin= -593.059667383439     IErMin= 6 ErrMin= 1.75D-04
 ErrMax= 1.75D-04  0.00D+00 EMaxC= 1.00D-01 BMatC= 5.59D-06 BMatP= 1.03D-02
 IDIUse=3 WtCom= 9.98D-01 WtEn= 1.75D-03
 Coeff-Com: -0.204D-02 0.810D-02 0.118D+00-0.474D-01 0.320D+00 0.603D+00
 Coeff-En:   0.000D+00 0.000D+00 0.000D+00 0.000D+00 0.000D+00 0.100D+01
 Coeff:     -0.204D-02 0.809D-02 0.117D+00-0.473D-01 0.320D+00 0.604D+00
 Gap=     0.148 Goal=   None    Shift=    0.000
 RMSDP=3.60D-05 MaxDP=6.64D-04 DE=-9.30D-03 OVMax= 6.18D-04

 Cycle   7  Pass 1  IDiag  1:
 E= -593.059672585815     Delta-E=       -0.000005202376 Rises=F Damp=F
 DIIS: error= 7.10D-05 at cycle   7 NSaved=   7.
 NSaved= 7 IEnMin= 7 EnMin= -593.059672585815     IErMin= 7 ErrMin= 7.10D-05
 ErrMax= 7.10D-05  0.00D+00 EMaxC= 1.00D-01 BMatC= 5.22D-07 BMatP= 5.59D-06
 IDIUse=1 WtCom= 1.00D+00 WtEn= 0.00D+00
 Coeff-Com: -0.413D-03 0.141D-02 0.204D-01-0.108D-01 0.608D-01 0.191D+00
 Coeff-Com:  0.738D+00
 Coeff:     -0.413D-03 0.141D-02 0.204D-01-0.108D-01 0.608D-01 0.191D+00
 Coeff:      0.738D+00
 Gap=     0.148 Goal=   None    Shift=    0.000
 RMSDP=1.31D-05 MaxDP=3.87D-04 DE=-5.20D-06 OVMax= 2.49D-04

 Cycle   8  Pass 1  IDiag  1:
 E= -593.059673081254     Delta-E=       -0.000000495439 Rises=F Damp=F
 DIIS: error= 1.25D-05 at cycle   8 NSaved=   8.
 NSaved= 8 IEnMin= 8 EnMin= -593.059673081254     IErMin= 8 ErrMin= 1.25D-05
 ErrMax= 1.25D-05  0.00D+00 EMaxC= 1.00D-01 BMatC= 1.63D-08 BMatP= 5.22D-07
 IDIUse=1 WtCom= 1.00D+00 WtEn= 0.00D+00
 Coeff-Com:  0.126D-04-0.788D-04 0.378D-02-0.198D-02 0.104D-01 0.473D-01
 Coeff-Com:  0.263D+00 0.677D+00
 Coeff:      0.126D-04-0.788D-04 0.378D-02-0.198D-02 0.104D-01 0.473D-01
 Coeff:      0.263D+00 0.677D+00
 Gap=     0.148 Goal=   None    Shift=    0.000
 RMSDP=6.83D-06 MaxDP=2.23D-04 DE=-4.95D-07 OVMax= 3.94D-05

 Cycle   9  Pass 1  IDiag  1:
 E= -593.059673099329     Delta-E=       -0.000000018075 Rises=F Damp=F
 DIIS: error= 2.02D-06 at cycle   9 NSaved=   9.
 NSaved= 9 IEnMin= 9 EnMin= -593.059673099329     IErMin= 9 ErrMin= 2.02D-06
 ErrMax= 2.02D-06  0.00D+00 EMaxC= 1.00D-01 BMatC= 5.23D-10 BMatP= 1.63D-08
 IDIUse=1 WtCom= 1.00D+00 WtEn= 0.00D+00
 Coeff-Com:  0.308D-04-0.699D-04-0.568D-03 0.841D-04-0.124D-02-0.944D-03
 Coeff-Com:  0.121D-01 0.166D+00 0.825D+00
 Coeff:      0.308D-04-0.699D-04-0.568D-03 0.841D-04-0.124D-02-0.944D-03
 Coeff:      0.121D-01 0.166D+00 0.825D+00
 Gap=     0.148 Goal=   None    Shift=    0.000
 RMSDP=8.97D-07 MaxDP=3.21D-05 DE=-1.81D-08 OVMax= 6.55D-06

 Cycle  10  Pass 1  IDiag  1:
 E= -593.059673099865     Delta-E=       -0.000000000537 Rises=F Damp=F
 DIIS: error= 2.61D-07 at cycle  10 NSaved=  10.
 NSaved=10 IEnMin=10 EnMin= -593.059673099865     IErMin=10 ErrMin= 2.61D-07
 ErrMax= 2.61D-07  0.00D+00 EMaxC= 1.00D-01 BMatC= 1.13D-11 BMatP= 5.23D-10
 IDIUse=1 WtCom= 1.00D+00 WtEn= 0.00D+00
 Coeff-Com:  0.720D-05-0.191D-04-0.104D-03 0.517D-04-0.292D-03-0.303D-03
 Coeff-Com: -0.281D-02 0.184D-01 0.152D+00 0.833D+00
 Coeff:      0.720D-05-0.191D-04-0.104D-03 0.517D-04-0.292D-03-0.303D-03
 Coeff:     -0.281D-02 0.184D-01 0.152D+00 0.833D+00
 Gap=     0.148 Goal=   None    Shift=    0.000
 RMSDP=7.29D-08 MaxDP=2.02D-06 DE=-5.37D-10 OVMax= 1.15D-06

 Cycle  11  Pass 1  IDiag  1:
 E= -593.059673099879     Delta-E=       -0.000000000013 Rises=F Damp=F
 DIIS: error= 6.24D-08 at cycle  11 NSaved=  11.
 NSaved=11 IEnMin=11 EnMin= -593.059673099879     IErMin=11 ErrMin= 6.24D-08
 ErrMax= 6.24D-08  0.00D+00 EMaxC= 1.00D-01 BMatC= 3.55D-13 BMatP= 1.13D-11
 IDIUse=1 WtCom= 1.00D+00 WtEn= 0.00D+00
 Coeff-Com: -0.950D-06 0.204D-05-0.632D-05 0.184D-05-0.591D-05-0.209D-04
 Coeff-Com: -0.651D-03-0.255D-02-0.519D-02 0.257D-01 0.983D+00
 Coeff:     -0.950D-06 0.204D-05-0.632D-05 0.184D-05-0.591D-05-0.209D-04
 Coeff:     -0.651D-03-0.255D-02-0.519D-02 0.257D-01 0.983D+00
 Gap=     0.148 Goal=   None    Shift=    0.000
 RMSDP=5.45D-08 MaxDP=2.10D-06 DE=-1.34D-11 OVMax= 1.93D-07

 Cycle  12  Pass 1  IDiag  1:
 E= -593.059673099879     Delta-E=        0.000000000000 Rises=F Damp=F
 DIIS: error= 8.98D-09 at cycle  12 NSaved=  12.
 NSaved=12 IEnMin=11 EnMin= -593.059673099879     IErMin=12 ErrMin= 8.98D-09
 ErrMax= 8.98D-09  0.00D+00 EMaxC= 1.00D-01 BMatC= 2.85D-15 BMatP= 3.55D-13
 IDIUse=1 WtCom= 1.00D+00 WtEn= 0.00D+00
 Coeff-Com: -0.373D-06 0.794D-06-0.461D-06-0.578D-07 0.179D-05-0.536D-05
 Coeff-Com: -0.144D-03-0.859D-03-0.312D-02 0.332D-02 0.267D+00 0.733D+00
 Coeff:     -0.373D-06 0.794D-06-0.461D-06-0.578D-07 0.179D-05-0.536D-05
 Coeff:     -0.144D-03-0.859D-03-0.312D-02 0.332D-02 0.267D+00 0.733D+00
 Gap=     0.148 Goal=   None    Shift=    0.000
 RMSDP=1.29D-08 MaxDP=5.17D-07 DE= 0.00D+00 OVMax= 2.02D-08

 Cycle  13  Pass 1  IDiag  1:
 E= -593.059673099880     Delta-E=       -0.000000000001 Rises=F Damp=F
 DIIS: error= 1.42D-09 at cycle  13 NSaved=  13.
 NSaved=13 IEnMin=13 EnMin= -593.059673099880     IErMin=13 ErrMin= 1.42D-09
 ErrMax= 1.42D-09  0.00D+00 EMaxC= 1.00D-01 BMatC= 1.65D-16 BMatP= 2.85D-15
 IDIUse=1 WtCom= 1.00D+00 WtEn= 0.00D+00
 Coeff-Com: -0.191D-07 0.303D-07 0.273D-06-0.675D-07 0.491D-06-0.232D-05
 Coeff-Com:  0.675D-05-0.146D-04-0.361D-03 0.979D-03-0.111D-01 0.119D+00
 Coeff-Com:  0.891D+00
 Coeff:     -0.191D-07 0.303D-07 0.273D-06-0.675D-07 0.491D-06-0.232D-05
 Coeff:      0.675D-05-0.146D-04-0.361D-03 0.979D-03-0.111D-01 0.119D+00
 Coeff:      0.891D+00
 Gap=     0.148 Goal=   None    Shift=    0.000
 RMSDP=2.28D-09 MaxDP=8.73D-08 DE=-1.25D-12 OVMax= 6.08D-09

 SCF Done:  E(RB3LYP) =  -593.059673100     A.U. after   13 cycles
            NFock= 13  Conv=0.23D-08     -V/T= 2.0047
 KE= 5.902625178943D+02 PE=-1.616444434544D+03 EE= 3.299355777998D+02
 Leave Link  502 at Sun Oct 13 09:46:28 2024, MaxMem=  2684354560 cpu:              38.4 elap:               1.8
 (Enter /usr/local/g16_AVX//g16/l801.exe)
 DoSCS=F DFT=T ScalE2(SS,OS)=  1.000000  1.000000
 Range of M.O.s used for correlation:     1    98
 NBasis=    98 NAE=    20 NBE=    20 NFC=     0 NFV=     0
 NROrb=     98 NOA=    20 NOB=    20 NVA=    78 NVB=    78

 **** Warning!!: The largest alpha MO coefficient is  0.12044704D+03

 Leave Link  801 at Sun Oct 13 09:46:28 2024, MaxMem=  2684354560 cpu:               0.8 elap:               0.1
 (Enter /usr/local/g16_AVX//g16/l1101.exe)
 Using compressed storage, NAtomX=     7.
 Will process      8 centers per pass.
 Leave Link 1101 at Sun Oct 13 09:46:28 2024, MaxMem=  2684354560 cpu:               3.5 elap:               0.2
 (Enter /usr/local/g16_AVX//g16/l1102.exe)
 Symmetrizing basis deriv contribution to polar:
 IMax=3 JMax=2 DiffMx= 0.00D+00
 Leave Link 1102 at Sun Oct 13 09:46:28 2024, MaxMem=  2684354560 cpu:               0.7 elap:               0.1
 (Enter /usr/local/g16_AVX//g16/l1110.exe)
 Forming Gx(P) for the SCF density, NAtomX=     7.
 Integral derivatives from FoFJK, PRISM(SPDF).
 Do as many integral derivatives as possible in FoFJK.
 G2DrvN: MDV=    2684353864.
 G2DrvN: will do     8 centers at a time, making    1 passes.
 Calling FoFCou, ICntrl=  3107 FMM=F I1Cent=   0 AccDes= 0.00D+00.
 FoFJK:  IHMeth= 1 ICntrl=    3107 DoSepK=F KAlg= 0 I1Cent=           0 FoldK=F
 IRaf=         0 NMat=       1 IRICut=       1 DoRegI=T DoRafI=F ISym2E= 0 IDoP0=0 IntGTp=1.
 FoFCou: FMM=F IPFlag=           0 FMFlag=      100000 FMFlg1=           0
         NFxFlg=           0 DoJE=F BraDBF=F KetDBF=F FulRan=T
         wScrn=  0.000000 ICntrl=      3107 IOpCl=  0 I1Cent=           0 NGrid=           0
         NMat0=    1 NMatS0=      1 NMatT0=    0 NMatD0=    1 NMtDS0=    0 NMtDT0=    0
 Symmetry not used in FoFCou.
 End of G2Drv F.D. properties file   721 does not exist.
 End of G2Drv F.D. properties file   722 does not exist.
 End of G2Drv F.D. properties file   788 does not exist.
 Leave Link 1110 at Sun Oct 13 09:46:29 2024, MaxMem=  2684354560 cpu:              39.6 elap:               1.6
 (Enter /usr/local/g16_AVX//g16/l1002.exe)
 Minotr:  Closed shell wavefunction.
          IDoAtm=1111111
          Direct CPHF calculation.
          Differentiating once with respect to electric field.
                with respect to dipole field.
          Differentiating once with respect to nuclear coordinates.
          Requested convergence is 1.0D-08 RMS, and 1.0D-07 maximum.
          Secondary convergence is 1.0D-12 RMS, and 1.0D-12 maximum.
          NewPWx=T KeepS1=F KeepF1=F KeepIn=T MapXYZ=F SortEE=F KeepMc=T.
         2136 words used for storage of precomputed grid.
 Keep R1 ints in memory in canonical form, NReq=35668397.
 FoFCou: FMM=F IPFlag=           0 FMFlag=           0 FMFlg1=           0
         NFxFlg=           0 DoJE=F BraDBF=F KetDBF=F FulRan=T
         wScrn=  0.000000 ICntrl=       600 IOpCl=  0 I1Cent=           0 NGrid=           0
         NMat0=    1 NMatS0=   4851 NMatT0=    0 NMatD0=    1 NMtDS0=    0 NMtDT0=    0
 Symmetry not used in FoFCou.
 Two-electron integral symmetry not used.
          MDV=    2684354560 using IRadAn=       1.
          Solving linear equations simultaneously, MaxMat=       0.
          There are    24 degrees of freedom in the 1st order CPHF.  IDoFFX=6 NUNeed=     3.
     21 vectors produced by pass  0 Test12= 6.50D-15 4.17D-09 XBig12= 6.89D+01 2.98D+00.
 AX will form    21 AO Fock derivatives at one time.
     21 vectors produced by pass  1 Test12= 6.50D-15 4.17D-09 XBig12= 4.92D+01 1.99D+00.
     21 vectors produced by pass  2 Test12= 6.50D-15 4.17D-09 XBig12= 2.17D+00 4.94D-01.
     21 vectors produced by pass  3 Test12= 6.50D-15 4.17D-09 XBig12= 8.72D-03 2.19D-02.
     21 vectors produced by pass  4 Test12= 6.50D-15 4.17D-09 XBig12= 1.06D-05 5.96D-04.
     18 vectors produced by pass  5 Test12= 6.50D-15 4.17D-09 XBig12= 2.04D-08 3.18D-05.
      5 vectors produced by pass  6 Test12= 6.50D-15 4.17D-09 XBig12= 4.93D-11 1.68D-06.
      3 vectors produced by pass  7 Test12= 6.50D-15 4.17D-09 XBig12= 8.88D-14 7.38D-08.
 InvSVY:  IOpt=1 It=  1 EMax= 1.09D-14
 Solved reduced A of dimension   131 with    24 vectors.
 FullF1:  Do perturbations      1 to       3.
 Isotropic polarizability for W=    0.000000       53.79 Bohr**3.
 End of Minotr F.D. properties file   721 does not exist.
 End of Minotr F.D. properties file   722 does not exist.
 End of Minotr F.D. properties file   788 does not exist.
 Leave Link 1002 at Sun Oct 13 09:46:32 2024, MaxMem=  2684354560 cpu:              55.2 elap:               2.2
 (Enter /usr/local/g16_AVX//g16/l601.exe)
 Copying SCF densities to generalized density rwf, IOpCl= 0 IROHF=0.

 **********************************************************************

            Population analysis using the SCF Density.

 **********************************************************************

 Alpha  occ. eigenvalues -- -101.25390 -14.23471 -10.13196 -10.10548  -9.16718
 Alpha  occ. eigenvalues --   -6.92498  -6.92498  -6.92497  -0.80421  -0.65137
 Alpha  occ. eigenvalues --   -0.50436  -0.38891  -0.33520  -0.33504  -0.26454
 Alpha  occ. eigenvalues --   -0.22349  -0.22346  -0.05189  -0.05056  -0.05056
 Alpha virt. eigenvalues --    0.09733   0.13106   0.13119   0.14087   0.14269
 Alpha virt. eigenvalues --    0.14273   0.19709   0.20213   0.20223   0.21931
 Alpha virt. eigenvalues --    0.22687   0.22703   0.24778   0.25813   0.25824
 Alpha virt. eigenvalues --    0.28391   0.32365   0.33071   0.33079   0.33649
 Alpha virt. eigenvalues --    0.33668   0.33770   0.39154   0.40381   0.47949
 Alpha virt. eigenvalues --    0.69698   0.78133   0.78138   0.83808   0.83822
 Alpha virt. eigenvalues --    0.84785   0.85131   0.85149   0.88142   0.98200
 Alpha virt. eigenvalues --    1.00470   1.01752   1.01763   1.09312   1.11107
 Alpha virt. eigenvalues --    1.11119   1.15499   1.15499   1.15976   1.15980
 Alpha virt. eigenvalues --    1.18903   1.23146   1.26508   1.44515   1.44535
 Alpha virt. eigenvalues --    1.53245   1.62023   1.62024   1.85467   1.85511
 Alpha virt. eigenvalues --    1.88033   2.04678   2.04699   2.13782   2.22489
 Alpha virt. eigenvalues --    2.22511   2.29150   2.38922   2.38933   2.73585
 Alpha virt. eigenvalues --    2.79353   2.79418   3.04039   3.08019   3.08102
 Alpha virt. eigenvalues --    3.27445   3.44188   3.53931   3.54006   4.23897
 Alpha virt. eigenvalues --    4.42691   4.56781   4.79992
          Condensed to atoms (all electrons):
               1          2          3          4          5          6
     1  C    5.795988  -0.083135   0.417418   0.420559   0.421321  -0.860890
     2  Cl  -0.083135  17.927163  -0.003649  -0.003656  -0.003657   0.107653
     3  H    0.417418  -0.003649   0.485081  -0.023318  -0.023298  -0.061421
     4  H    0.420559  -0.003656  -0.023318   0.487187  -0.023398  -0.065612
     5  H    0.421321  -0.003657  -0.023298  -0.023398   0.486902  -0.066173
     6  C   -0.860890   0.107653  -0.061421  -0.065612  -0.066173   6.552944
     7  N   -0.009547  -0.000130  -0.004404  -0.004212  -0.004270   0.417640
               7
     1  C   -0.009547
     2  Cl  -0.000130
     3  H   -0.004404
     4  H   -0.004212
     5  H   -0.004270
     6  C    0.417640
     7  N    7.177094
 Mulliken charges:
               1
     1  C   -0.101715
     2  Cl  -0.940588
     3  H    0.213592
     4  H    0.212451
     5  H    0.212573
     6  C   -0.024142
     7  N   -0.572171
 Sum of Mulliken charges =  -1.00000
 Mulliken charges with hydrogens summed into heavy atoms:
               1
     1  C    0.536901
     2  Cl  -0.940588
     6  C   -0.024142
     7  N   -0.572171
 APT charges:
               1
     1  C    0.011361
     2  Cl  -0.987129
     3  H    0.080736
     4  H    0.079182
     5  H    0.079288
     6  C    0.200704
     7  N   -0.464142
 Sum of APT charges =  -1.00000
 APT charges with hydrogens summed into heavy atoms:
               1
     1  C    0.250568
     2  Cl  -0.987129
     6  C    0.200704
     7  N   -0.464142
 Electronic spatial extent (au):  <R**2>=            990.5428
 Charge=             -1.0000 electrons
 Dipole moment (field-independent basis, Debye):
    X=              6.7852    Y=              0.0003    Z=              0.0249  Tot=              6.7852
 Quadrupole moment (field-independent basis, Debye-Ang):
   XX=            -91.8152   YY=            -35.4638   ZZ=            -35.4643
   XY=              0.0020   XZ=              0.0046   YZ=             -0.0006
 Traceless Quadrupole moment (field-independent basis, Debye-Ang):
   XX=            -37.5674   YY=             18.7839   ZZ=             18.7835
   XY=              0.0020   XZ=              0.0046   YZ=             -0.0006
 Octapole moment (field-independent basis, Debye-Ang**2):
  XXX=             -5.5664  YYY=             -0.0075  ZZZ=             -0.8419  XYY=              4.7893
  XXY=              0.0055  XXZ=              0.1714  XZZ=              4.7800  YZZ=              0.0051
  YYZ=              0.8661  XYZ=             -0.0005
 Hexadecapole moment (field-independent basis, Debye-Ang**3):
 XXXX=          -2019.8288 YYYY=            -58.3356 ZZZZ=            -58.3630 XXXY=              0.0174
 XXXZ=             -0.1780 YYYX=             -0.0052 YYYZ=             -0.0012 ZZZX=             -0.7381
 ZZZY=             -0.0003 XXYY=           -250.1702 XXZZ=           -250.1777 YYZZ=            -19.4312
 XXYZ=             -0.0007 YYXZ=              0.2925 ZZXY=              0.0018
 N-N= 1.031866657501D+02 E-N=-1.616444434330D+03  KE= 5.902625178943D+02
  Exact polarizability:  78.128  -0.009  41.621  -0.045   0.000  41.633
 Approx polarizability:  96.468  -0.028  49.704  -0.100   0.001  49.714
 No NMR shielding tensors so no spin-rotation constants.
 Leave Link  601 at Sun Oct 13 09:46:32 2024, MaxMem=  2684354560 cpu:               2.7 elap:               0.1
 (Enter /usr/local/g16_AVX//g16/l701.exe)
 ... and contract with generalized density number  0.
 Compute integral second derivatives.
 Leave Link  701 at Sun Oct 13 09:46:32 2024, MaxMem=  2684354560 cpu:               4.8 elap:               0.2
 (Enter /usr/local/g16_AVX//g16/l702.exe)
 L702 exits ... SP integral derivatives will be done elsewhere.
 Leave Link  702 at Sun Oct 13 09:46:32 2024, MaxMem=  2684354560 cpu:               0.6 elap:               0.1
 (Enter /usr/local/g16_AVX//g16/l703.exe)
 Integral derivatives from FoFJK, PRISM(SPDF).
 Compute integral second derivatives, UseDBF=F ICtDFT=           0.
 Calling FoFJK, ICntrl=    100127 FMM=F ISym2X=0 I1Cent= 0 IOpClX= 0 NMat=1 NMatS=1 NMatT=0.
 FoFJK:  IHMeth= 1 ICntrl=  100127 DoSepK=F KAlg= 0 I1Cent=           0 FoldK=F
 IRaf=         0 NMat=       1 IRICut=       1 DoRegI=T DoRafI=F ISym2E= 0 IDoP0=0 IntGTp=1.
 FoFCou: FMM=F IPFlag=           0 FMFlag=      100000 FMFlg1=         800
         NFxFlg=           0 DoJE=F BraDBF=F KetDBF=F FulRan=T
         wScrn=  0.000000 ICntrl=    100127 IOpCl=  0 I1Cent=           0 NGrid=           0
         NMat0=    1 NMatS0=      1 NMatT0=    0 NMatD0=    1 NMtDS0=    0 NMtDT0=    0
 Symmetry not used in FoFCou.
 Leave Link  703 at Sun Oct 13 09:46:35 2024, MaxMem=  2684354560 cpu:              66.4 elap:               2.6
 (Enter /usr/local/g16_AVX//g16/l716.exe)
 Dipole        = 2.66949273D+00 1.29216348D-04 9.77976769D-03
 Polarizability= 7.81275974D+01-8.85515596D-03 4.16212959D+01
                -4.45226557D-02 3.54018418D-04 4.16333501D+01
 Full mass-weighted force constant matrix:
 Low frequencies ---  -60.5037  -59.1817   -0.0057   -0.0052   -0.0035   17.1560
 Low frequencies ---   17.3120   72.1449  129.1858
 ******    2 imaginary frequencies (negative Signs) ****** 
 Diagonal vibrational polarizability:
      107.7439118     184.7140469     175.1713354
 Harmonic frequencies (cm**-1), IR intensities (KM/Mole), Raman scattering
 activities (A**4/AMU), depolarization ratios for plane and unpolarized
 incident light, reduced masses (AMU), force constants (mDyne/A),
 and normal coordinates:
                      1                      2                      3
                      A                      A                      A
 Frequencies --    -56.4107               -54.9097                72.1449
 Red. masses --      3.5459                 3.5556                11.9108
 Frc consts  --      0.0066                 0.0063                 0.0365
 IR Inten    --     20.6526                20.6476                20.6486
  Atom  AN      X      Y      Z        X      Y      Z        X      Y      Z
     1   6     0.00  -0.02   0.37    -0.00   0.37   0.02    -0.36  -0.00  -0.00
     2  17     0.00   0.01  -0.08     0.00  -0.08  -0.01     0.43   0.00   0.00
     3   1    -0.28  -0.03   0.48    -0.02   0.49   0.03    -0.37  -0.00   0.00
     4   1     0.13  -0.03   0.47     0.25   0.47   0.05    -0.37  -0.00  -0.01
     5   1     0.16  -0.04   0.47    -0.23   0.47   0.01    -0.37   0.00  -0.01
     6   6    -0.00  -0.00   0.02    -0.00   0.02   0.00    -0.37  -0.00  -0.00
     7   7    -0.00   0.02  -0.24    -0.00  -0.25  -0.02    -0.37   0.00   0.00
                      4                      5                      6
                      A                      A                      A
 Frequencies --    371.7146               372.3524               921.0997
 Red. masses --      3.5644                 3.5657                 4.7347
 Frc consts  --      0.2902                 0.2913                 2.3668
 IR Inten    --      1.3602                 1.3439                 9.4395
  Atom  AN      X      Y      Z        X      Y      Z        X      Y      Z
     1   6    -0.00   0.01  -0.06     0.00  -0.06  -0.01     0.44   0.00  -0.00
     2  17     0.00   0.00  -0.00     0.00  -0.00  -0.00    -0.00   0.00   0.00
     3   1     0.59   0.03  -0.29     0.06  -0.28  -0.03     0.48   0.00  -0.01
     4   1    -0.24   0.03  -0.28    -0.55  -0.28  -0.03     0.48   0.01   0.00
     5   1    -0.35   0.03  -0.28     0.48  -0.28  -0.03     0.47  -0.01   0.00
     6   6     0.00  -0.04   0.40     0.00   0.40   0.04    -0.20  -0.00   0.00
     7   7    -0.00   0.03  -0.23    -0.00  -0.23  -0.03    -0.30   0.00   0.00
                      7                      8                      9
                      A                      A                      A
 Frequencies --   1023.2558              1024.3135              1368.3022
 Red. masses --      1.5075                 1.5052                 1.2247
 Frc consts  --      0.9300                 0.9305                 1.3510
 IR Inten    --      1.3033                 1.2960                32.4333
  Atom  AN      X      Y      Z        X      Y      Z        X      Y      Z
     1   6     0.00  -0.01   0.16     0.00  -0.16  -0.01    -0.14  -0.00   0.00
     2  17     0.00   0.00  -0.00    -0.00   0.00   0.00     0.00  -0.00  -0.00
     3   1     0.71   0.01  -0.12    -0.03   0.33   0.01     0.52   0.00  -0.24
     4   1    -0.33   0.10  -0.28     0.63   0.17  -0.09     0.52   0.20   0.12
     5   1    -0.38  -0.09  -0.27    -0.61   0.17   0.11     0.52  -0.20   0.12
     6   6    -0.00   0.01  -0.13     0.00   0.13   0.01     0.00   0.00  -0.00
     7   7     0.00  -0.00   0.02    -0.00  -0.02  -0.00     0.01  -0.00  -0.00
                     10                     11                     12
                      A                      A                      A
 Frequencies --   1451.3777              1451.6140              2348.7918
 Red. masses --      1.0400                 1.0400                12.5211
 Frc consts  --      1.2908                 1.2912                40.6989
 IR Inten    --     13.4560                13.4467                43.9682
  Atom  AN      X      Y      Z        X      Y      Z        X      Y      Z
     1   6     0.00  -0.02  -0.04    -0.00  -0.04   0.02    -0.09  -0.00   0.00
     2  17     0.00  -0.00  -0.00    -0.00  -0.00   0.00     0.00  -0.00  -0.00
     3   1     0.32   0.33  -0.14    -0.16   0.63   0.08    -0.07   0.00   0.02
     4   1    -0.30  -0.31   0.27    -0.20   0.23  -0.56    -0.07  -0.02  -0.01
     5   1    -0.02   0.36   0.61     0.36  -0.12   0.11    -0.07   0.02  -0.01
     6   6    -0.00  -0.01  -0.02     0.00  -0.02   0.01     0.80  -0.00  -0.00
     7   7     0.00   0.00   0.00     0.00   0.00  -0.00    -0.59   0.00   0.00
                     13                     14                     15
                      A                      A                      A
 Frequencies --   3080.7739              3163.0220              3164.5662
 Red. masses --      1.0336                 1.1032                 1.1032
 Frc consts  --      5.7798                 6.5028                 6.5094
 IR Inten    --      1.1912                 0.1567                 0.1777
  Atom  AN      X      Y      Z        X      Y      Z        X      Y      Z
     1   6    -0.05   0.00   0.00    -0.00  -0.09  -0.04    -0.00   0.04  -0.09
     2  17    -0.00  -0.00  -0.00    -0.00   0.00   0.00    -0.00  -0.00   0.00
     3   1     0.19  -0.00   0.53     0.11  -0.02   0.29     0.27   0.01   0.71
     4   1     0.19  -0.48  -0.28    -0.28   0.65   0.38    -0.04   0.10   0.03
     5   1     0.19   0.47  -0.27     0.17   0.40  -0.25    -0.22  -0.53   0.29
     6   6    -0.00   0.00   0.00    -0.00   0.00   0.00    -0.00  -0.00   0.00
     7   7     0.00   0.00  -0.00     0.00  -0.00  -0.00     0.00   0.00  -0.00

 -------------------
 - Thermochemistry -
 -------------------
 Temperature   298.150 Kelvin.  Pressure   1.00000 Atm.
 Atom     1 has atomic number  6 and mass  12.00000
 Atom     2 has atomic number 17 and mass  34.96885
 Atom     3 has atomic number  1 and mass   1.00783
 Atom     4 has atomic number  1 and mass   1.00783
 Atom     5 has atomic number  1 and mass   1.00783
 Atom     6 has atomic number  6 and mass  12.00000
 Atom     7 has atomic number  7 and mass  14.00307
 Molecular mass:    75.99540 amu.
 Principal axes and moments of inertia in atomic units:
                           1         2         3
     Eigenvalues --    11.328551742.526481742.52928
           X            1.00000   0.00012  -0.00047
           Y           -0.00000   0.97093   0.23934
           Z            0.00048  -0.23934   0.97093
 This molecule is an asymmetric top.
 Rotational symmetry number  1.
 Rotational temperatures (Kelvin)      7.64563     0.04971     0.04971
 Rotational constants (GHZ):         159.30910     1.03570     1.03570
    2 imaginary frequencies ignored.
 Zero-point vibrational energy     118510.0 (Joules/Mol)
                                   28.32458 (Kcal/Mol)
 Warning -- explicit consideration of   3 degrees of freedom as
           vibrations may cause significant error
 Vibrational temperatures:    103.80   534.81   535.73  1325.26  1472.24
          (Kelvin)           1473.76  1968.68  2088.21  2088.55  3379.39
                             4432.55  4550.88  4553.10
 
 Zero-point correction=                           0.045138 (Hartree/Particle)
 Thermal correction to Energy=                    0.049573
 Thermal correction to Enthalpy=                  0.050517
 Thermal correction to Gibbs Free Energy=         0.017006
 Sum of electronic and zero-point Energies=           -593.014535
 Sum of electronic and thermal Energies=              -593.010100
 Sum of electronic and thermal Enthalpies=            -593.009156
 Sum of electronic and thermal Free Energies=         -593.042667
 
                     E (Thermal)             CV                S
                      KCal/Mol        Cal/Mol-Kelvin    Cal/Mol-Kelvin
 Total                   31.107             12.462             70.530
 Electronic               0.000              0.000              0.000
 Translational            0.889              2.981             38.900
 Rotational               0.889              2.981             25.045
 Vibrational             29.330              6.501              6.585
 Vibration     1          0.598              1.967              4.094
 Vibration     2          0.743              1.530              1.073
 Vibration     3          0.744              1.529              1.070
                       Q            Log10(Q)             Ln(Q)
 Total Bot       0.150600D-07         -7.822176        -18.011226
 Total V=0       0.870729D+13         12.939883         29.795182
 Vib (Bot)       0.871117D-20        -20.059923        -46.189680
 Vib (Bot)    1  0.285788D+01          0.456044          1.050081
 Vib (Bot)    2  0.489207D+00         -0.310507         -0.714970
 Vib (Bot)    3  0.488155D+00         -0.311442         -0.717121
 Vib (V=0)       0.503658D+01          0.702136          1.616728
 Vib (V=0)    1  0.340129D+01          0.531644          1.224155
 Vib (V=0)    2  0.119952D+01          0.079006          0.181919
 Vib (V=0)    3  0.119878D+01          0.078740          0.181306
 Electronic      0.100000D+01          0.000000          0.000000
 Translational   0.260396D+08          7.415635         17.075130
 Rotational      0.663915D+05          4.822113         11.103324
 
                                                       RxCoord=-9.38567 DE=0.16
                                                             IR Spectrum
 
     33  3                            2                                   1   1           11                                         
     11  0                            3                                   4   3           00    9                     3              
     66  8                            4                                   5   6           22    2                     7           7  
     53  1                            9                                   1   8           43    1                     2           2  
 
     XX  X                            X                                   X   X           XX    X                     X           X  
                                      X                                   X   X                 X                                 X  
                                      X                                   X   X                 X                                 X  
                                      X                                   X   X                 X                                 X  
                                      X                                   X   X                                                   X  
                                      X                                   X   X                                                   X  
                                      X                                   X   X                                                   X  
                                      X                                   X   X                                                   X  
                                      X                                   X   X                                                   X  
                                      X                                   X   X                                                      
                                      X                                   X   X                                                      
                                      X                                   X   X                                                      
                                      X                                       X                                                      
                                      X                                       X                                                      
                                      X                                       X                                                      
                                      X                                                                                              
                                      X                                                                                              
                                      X                                                                                              
                                      X                                                                                              
                                      X                                                                                              
 
 -------------------------------------------------------------------
 Center     Atomic                   Forces (Hartrees/Bohr)
 Number     Number              X              Y              Z
 -------------------------------------------------------------------
      1        6           0.002592933    0.000230666    0.000156020
      2       17           0.001786570   -0.000000941   -0.000002021
      3        1          -0.003017898   -0.000019471    0.001162186
      4        1          -0.003082789   -0.001167241   -0.000634272
      5        1          -0.003047390    0.001063699   -0.000587733
      6        6           0.001382235   -0.000171520   -0.000099432
      7        7           0.003386339    0.000064809    0.000005253
 -------------------------------------------------------------------
 Cartesian Forces:  Max     0.003386339 RMS     0.001631603
 Z-matrix is all fixed cartesians, so copy forces.
 Force constants in Cartesian coordinates: 
                1             2             3             4             5 
      1  0.487447D+00
      2  0.179775D-03  0.556852D+00
      3  0.669032D-03 -0.292405D-03  0.557162D+00
      4 -0.313273D-02 -0.317978D-05  0.920474D-05  0.375769D-02
      5 -0.126753D-05 -0.400075D-03  0.000000D+00  0.000000D+00  0.253656D-03
      6  0.643555D-05  0.000000D+00 -0.405116D-03  0.577703D-05  0.000000D+00
      7 -0.726127D-01  0.200664D-03 -0.902842D-01  0.400093D-03  0.221050D-05
      8  0.192304D-03 -0.413133D-01  0.605524D-03  0.146932D-05 -0.817343D-03
      9 -0.891837D-01  0.606441D-03 -0.292535D+00 -0.991807D-03 -0.284997D-05
     10 -0.715060D-01  0.765976D-01  0.445874D-01  0.378140D-03  0.807561D-03
     11  0.756385D-01 -0.229490D+00 -0.109395D+00  0.839854D-03  0.647389D-04
     12  0.440398D-01 -0.109401D+00 -0.105043D+00  0.498978D-03  0.503025D-03
     13 -0.714552D-01 -0.768592D-01  0.442839D-01  0.379908D-03 -0.809951D-03
     14 -0.759112D-01 -0.230713D+00  0.109067D+00 -0.840394D-03  0.684338D-04
     15  0.437415D-01  0.109072D+00 -0.104173D+00  0.493429D-03 -0.499906D-03
     16 -0.258537D+00 -0.188555D-03  0.618383D-03  0.101103D-03  0.000000D+00
     17 -0.471855D-04 -0.760659D-01  0.104817D-04  0.119616D-05  0.914197D-03
     18  0.614952D-03  0.109179D-04 -0.761540D-01 -0.289270D-04  0.000000D+00
     19 -0.102033D-01  0.728882D-04  0.116213D-03 -0.188420D-02  0.000000D+00
     20 -0.509712D-04  0.211302D-01  0.510348D-05  0.000000D+00 -0.836076D-04
     21  0.111909D-03  0.468678D-05  0.211492D-01  0.133454D-04  0.000000D+00
                6             7             8             9            10 
      6  0.250807D-03
      7 -0.945523D-03  0.838090D-01
      8 -0.271325D-05 -0.218114D-03  0.430952D-01
      9  0.326787D-03  0.990788D-01 -0.632013D-03  0.311741D+00
     10  0.473004D-03  0.447458D-02 -0.987115D-02 -0.464745D-02  0.826895D-01
     11  0.503471D-03 -0.956412D-03  0.637468D-03  0.129424D-02 -0.841936D-01
     12 -0.501506D-03  0.106970D-01 -0.241018D-01 -0.127027D-01 -0.490261D-01
     13  0.469770D-03  0.446892D-02  0.989699D-02 -0.460051D-02  0.439163D-02
     14 -0.500484D-03  0.912369D-03  0.546183D-03 -0.124456D-02 -0.877197D-02
     15 -0.505711D-03  0.106847D-01  0.241618D-01 -0.125857D-01 -0.622046D-02
     16 -0.478175D-05 -0.208111D-01  0.757534D-05 -0.286525D-02 -0.206113D-01
     17  0.000000D+00  0.679944D-04 -0.327182D-02 -0.247655D-04  0.291094D-01
     18  0.920330D-03 -0.334557D-01 -0.371732D-04  0.725473D-02  0.169666D-01
     19 -0.468171D-05  0.271169D-03 -0.907505D-05  0.320984D-02  0.183382D-03
     20  0.000000D+00 -0.871190D-05  0.112366D-02  0.350011D-05 -0.367780D-02
     21 -0.855894D-04  0.422487D-02  0.636516D-05 -0.149858D-02 -0.213305D-02
               11            12            13            14            15 
     11  0.244346D+00
     12  0.117072D+00  0.111233D+00
     13  0.881588D-02 -0.619279D-02  0.825949D-01
     14 -0.191991D-01  0.126969D-01  0.844504D-01  0.245638D+00
     15 -0.128140D-01  0.726237D-02 -0.486724D-01 -0.116692D+00  0.110281D+00
     16  0.263171D-02  0.158264D-02 -0.205895D-01 -0.261686D-02  0.155973D-02
     17  0.444680D-02  0.433270D-02 -0.291799D-01  0.447497D-02 -0.432401D-02
     18  0.444750D-02 -0.735568D-03  0.168272D-01 -0.442646D-02 -0.777192D-03
     19 -0.277596D-02 -0.159952D-02  0.209243D-03  0.277760D-02 -0.158644D-02
     20 -0.805500D-03 -0.110161D-02  0.368574D-02 -0.815910D-03  0.109622D-02
     21 -0.110849D-02  0.488199D-03 -0.211511D-02  0.110027D-02  0.498231D-03
               16            17            18            19            20 
     16  0.155732D+01
     17 -0.745068D-03  0.108259D+00
     18 -0.509624D-02  0.107358D-04  0.108271D+00
     19 -0.123687D+01  0.793605D-03  0.417208D-02  0.124830D+01
     20  0.910524D-03 -0.387575D-01 -0.624935D-05 -0.859090D-03  0.182087D-01
     21  0.420552D-02 -0.586387D-05 -0.387789D-01 -0.430749D-02  0.339923D-05
               21 
     21  0.182275D-01
 Leave Link  716 at Sun Oct 13 09:46:35 2024, MaxMem=  2684354560 cpu:               1.0 elap:               0.1
 (Enter /usr/local/g16_AVX//g16/l103.exe)

 GradGradGradGradGradGradGradGradGradGradGradGradGradGradGradGradGradGrad
 Berny optimization.
 Search for a local minimum.
 Step number   1 out of a maximum of    2
 All quantities printed in internal units (Hartrees-Bohrs-Radians)
 Second derivative matrix not updated -- analytic derivatives used.
 ITU=  0
     Eigenvalues ---   -0.00050  -0.00048   0.00368   0.02478   0.02484
     Eigenvalues ---    0.09674   0.09678   0.09775   0.16287   0.16292
     Eigenvalues ---    0.28100   0.64817   0.81903   0.81997   2.66476
 Eigenvalue     1 is  -5.02D-04 should be greater than     0.000000 Eigenvector:
                          Z3        Z5        Z4        Z7        Z1
   1                    0.44178   0.42895   0.42765  -0.35532   0.32913
                          X3        Z2        X5        X4        Z6
   1                   -0.29736  -0.25019   0.16659   0.13260  -0.05427
 Eigenvalue     2 is  -4.77D-04 should be greater than     0.000000 Eigenvector:
                          Y4        Y5        Y3        Y7        Y1
   1                    0.43345   0.43257   0.43226  -0.35598   0.32963
                          X4        Y2        X5        Y6        Z4
   1                    0.26686  -0.25031  -0.24769  -0.05382   0.04113
 Quadratic step=5.490D-01 exceeds max=3.000D-01 adjusted using Lamda=-3.155D-03.
 Angle between NR and scaled steps=   5.44 degrees.
 Angle between quadratic step and forces=  63.49 degrees.
 Linear search not attempted -- first point.
 B after Tr=     0.047450   -0.000037   -0.000181
         Rot=    1.000000   -0.000000    0.000001   -0.000005 Ang=  -0.00 deg.
 Variable       Old X    -DE/DX   Delta X   Delta X   Delta X     New X
                                 (Linear)    (Quad)   (Total)
    X1        1.72073   0.00259   0.00000  -0.06793  -0.02048   1.70025
    Y1       -0.00060   0.00023   0.00000   0.00034   0.00032  -0.00028
    Z1        0.01236   0.00016   0.00000   0.00062   0.00044   0.01280
    X2       -4.88514   0.00179   0.00000   0.19657   0.24402  -4.64112
    Y2        0.00003  -0.00000   0.00000  -0.00001  -0.00009  -0.00006
    Z2       -0.00465  -0.00000   0.00000  -0.00009  -0.00028  -0.00493
    X3        0.99678  -0.00302   0.00000  -0.11370  -0.06624   0.93054
    Y3        0.00399  -0.00002   0.00000  -0.00002  -0.00005   0.00394
    Z3       -1.91951   0.00116   0.00000   0.01759   0.01741  -1.90210
    X4        1.00976  -0.00308   0.00000  -0.11404  -0.06661   0.94315
    Y4        1.67391  -0.00117   0.00000  -0.01480  -0.01483   1.65908
    Z4        0.98646  -0.00063   0.00000  -0.00780  -0.00798   0.97849
    X5        1.01034  -0.00305   0.00000  -0.11443  -0.06697   0.94337
    Y5       -1.67914   0.00106   0.00000   0.01516   0.01513  -1.66401
    Z5        0.97920  -0.00059   0.00000  -0.00789  -0.00807   0.97113
    X6        4.47570   0.00138   0.00000  -0.06078  -0.01333   4.46238
    Y6        0.00119  -0.00017   0.00000  -0.00121  -0.00121  -0.00002
    Z6        0.00293  -0.00010   0.00000  -0.00045  -0.00062   0.00230
    X7        6.67211   0.00339   0.00000  -0.05784  -0.01039   6.66171
    Y7       -0.00050   0.00006   0.00000   0.00069   0.00072   0.00023
    Z7       -0.00481   0.00001   0.00000  -0.00073  -0.00090  -0.00570
         Item               Value     Threshold  Converged?
 Maximum Force            0.003386     0.000450     NO 
 RMS     Force            0.001632     0.000300     NO 
 Maximum Displacement     0.244020     0.001800     NO 
 RMS     Displacement     0.059540     0.001200     NO 
 Predicted change in Energy=-6.435433D-04
 GradGradGradGradGradGradGradGradGradGradGradGradGradGradGradGradGradGrad

 Leave Link  103 at Sun Oct 13 09:46:35 2024, MaxMem=  2684354560 cpu:               0.8 elap:               0.1
 (Enter /usr/local/g16_AVX//g16/l9999.exe)

 ----------------------------------------------------------------------

 Electric dipole moment (input orientation):
 (Debye = 10**-18 statcoulomb cm , SI units = C m)
                  (au)            (Debye)         (10**-30 SI)
   Tot        0.266951D+01      0.678522D+01      0.226331D+02
   x          0.266949D+01      0.678517D+01      0.226329D+02
   y          0.129216D-03      0.328435D-03      0.109554D-02
   z          0.977977D-02      0.248577D-01      0.829163D-01

 Dipole polarizability, Alpha (input orientation).
 (esu units = cm**3 , SI units = C**2 m**2 J**-1)
 Alpha(0;0):
               (au)            (10**-24 esu)      (10**-40 SI)
   iso        0.537941D+02      0.797146D+01      0.886945D+01
   aniso      0.365004D+02      0.540880D+01      0.601810D+01
   xx         0.781276D+02      0.115773D+02      0.128815D+02
   yx        -0.885516D-02     -0.131220D-02     -0.146002D-02
   yy         0.416213D+02      0.616764D+01      0.686242D+01
   zx        -0.445227D-01     -0.659758D-02     -0.734079D-02
   zy         0.354018D-03      0.524601D-04      0.583698D-04
   zz         0.416334D+02      0.616943D+01      0.686441D+01

 ----------------------------------------------------------------------

 Dipole orientation:
     6         -0.00605289         -0.00067885          1.72076728
    17         -0.01324616          0.00026606         -4.88512281
     1          1.92314873          0.00403594          0.98973899
     1         -0.98283832          1.67381350          1.01345198
     1         -0.97541424         -1.67923683          1.01383566
     6          0.01347143          0.00097264          4.47568179
     7          0.02924888         -0.00081665          6.67204275

 Electric dipole moment (dipole orientation):
 (Debye = 10**-18 statcoulomb cm , SI units = C m)
                  (au)            (Debye)         (10**-30 SI)
   Tot        0.266951D+01      0.678522D+01      0.226331D+02
   x          0.000000D+00      0.000000D+00      0.000000D+00
   y          0.000000D+00      0.000000D+00      0.000000D+00
   z          0.266951D+01      0.678522D+01      0.226331D+02

 Dipole polarizability, Alpha (dipole orientation).
 (esu units = cm**3 , SI units = C**2 m**2 J**-1)
 Alpha(0;0):
               (au)            (10**-24 esu)      (10**-40 SI)
   iso        0.537941D+02      0.797146D+01      0.886945D+01
   aniso      0.365004D+02      0.540880D+01      0.601810D+01
   xx         0.416342D+02      0.616955D+01      0.686455D+01
   yx        -0.394463D-03     -0.584534D-04     -0.650381D-04
   yy         0.416213D+02      0.616764D+01      0.686242D+01
   zx         0.178218D+00      0.264092D-01      0.293842D-01
   zy        -0.106122D-01     -0.157257D-02     -0.174972D-02
   zz         0.781268D+02      0.115772D+02      0.128814D+02

 ----------------------------------------------------------------------
 1\1\GINC-NODO4\Freq\RB3LYP\6-31++G(d,p)\C2H3Cl1N1(1-)\ALANQF\13-Oct-20
 24\0\\#p b3lyp 6-31++g(d,p) scf=verytight NoSymm freq=noraman int=ultr
 afine\\RxCoord=-9.38567 DE=0.16\\-1,1\C,0.910573,-0.000315,0.006539\Cl
 ,-2.585104,0.000016,-0.002461\H,0.527472,0.002112,-1.015761\H,0.534344
 ,0.885795,0.522014\H,0.534647,-0.888563,0.518172\C,2.368439,0.000629,0
 .001548\N,3.530726,-0.000262,-0.002543\\Version=ES64L-G16RevB.01\HF=-5
 93.0596731\RMSD=2.276e-09\RMSF=1.632e-03\ZeroPoint=0.0451381\Thermal=0
 .0495728\Dipole=2.7682842,0.000113,0.0104246\DipoleDeriv=-0.103094,0.0
 001759,0.0002741,-0.0003876,0.0691594,0.0000107,-0.0006151,0.0000091,0
 .068017,-1.0885091,0.0000176,-0.0000849,0.000023,-0.9364114,0.0000051,
 0.0000795,0.000005,-0.9364677,0.1157078,-0.0000983,0.0171208,-0.000140
 7,0.1117281,0.0002731,-0.0190445,0.0002577,0.0147729,0.1122053,-0.0148
 352,-0.00805,0.0169625,0.038314,-0.0425546,0.010701,-0.0424473,0.08702
 75,0.1122205,0.0148054,-0.0080156,-0.0168227,0.0381691,0.0422886,0.010
 3064,0.0421965,0.0874752,0.4918061,0.0005003,-0.0016939,0.0004553,0.05
 50499,-0.000083,-0.0026479,-0.000082,0.055255,-0.6403366,-0.0005657,0.
 0004495,-0.0000898,-0.3760091,0.0000601,0.0012206,0.000061,-0.3760799\
 Polar=78.1275974,-0.0088552,41.6212959,-0.0445227,0.000354,41.6333501\
 Quadrupole=-27.9304762,13.9654025,13.9650737,0.0015147,0.0034241,-0.00
 04214\PG=C01 [X(C2H3Cl1N1)]\NImag=2\\0.48744685,0.00017978,0.55685207,
 0.00066903,-0.00029241,0.55716185,-0.00313273,-0.00000318,0.00000920,0
 .00375769,-0.00000127,-0.00040007,-0.00000069,0.00000075,0.00025366,0.
 00000644,-0.00000070,-0.00040512,0.00000578,0.00000006,0.00025081,-0.0
 7261266,0.00020066,-0.09028416,0.00040009,0.00000221,-0.00094552,0.083
 80905,0.00019230,-0.04131332,0.00060552,0.00000147,-0.00081734,-0.0000
 0271,-0.00021811,0.04309517,-0.08918365,0.00060644,-0.29253516,-0.0009
 9181,-0.00000285,0.00032679,0.09907883,-0.00063201,0.31174062,-0.07150
 598,0.07659760,0.04458744,0.00037814,0.00080756,0.00047300,0.00447458,
 -0.00987115,-0.00464745,0.08268951,0.07563854,-0.22949018,-0.10939460,
 0.00083985,0.00006474,0.00050347,-0.00095641,0.00063747,0.00129424,-0.
 08419361,0.24434573,0.04403982,-0.10940117,-0.10504349,0.00049898,0.00
 050302,-0.00050151,0.01069698,-0.02410178,-0.01270266,-0.04902610,0.11
 707191,0.11123266,-0.07145517,-0.07685919,0.04428389,0.00037991,-0.000
 80995,0.00046977,0.00446892,0.00989699,-0.00460051,0.00439163,0.008815
 88,-0.00619279,0.08259494,-0.07591119,-0.23071281,0.10906659,-0.000840
 39,0.00006843,-0.00050048,0.00091237,0.00054618,-0.00124456,-0.0087719
 7,-0.01919905,0.01269694,0.08445044,0.24563818,0.04374150,0.10907223,-
 0.10417321,0.00049343,-0.00049991,-0.00050571,0.01068468,0.02416179,-0
 .01258573,-0.00622046,-0.01281403,0.00726237,-0.04867245,-0.11669230,0
 .11028125,-0.25853698,-0.00018855,0.00061838,0.00010110,0.00000068,-0.
 00000478,-0.02081115,0.00000758,-0.00286525,-0.02061127,0.00263171,0.0
 0158264,-0.02058948,-0.00261686,0.00155973,1.55732133,-0.00004719,-0.0
 7606589,0.00001048,0.00000120,0.00091420,0.00000072,0.00006799,-0.0032
 7182,-0.00002477,0.02910936,0.00444680,0.00433270,-0.02917991,0.004474
 97,-0.00432401,-0.00074507,0.10825927,0.00061495,0.00001092,-0.0761540
 4,-0.00002893,0.00000073,0.00092033,-0.03345569,-0.00003717,0.00725473
 ,0.01696662,0.00444750,-0.00073557,0.01682720,-0.00442646,-0.00077719,
 -0.00509624,0.00001074,0.10827065,-0.01020334,0.00007289,0.00011621,-0
 .00188420,0.00000002,-0.00000468,0.00027117,-0.00000908,0.00320984,0.0
 0018338,-0.00277596,-0.00159952,0.00020924,0.00277760,-0.00158644,-1.2
 3687356,0.00079361,0.00417208,1.24829731,-0.00005097,0.02113021,0.0000
 0510,0.00000031,-0.00008361,-0.00000036,-0.00000871,0.00112366,0.00000
 350,-0.00367780,-0.00080550,-0.00110161,0.00368574,-0.00081591,0.00109
 622,0.00091052,-0.03875753,-0.00000625,-0.00085909,0.01820869,0.000111
 91,0.00000469,0.02114917,0.00001335,-0.00000036,-0.00008559,0.00422487
 ,0.00000637,-0.00149858,-0.00213305,-0.00110849,0.00048820,-0.00211511
 ,0.00110027,0.00049823,0.00420552,-0.00000586,-0.03877891,-0.00430749,
 0.00000340,0.01822748\\-0.00259293,-0.00023067,-0.00015602,-0.00178657
 ,0.00000094,0.00000202,0.00301790,0.00001947,-0.00116219,0.00308279,0.
 00116724,0.00063427,0.00304739,-0.00106370,0.00058773,-0.00138224,0.00
 017152,0.00009943,-0.00338634,-0.00006481,-0.00000525\\\@


 THE RARE EARTHS PERPLEX US IN OUR RESEARCHES,
 BAFFLE US IN OUR SPECULATIONS, AND HAUNT US IN OUR
 VERY DREAMS.  THEY STRETCH LIKE AN UNKNOWN BEFORE US,
 MOCKING, MYSTIFYING, AND MURMURING STRANGE REVELATIONS
 AND POSSIBILITIES.  -- SIR WILLIAM CROOKE, 1832-1919
 Job cpu time:       0 days  0 hours  3 minutes 52.9 seconds.
 Elapsed time:       0 days  0 hours  0 minutes 10.0 seconds.
 File lengths (MBytes):  RWF=     88 Int=      0 D2E=      0 Chk=      2 Scr=      2
 Normal termination of Gaussian 16 at Sun Oct 13 09:46:35 2024.
