RxCoord=-9.28596 DE=0.19                                                
Freq      RB3LYP                                                      6-31++G(d,p)        
Number of atoms                            I                7
Info1-9                                    I   N=           9
          16          16           0           0           0         100
           6          18        -502
Full Title                                 C   N=           2
RxCoord=-9.28596 DE=0.19
Route                                      C   N=           6
#p b3lyp 6-31++g(d,p) scf=verytight NoSymm freq=noraman int=
ultrafine   
Charge                                     I               -1
Multiplicity                               I                1
Number of electrons                        I               40
Number of alpha electrons                  I               20
Number of beta electrons                   I               20
Number of basis functions                  I               98
Number of independent functions            I               98
Number of point charges in /Mol/           I                0
Number of translation vectors              I                0
Atomic numbers                             I   N=           7
           6          17           1           1           1           6
           7
Nuclear charges                            R   N=           7
  6.00000000E+00  1.70000000E+01  1.00000000E+00  1.00000000E+00  1.00000000E+00
  6.00000000E+00  7.00000000E+00
Current cartesian coordinates              R   N=          21
  1.71042702E+00  6.84080857E-04  1.26422678E-02 -4.87291204E+00  2.64561657E-05
 -4.61660092E-03  9.87145684E-01  4.25188378E-03 -1.91975765E+00  9.99383551E-01
  1.67461482E+00  9.85968385E-01  9.99234262E-01 -1.67834325E+00  9.78403811E-01
  4.46525843E+00 -2.03145558E-03  9.56201419E-04  6.66159261E+00  1.05068773E-03
 -3.33536661E-03
Number of symbols in /Mol/                 I                0
Force Field                                I                0
Atom Types                                 C   N=           7
                                                            
                        
Int Atom Types                             I   N=           7
           0           0           0           0           0           0
           0
MM charges                                 R   N=           7
  0.00000000E+00  0.00000000E+00  0.00000000E+00  0.00000000E+00  0.00000000E+00
  0.00000000E+00  0.00000000E+00
Integer atomic weights                     I   N=           7
          12          35           1           1           1          12
          14
Real atomic weights                        R   N=           7
  1.20000000E+01  3.49688527E+01  1.00782504E+00  1.00782504E+00  1.00782504E+00
  1.20000000E+01  1.40030740E+01
Atom fragment info                         I   N=           7
           0           0           0           0           0           0
           0
Atom residue num                           I   N=           7
           0           0           0           0           0           0
           0
Nuclear spins                              I   N=           7
           0           3           1           1           1           0
           2
Nuclear ZEff                               R   N=           7
 -3.60000000E+00 -1.42400000E+01 -1.00000000E+00 -1.00000000E+00 -1.00000000E+00
 -3.60000000E+00 -4.55000000E+00
Nuclear ZNuc                               R   N=           7
  6.00000000E+00  1.70000000E+01  1.00000000E+00  1.00000000E+00  1.00000000E+00
  6.00000000E+00  7.00000000E+00
Nuclear QMom                               R   N=           7
  0.00000000E+00 -8.16500000E+00  0.00000000E+00  0.00000000E+00  0.00000000E+00
  0.00000000E+00  2.04400000E+00
Nuclear GFac                               R   N=           7
  0.00000000E+00  8.21874000E-01  2.79284600E+00  2.79284600E+00  2.79284600E+00
  0.00000000E+00  4.03761000E-01
MicOpt                                     I   N=           7
          -1          -1          -1          -1          -1          -1
          -1
Number of residues                         I                0
Number of secondary structures             I                0
Number of contracted shells                I               33
Number of primitive shells                 I               72
Pure/Cartesian d shells                    I                1
Pure/Cartesian f shells                    I                0
Highest angular momentum                   I                2
Largest degree of contraction              I                6
Shell types                                I   N=          33
           0          -1          -1          -1           2           0
          -1          -1          -1          -1           2           0
           0           0           1           0           0           0
           1           0           0           0           1           0
          -1          -1          -1           2           0          -1
          -1          -1           2
Number of primitives per shell             I   N=          33
           6           3           1           1           1           6
           6           3           1           1           1           3
           1           1           1           3           1           1
           1           3           1           1           1           6
           3           1           1           1           6           3
           1           1           1
Shell to atom map                          I   N=          33
           1           1           1           1           1           2
           2           2           2           2           2           3
           3           3           3           4           4           4
           4           5           5           5           5           6
           6           6           6           6           7           7
           7           7           7
Primitive exponents                        R   N=          72
  3.04752488E+03  4.57369518E+02  1.03948685E+02  2.92101553E+01  9.28666296E+00
  3.16392696E+00  7.86827235E+00  1.88128854E+00  5.44249258E-01  1.68714478E-01
  4.38000000E-02  8.00000000E-01  2.51801000E+04  3.78035000E+03  8.60474000E+02
  2.42145000E+02  7.73349000E+01  2.62470000E+01  4.91765000E+02  1.16984000E+02
  3.74153000E+01  1.37834000E+01  5.45215000E+00  2.22588000E+00  3.18649000E+00
  1.14427000E+00  4.20377000E-01  1.42657000E-01  4.83000000E-02  7.50000000E-01
  1.87311370E+01  2.82539436E+00  6.40121692E-01  1.61277759E-01  3.60000000E-02
  1.10000000E+00  1.87311370E+01  2.82539436E+00  6.40121692E-01  1.61277759E-01
  3.60000000E-02  1.10000000E+00  1.87311370E+01  2.82539436E+00  6.40121692E-01
  1.61277759E-01  3.60000000E-02  1.10000000E+00  3.04752488E+03  4.57369518E+02
  1.03948685E+02  2.92101553E+01  9.28666296E+00  3.16392696E+00  7.86827235E+00
  1.88128854E+00  5.44249258E-01  1.68714478E-01  4.38000000E-02  8.00000000E-01
  4.17351146E+03  6.27457911E+02  1.42902093E+02  4.02343293E+01  1.28202129E+01
  4.39043701E+00  1.16263619E+01  2.71627981E+00  7.72218397E-01  2.12031498E-01
  6.39000000E-02  8.00000000E-01
Contraction coefficients                   R   N=          72
  1.83473713E-03  1.40373228E-02  6.88426223E-02  2.32184443E-01  4.67941348E-01
  3.62311985E-01 -1.19332420E-01 -1.60854152E-01  1.14345644E+00  1.00000000E+00
  1.00000000E+00  1.00000000E+00  1.83295985E-03  1.40341988E-02  6.90973943E-02
  2.37451980E-01  4.83033960E-01  3.39855972E-01 -2.29739142E-03 -3.07137189E-02
 -1.12528069E-01  4.50163278E-02  5.89353363E-01  4.65206287E-01 -2.51828028E-01
  6.15892514E-02  1.06018433E+00  1.00000000E+00  1.00000000E+00  1.00000000E+00
  3.34946043E-02  2.34726953E-01  8.13757326E-01  1.00000000E+00  1.00000000E+00
  1.00000000E+00  3.34946043E-02  2.34726953E-01  8.13757326E-01  1.00000000E+00
  1.00000000E+00  1.00000000E+00  3.34946043E-02  2.34726953E-01  8.13757326E-01
  1.00000000E+00  1.00000000E+00  1.00000000E+00  1.83473713E-03  1.40373228E-02
  6.88426223E-02  2.32184443E-01  4.67941348E-01  3.62311985E-01 -1.19332420E-01
 -1.60854152E-01  1.14345644E+00  1.00000000E+00  1.00000000E+00  1.00000000E+00
  1.83477216E-03  1.39946270E-02  6.85865518E-02  2.32240873E-01  4.69069948E-01
  3.60455199E-01 -1.14961182E-01 -1.69117479E-01  1.14585195E+00  1.00000000E+00
  1.00000000E+00  1.00000000E+00
P(S=P) Contraction coefficients            R   N=          72
  0.00000000E+00  0.00000000E+00  0.00000000E+00  0.00000000E+00  0.00000000E+00
  0.00000000E+00  6.89990666E-02  3.16423961E-01  7.44308291E-01  1.00000000E+00
  1.00000000E+00  0.00000000E+00  0.00000000E+00  0.00000000E+00  0.00000000E+00
  0.00000000E+00  0.00000000E+00  0.00000000E+00  3.98940088E-03  3.03177067E-02
  1.29880029E-01  3.27951072E-01  4.53527100E-01  2.52154056E-01 -1.42993147E-02
  3.23572333E-01  7.43507765E-01  1.00000000E+00  1.00000000E+00  0.00000000E+00
  0.00000000E+00  0.00000000E+00  0.00000000E+00  0.00000000E+00  0.00000000E+00
  0.00000000E+00  0.00000000E+00  0.00000000E+00  0.00000000E+00  0.00000000E+00
  0.00000000E+00  0.00000000E+00  0.00000000E+00  0.00000000E+00  0.00000000E+00
  0.00000000E+00  0.00000000E+00  0.00000000E+00  0.00000000E+00  0.00000000E+00
  0.00000000E+00  0.00000000E+00  0.00000000E+00  0.00000000E+00  6.89990666E-02
  3.16423961E-01  7.44308291E-01  1.00000000E+00  1.00000000E+00  0.00000000E+00
  0.00000000E+00  0.00000000E+00  0.00000000E+00  0.00000000E+00  0.00000000E+00
  0.00000000E+00  6.75797439E-02  3.23907296E-01  7.40895140E-01  1.00000000E+00
  1.00000000E+00  0.00000000E+00
Coordinates of each shell                  R   N=          99
  1.71042702E+00  6.84080857E-04  1.26422678E-02  1.71042702E+00  6.84080857E-04
  1.26422678E-02  1.71042702E+00  6.84080857E-04  1.26422678E-02  1.71042702E+00
  6.84080857E-04  1.26422678E-02  1.71042702E+00  6.84080857E-04  1.26422678E-02
 -4.87291204E+00  2.64561657E-05 -4.61660092E-03 -4.87291204E+00  2.64561657E-05
 -4.61660092E-03 -4.87291204E+00  2.64561657E-05 -4.61660092E-03 -4.87291204E+00
  2.64561657E-05 -4.61660092E-03 -4.87291204E+00  2.64561657E-05 -4.61660092E-03
 -4.87291204E+00  2.64561657E-05 -4.61660092E-03  9.87145684E-01  4.25188378E-03
 -1.91975765E+00  9.87145684E-01  4.25188378E-03 -1.91975765E+00  9.87145684E-01
  4.25188378E-03 -1.91975765E+00  9.87145684E-01  4.25188378E-03 -1.91975765E+00
  9.99383551E-01  1.67461482E+00  9.85968385E-01  9.99383551E-01  1.67461482E+00
  9.85968385E-01  9.99383551E-01  1.67461482E+00  9.85968385E-01  9.99383551E-01
  1.67461482E+00  9.85968385E-01  9.99234262E-01 -1.67834325E+00  9.78403811E-01
  9.99234262E-01 -1.67834325E+00  9.78403811E-01  9.99234262E-01 -1.67834325E+00
  9.78403811E-01  9.99234262E-01 -1.67834325E+00  9.78403811E-01  4.46525843E+00
 -2.03145558E-03  9.56201419E-04  4.46525843E+00 -2.03145558E-03  9.56201419E-04
  4.46525843E+00 -2.03145558E-03  9.56201419E-04  4.46525843E+00 -2.03145558E-03
  9.56201419E-04  4.46525843E+00 -2.03145558E-03  9.56201419E-04  6.66159261E+00
  1.05068773E-03 -3.33536661E-03  6.66159261E+00  1.05068773E-03 -3.33536661E-03
  6.66159261E+00  1.05068773E-03 -3.33536661E-03  6.66159261E+00  1.05068773E-03
 -3.33536661E-03  6.66159261E+00  1.05068773E-03 -3.33536661E-03
Num ILSW                                   I              100
ILSW                                       I   N=         100
           0           1           0           0           2           0
           0           0           0           0         402          -1
           5           0           0           0           2           0
           0           0           0           0           1           0
           1           1           0           0           0           0
           0           0      100000           0          -1           0
           0           0           0           0           0           0
           0           0           0           1           0           0
           0 -2000000000           1           0           0           0
           0           0           4          52           0           0
           0           0           5           0           0           0
           0           0           0           7           0           1
           0           0           0           0           0           0
           0           0           0           0           0           0
           0           0           0           0           0           0
           0           0           0           0           0           0
           0           0           0           0
Num RLSW                                   I               52
RLSW                                       R   N=          52
  8.00000000E-01  7.20000000E-01  1.00000000E+00  8.10000000E-01  2.00000000E-01
  0.00000000E+00  0.00000000E+00  1.00000000E+00  0.00000000E+00  0.00000000E+00
  0.00000000E+00  0.00000000E+00  1.00000000E+00  0.00000000E+00  0.00000000E+00
  0.00000000E+00  0.00000000E+00  1.00000000E+00  0.00000000E+00  0.00000000E+00
  0.00000000E+00  0.00000000E+00  1.00000000E+00  0.00000000E+00  0.00000000E+00
  0.00000000E+00  0.00000000E+00  1.00000000E+00  0.00000000E+00  0.00000000E+00
  0.00000000E+00  0.00000000E+00  1.00000000E+00  0.00000000E+00  0.00000000E+00
  0.00000000E+00  0.00000000E+00  0.00000000E+00  1.00000000E+00  1.00000000E+00
  0.00000000E+00  1.00000000E+00  0.00000000E+00  0.00000000E+00  0.00000000E+00
  0.00000000E+00  0.00000000E+00  0.00000000E+00  0.00000000E+00  0.00000000E+00
  0.00000000E+00  0.00000000E+00
MxBond                                     I                4
NBond                                      I   N=           7
           4           0           1           1           1           2
           1
IBond                                      I   N=          28
           3           4           5           6           0           0
           0           0           1           0           0           0
           1           0           0           0           1           0
           0           0           1           7           0           0
           6           0           0           0
RBond                                      R   N=          28
  1.00000000E+00  1.00000000E+00  1.00000000E+00  1.00000000E+00  0.00000000E+00
  0.00000000E+00  0.00000000E+00  0.00000000E+00  1.00000000E+00  0.00000000E+00
  0.00000000E+00  0.00000000E+00  1.00000000E+00  0.00000000E+00  0.00000000E+00
  0.00000000E+00  1.00000000E+00  0.00000000E+00  0.00000000E+00  0.00000000E+00
  1.00000000E+00  3.00000000E+00  0.00000000E+00  0.00000000E+00  3.00000000E+00
  0.00000000E+00  0.00000000E+00  0.00000000E+00
Virial Ratio                               R      2.004736597358412E+00
SCF Energy                                 R     -5.930597120845646E+02
Total Energy                               R     -5.930597120845646E+02
RMS Force                                  R      1.651415052495415E-03
RMS Density                                R      2.249374910725480E-09
NImag                                      I                2
Job Status                                 I                1
Nuclear derivative order                   I                2
External E-field                           R   N=          35
  0.00000000E+00  0.00000000E+00  0.00000000E+00  0.00000000E+00  0.00000000E+00
  0.00000000E+00  0.00000000E+00  0.00000000E+00  0.00000000E+00  0.00000000E+00
  0.00000000E+00  0.00000000E+00  0.00000000E+00  0.00000000E+00  0.00000000E+00
  0.00000000E+00  0.00000000E+00  0.00000000E+00  0.00000000E+00  0.00000000E+00
  0.00000000E+00  0.00000000E+00  0.00000000E+00  0.00000000E+00  0.00000000E+00
  0.00000000E+00  0.00000000E+00  0.00000000E+00  0.00000000E+00  0.00000000E+00
  0.00000000E+00  0.00000000E+00  0.00000000E+00  0.00000000E+00  0.00000000E+00
IOpCl                                      I                0
IROHF                                      I                0
Alpha Orbital Energies                     R   N=          98
 -1.01253954E+02 -1.42344068E+01 -1.01316494E+01 -1.01050337E+01 -9.16724070E+00
 -6.92504504E+00 -6.92504383E+00 -6.92502982E+00 -8.03946754E-01 -6.51016319E-01
 -5.04457672E-01 -3.88536001E-01 -3.34870286E-01 -3.34638869E-01 -2.64277927E-01
 -2.23223856E-01 -2.23153738E-01 -5.19634904E-02 -5.06556249E-02 -5.06506801E-02
  9.75019559E-02  1.31278037E-01  1.31471366E-01  1.40980962E-01  1.42878563E-01
  1.42961902E-01  1.97186619E-01  2.02293849E-01  2.02407702E-01  2.19329150E-01
  2.26992612E-01  2.27334381E-01  2.48042464E-01  2.58195577E-01  2.58317230E-01
  2.84341759E-01  3.23839550E-01  3.30920518E-01  3.31078674E-01  3.36851247E-01
  3.36956804E-01  3.38255340E-01  3.91697127E-01  4.04077892E-01  4.79792205E-01
  6.96575314E-01  7.81572217E-01  7.81676508E-01  8.38384851E-01  8.38710888E-01
  8.48177811E-01  8.51203633E-01  8.51341066E-01  8.81399323E-01  9.82377557E-01
  1.00605268E+00  1.01792803E+00  1.01808784E+00  1.09361028E+00  1.11142920E+00
  1.11161441E+00  1.15491448E+00  1.15492304E+00  1.15970287E+00  1.15975156E+00
  1.18982274E+00  1.23198097E+00  1.26548045E+00  1.44555623E+00  1.44568610E+00
  1.53281079E+00  1.62049956E+00  1.62050692E+00  1.85495194E+00  1.85556440E+00
  1.88142522E+00  2.04697968E+00  2.04741754E+00  2.13827956E+00  2.22538778E+00
  2.22571112E+00  2.29228204E+00  2.38965586E+00  2.38972041E+00  2.73734833E+00
  2.79362498E+00  2.79499382E+00  3.04094339E+00  3.08081357E+00  3.08145247E+00
  3.27498510E+00  3.44244676E+00  3.53999651E+00  3.54054398E+00  4.23952877E+00
  4.42761828E+00  4.56824760E+00  4.80037508E+00
Alpha MO coefficients                      R   N=        9604
 -3.42692195E-07 -6.59862110E-06 -7.92926381E-06  4.87117556E-09  6.60794034E-09
  1.29161243E-04  1.09829472E-04 -1.52514160E-07 -6.05414657E-07  8.84334803E-04
  2.80138199E-04 -2.30149613E-07 -9.69539594E-07  5.93363396E-06  1.79524780E-06
  1.79062514E-06 -1.38613870E-08 -1.69056165E-08 -2.27705644E-09  9.95998036E-01
  1.51388353E-02  5.00906179E-06  1.54573551E-09  8.75253801E-09 -2.10648910E-02
 -1.37359225E-05 -1.88014015E-09 -2.88174684E-08  1.98979256E-03  3.33531255E-05
  3.72921984E-10  4.91644062E-08 -3.35353181E-04 -3.70750923E-05  2.36369297E-08
  1.53021285E-07  7.50250993E-03  7.50160588E-03  7.50160527E-03  1.53229776E-09
  1.20196883E-08 -9.59504079E-11  6.08836518E-06 -9.22439115E-06  5.54968857E-05
 -3.85319567E-06  1.07851097E-08 -1.00217948E-06  6.06412554E-06 -8.58832139E-06
  5.46544180E-05 -4.08009796E-06  7.83855540E-07  4.92010448E-07  6.04755324E-06
 -8.66352968E-06  5.45956304E-05 -4.06025720E-06 -7.83933340E-07  4.97247764E-07
  2.07944732E-06  1.06547362E-05  8.44639935E-07  1.55369533E-08  3.03657105E-08
 -5.73748251E-05  1.48670648E-04 -9.84570901E-08 -6.34725951E-07 -1.06951372E-03
  3.10469694E-04 -5.33199671E-07 -1.81589446E-06 -2.46885650E-06  3.21337130E-06
  3.22285613E-06  9.35575815E-09  3.65660120E-08 -1.06069186E-09  2.36455003E-06
  9.57920821E-06 -1.20248810E-06 -6.91375276E-09 -6.34639042E-11 -1.24087067E-04
  3.62904434E-05  1.24231130E-07 -1.65349603E-08  8.67932102E-05 -6.35527883E-05
  1.57322810E-07  5.85852822E-07  4.17587907E-06  4.51595849E-06  4.51450074E-06
 -1.72647570E-08 -2.09865975E-08 -7.86416044E-12  9.46364028E-06 -1.87854233E-04
  2.69574265E-04 -2.74934925E-07 -1.18407341E-06  9.55068542E-04  6.16421491E-04
 -1.94009636E-06 -3.99305303E-06  9.32447947E-03  2.31669879E-03 -3.25746127E-06
 -8.58840408E-06  4.70791251E-04  2.67837732E-05  2.68940180E-05 -1.18265881E-06
 -2.77419173E-06 -1.94227355E-08  6.12490829E-08  1.58774144E-06  3.63255651E-06
  8.97888337E-10  1.71237025E-08  5.99693359E-06 -1.93200928E-05 -2.78402913E-09
 -8.55274713E-08 -6.05594846E-05  3.38673879E-05 -3.33090087E-08  8.98507315E-08
  2.99144010E-04  1.00285379E-04  3.61749028E-07  1.03079227E-06  2.70423725E-06
 -6.71880389E-07 -6.62480325E-07  1.65587397E-08  4.87563691E-08 -4.16131535E-10
  1.10690041E-06 -7.86247769E-05 -2.51602034E-04 -1.93161022E-06  9.22946099E-08
 -2.06159135E-06  1.32568663E-06 -7.71852419E-05 -2.49561281E-04 -1.67246274E-06
  1.95475363E-06  1.17458697E-06  1.23422492E-06 -7.84054575E-05 -2.49369223E-04
 -1.88443249E-06 -1.69125655E-06  1.11402459E-06  7.59532339E-05  3.22002193E-04
 -5.61633325E-04 -8.73251677E-07  1.02988671E-06  1.12290065E-05  1.28030625E-03
 -4.46619982E-07 -4.60860349E-06 -6.68324349E-03  3.95422635E-03 -1.73280474E-06
 -1.77182850E-05 -1.44757653E-03  1.69128089E-05  1.69183637E-05 -1.47197150E-06
  4.17540654E-06 -9.79342839E-09  9.92764064E-01  3.47095297E-02 -2.14923148E-03
 -3.73767858E-06  3.65180643E-06  3.62274727E-03  8.07621672E-04  1.85974689E-06
 -1.18452734E-06 -3.38391807E-03 -3.94586285E-04  1.20997941E-06  3.92249351E-06
 -7.31065028E-03 -8.36427888E-03 -8.36426740E-03  1.79275559E-06 -2.29457452E-06
 -8.01081292E-09  6.18009692E-03  1.28308212E-04 -4.35386802E-04  1.00894835E-06
  2.61799501E-06  7.00389882E-03  2.45759399E-03 -5.74956460E-06 -1.59116102E-05
  6.73285354E-02  2.27446510E-02 -2.05655783E-05 -6.71930328E-05 -1.03143170E-03
 -2.08016994E-04 -2.07811846E-04  1.45864940E-06  4.57554321E-06  8.79033355E-08
  2.32591192E-07  4.86926195E-06  2.09057298E-05  1.77244727E-08  1.03836315E-07
  1.98240526E-05 -1.22739732E-04 -9.05173688E-08 -5.57145336E-07 -3.40188729E-04
  3.65953864E-04  5.66205410E-08  8.13973090E-07  3.23320097E-03  1.30600418E-03
  1.46610955E-06  1.17888123E-05  2.98597567E-05 -1.49150241E-05 -1.48421826E-05
  9.37588026E-08  5.57276730E-07 -1.14656613E-08 -1.17867872E-04 -7.92890864E-04
 -1.52189260E-04  4.96738812E-05  2.36075209E-07  9.90401973E-06 -1.16478964E-04
 -7.91735529E-04 -1.11728481E-04  4.81256447E-05 -9.61467726E-06 -5.59187975E-06
 -1.16970069E-04 -7.93010475E-04 -1.29114491E-04  4.97634572E-05  9.25267738E-06
 -5.03772160E-06  9.92756729E-01  5.03464890E-02  2.31514914E-04  1.85056829E-06
  1.52871860E-06 -1.04274970E-02  7.17942175E-03 -2.96026113E-06 -2.62973667E-05
 -7.32268628E-02  2.06606444E-02 -3.72613500E-05 -1.38773756E-04 -7.85911004E-03
 -9.90583734E-03 -9.90581655E-03  1.56455985E-06 -6.27515970E-06 -4.10027668E-08
 -4.74777644E-04  3.19964449E-04  3.29644887E-04  8.32887687E-07  2.33833092E-07
 -7.43948764E-03  3.03933270E-03  6.90757240E-06 -6.21909245E-06  7.73106128E-03
 -5.84232426E-03  8.42557565E-06  4.37775284E-05 -1.68579309E-05  3.22768101E-04
  3.22802444E-04 -2.10755553E-06 -7.21443826E-07 -4.85965886E-09  9.93016289E-01
  5.06297639E-02  7.39201639E-04 -1.39671946E-06 -1.13872244E-06 -2.45507281E-02
 -4.62989265E-03  1.18016364E-05  2.43605770E-05  4.12836739E-02  1.69317442E-02
 -1.02915452E-05 -3.63330563E-05 -8.94507913E-03 -8.85646842E-03 -8.85796215E-03
 -1.52368257E-07  3.06469216E-07  4.50716267E-07  7.06620857E-07  1.29329702E-05
  5.54054641E-06  1.42222839E-09  1.54896235E-07  3.53712671E-05 -3.16211384E-05
 -1.39468764E-08 -8.77352274E-07 -3.42766795E-04  2.10309715E-04  8.78721579E-08
  1.97635906E-06  3.01787449E-03  1.25712070E-03  5.18870909E-07  9.23981206E-06
  2.85993178E-05  1.94869930E-05  1.93979070E-05  3.82612262E-08  6.00890362E-07
 -2.46097850E-09  4.51252600E-06  3.16964173E-03  1.03239852E-04  2.60081503E-05
 -2.80170404E-07 -1.24289061E-04  2.31397093E-06  3.16000213E-03  1.29164905E-04
  2.65035454E-05  1.08058912E-04  6.25844522E-05  4.23275442E-06  3.16477956E-03
  1.20732291E-04  2.56100378E-05 -1.08615892E-04  6.16438714E-05 -6.48323175E-03
 -4.72958381E-04  2.66070329E-04 -2.36011167E-07 -6.54651658E-07  3.58959425E-03
 -9.55055467E-03  1.62875055E-06  3.18665696E-05 -4.76690648E-02  1.21272711E-02
 -2.47264385E-05 -1.00413574E-04 -8.31304915E-04 -4.87819158E-06 -4.81070473E-06
  2.93645506E-07  3.74281053E-06  6.11374977E-08 -1.92269119E-05 -5.68689331E-05
 -2.46511386E-04  6.65887896E-08  1.30722243E-06  5.43183900E-03 -1.79699354E-03
 -9.37754842E-06 -5.34531417E-06  4.72584580E-03 -2.36020123E-03  6.21236256E-06
  3.10320850E-05  1.47896519E-04 -7.70503046E-05 -7.70305134E-05  1.75717278E-06
  7.70446353E-07 -1.38108741E-08  4.93707783E-05  2.98107828E-04  1.24513539E-04
 -9.74060248E-08  2.04158598E-07 -3.54648664E-03 -2.93565482E-03  4.94315197E-06
  1.97619781E-05  1.23308076E-02  4.96635377E-03 -1.90890702E-06 -1.36390055E-06
 -1.42324200E-04  1.01575014E-04  1.00514681E-04  4.41004116E-07  9.89052529E-07
  1.07956712E-07 -2.84645645E-01  1.02262865E+00  2.82975125E-04  1.68836959E-07
  2.54577483E-07  7.49196170E-02  3.45260690E-04  1.51055544E-08  6.27138629E-07
 -2.02158247E-02 -1.00929754E-03  6.86622632E-08 -1.25162862E-06  9.63982803E-03
  2.85913134E-03 -2.07303316E-07  1.11779008E-06 -1.56913544E-02 -1.57124296E-02
 -1.57122394E-02  8.78291601E-09 -1.43093703E-07 -1.39995320E-10  3.18099500E-05
 -8.84977071E-04 -2.83443675E-03  9.71912280E-05 -1.24600247E-07 -6.26461847E-05
  3.52480436E-05 -9.07131045E-04 -2.76327313E-03  9.81774398E-05  5.60935358E-05
  3.21163660E-05  3.58290349E-05 -9.04671869E-04 -2.76812354E-03  9.77939639E-05
 -5.62643069E-05  3.15891288E-05 -2.86240285E-05 -1.93154996E-04 -2.23533787E-05
 -7.98514934E-08 -1.35232243E-07 -5.15183518E-04 -5.03911280E-03 -1.43765834E-07
  1.62581566E-05 -4.77825817E-03  9.90657849E-04 -3.84479188E-06 -3.27786465E-05
  7.80651422E-05 -1.91635388E-05 -1.93891609E-05 -3.40017522E-07 -5.93706639E-07
  3.43433896E-09 -1.06919862E-04 -4.22996465E-04  2.20026477E-05  4.32042002E-07
  5.49433084E-07  5.23702830E-03 -1.58237019E-03 -5.21790089E-06 -8.15822853E-07
 -2.11496710E-03  9.41038029E-04  1.39362474E-06  7.10554142E-06 -1.67251076E-04
 -2.17377412E-04 -2.17311428E-04  4.77747954E-07  2.89920745E-07 -6.94742242E-10
 -1.44665381E-06 -1.12855314E-05 -3.92813040E-06  5.83819439E-08  5.33249999E-06
  1.70608130E-04  1.12548214E-04 -3.40945172E-06 -5.19351564E-04  1.69899506E-03
  6.47311795E-04  2.69302498E-06  3.45774925E-04  7.12048317E-06 -3.52374954E-05
  3.29358948E-05  1.58757588E-07  3.28385957E-05 -4.67030099E-07 -2.89114257E-06
  7.66265502E-06 -2.68505198E-02  5.40226743E-03  9.90460874E-01 -8.14804620E-06
 -8.12833397E-04  1.61168399E-04  2.95586947E-02  3.72506941E-05  3.37737621E-04
 -6.15655584E-05 -1.13236342E-02  3.19150923E-05 -1.08979949E-04  2.49543517E-05
  4.68419795E-03 -4.18209129E-06 -1.97446180E-06 -7.43884776E-06  2.08617281E-07
  4.10367891E-05  4.84853335E-08  1.09691951E-04 -7.47176049E-04  3.72948621E-03
 -2.84807814E-05  2.13392718E-07 -7.76329702E-05 -5.27601702E-05  3.77596095E-04
 -1.79681731E-03  8.17611440E-06 -3.72466508E-05 -1.50189845E-05 -5.15131746E-05
  3.67499594E-04 -1.75219386E-03  7.81586538E-06  3.64680953E-05 -1.42875524E-05
  3.01435991E-06  1.51107675E-05 -7.24034367E-07  1.39440433E-07  2.36934522E-05
 -3.80297634E-05  2.17997811E-04  2.52086698E-07 -6.00091606E-06 -1.96786560E-03
  5.69100341E-04  1.64189762E-06  1.12999914E-03  8.03403781E-08  1.39822574E-06
  7.08191937E-06 -6.23443914E-08 -1.72376542E-05  5.09655461E-09  2.72021306E-06
  1.24431177E-05 -9.27558784E-07  6.71641164E-08 -7.65331218E-06 -1.79144336E-04
  6.33176001E-05 -1.81802854E-07  4.88632649E-05  6.58808110E-05 -8.24016837E-05
  1.72930293E-08 -4.57798262E-04  2.37306906E-06  7.60976018E-06  2.15547087E-06
 -1.36721632E-08 -1.88005081E-06  4.88832574E-08  5.76270498E-07  5.85341609E-06
  2.48917088E-06  4.30907979E-06 -1.42444457E-09 -1.08233844E-04 -8.58132214E-05
 -5.06581831E-04  2.79455169E-06 -1.46308304E-03 -5.51691815E-04  3.30439287E-04
  8.77827899E-07 -5.43685008E-06  7.65267145E-07 -4.32856152E-08  3.15556955E-05
 -1.40884446E-07 -3.84319677E-05  1.87776732E-06 -4.98634736E-06  1.62747274E-02
  9.90693696E-01 -4.96225194E-03  5.17921983E-06  4.93991857E-04  2.95642554E-02
 -1.48106844E-04 -2.22612694E-05 -2.08984688E-04 -1.13223264E-02  5.68570444E-05
 -4.46686890E-05  5.54639933E-05  4.67478893E-03 -2.43635853E-05  2.40003590E-06
  3.25870479E-06  3.30645230E-06  4.08929750E-05 -2.39833807E-07  3.30435744E-06
 -1.44465282E-06 -4.22059815E-06 -7.30511038E-05  3.17127404E-06  6.01970616E-06
 -2.36543600E-07 -9.33431486E-05  6.23519914E-04 -3.15747489E-03  2.40406984E-05
 -5.47129790E-05 -3.53500449E-05  9.31925573E-05 -6.48636742E-04  3.09606713E-03
 -1.80133893E-05 -5.69260596E-05  3.61453372E-05 -2.35890204E-06 -1.17240097E-05
  3.95575859E-07  2.32420396E-05 -1.78670584E-07  1.69431963E-05 -1.65924983E-04
 -5.38509909E-06  1.04040680E-06  1.69457583E-03 -5.00014221E-04  1.12041911E-03
 -5.53717215E-06 -8.27925523E-07 -3.06649586E-06 -3.21147841E-06 -1.68941567E-05
  7.29662789E-08 -2.98320389E-06 -2.33120499E-06 -1.04700088E-05  8.26750989E-07
 -7.41453041E-06  1.35621813E-07  1.45297031E-04 -5.34750436E-05  4.75129756E-05
 -7.16238857E-07 -5.88820206E-05  7.83143193E-05 -4.49894147E-04  3.35743489E-06
 -1.66203013E-06 -4.45496371E-06 -4.41119267E-06 -1.85248806E-06  3.88209941E-08
  3.14012615E-06  3.41010470E-05  3.51111240E-04  1.55599212E-04 -4.62312811E-07
  1.16322116E-07 -6.38296554E-03 -5.14526540E-03  1.81367395E-05  2.22593519E-05
 -8.31055093E-02 -3.16104457E-02  1.41538650E-05  8.36843530E-05 -3.29632668E-04
  2.16540381E-05  2.20317309E-05  1.05438982E-07  2.29062962E-06  7.93215795E-07
  1.11266375E-04 -2.92022664E-04  9.90248501E-01 -1.61356230E-02  2.69371793E-02
  3.15374851E-04  3.00479654E-02 -4.81398815E-04  8.05496594E-04 -1.37600259E-03
 -1.26897213E-02  1.84375074E-04 -3.10940252E-04 -2.46842202E-03  3.47575628E-03
 -7.81264734E-05  1.09148292E-04  1.48511122E-04  1.99164372E-04  1.99061831E-04
 -7.55160966E-07  5.80486160E-08 -4.61394768E-08 -3.52131562E-05 -6.26942302E-04
 -2.62649245E-03  1.82284614E-04 -5.04766857E-07 -5.22686042E-05 -3.39155045E-05
 -6.40622270E-04 -2.71571149E-03  1.86666732E-04  4.69058869E-05  2.63998523E-05
 -3.57040464E-05 -6.15523827E-04 -2.80986761E-03  1.86378534E-04 -4.52418292E-05
  2.44622222E-05 -1.36958850E-04 -6.84347804E-04  2.53262552E-05 -1.70653003E-06