 Entering Gaussian System, Link 0=g16
 Initial command:
 /usr/local/g16_AVX//g16/l1.exe "/scratch/alanqf/0009-54451.ixchel.mda.cinvestav.mx/Gau-12927.inp" -scrdir="/scratch/alanqf/0009-54451.ixchel.mda.cinvestav.mx/"
 Entering Link 1 = /usr/local/g16_AVX//g16/l1.exe PID=     12928.
  
 Copyright (c) 1988-2017, Gaussian, Inc.  All Rights Reserved.
  
 This is part of the Gaussian(R) 16 program.  It is based on
 the Gaussian(R) 09 system (copyright 2009, Gaussian, Inc.),
 the Gaussian(R) 03 system (copyright 2003, Gaussian, Inc.),
 the Gaussian(R) 98 system (copyright 1998, Gaussian, Inc.),
 the Gaussian(R) 94 system (copyright 1995, Gaussian, Inc.),
 the Gaussian 92(TM) system (copyright 1992, Gaussian, Inc.),
 the Gaussian 90(TM) system (copyright 1990, Gaussian, Inc.),
 the Gaussian 88(TM) system (copyright 1988, Gaussian, Inc.),
 the Gaussian 86(TM) system (copyright 1986, Carnegie Mellon
 University), and the Gaussian 82(TM) system (copyright 1983,
 Carnegie Mellon University). Gaussian is a federally registered
 trademark of Gaussian, Inc.
  
 This software contains proprietary and confidential information,
 including trade secrets, belonging to Gaussian, Inc.
  
 This software is provided under written license and may be
 used, copied, transmitted, or stored only in accord with that
 written license.
  
 The following legend is applicable only to US Government
 contracts under FAR:
  
                    RESTRICTED RIGHTS LEGEND
  
 Use, reproduction and disclosure by the US Government is
 subject to restrictions as set forth in subparagraphs (a)
 and (c) of the Commercial Computer Software - Restricted
 Rights clause in FAR 52.227-19.
  
 Gaussian, Inc.
 340 Quinnipiac St., Bldg. 40, Wallingford CT 06492
  
  
 ---------------------------------------------------------------
 Warning -- This program may not be used in any manner that
 competes with the business of Gaussian, Inc. or will provide
 assistance to any competitor of Gaussian, Inc.  The licensee
 of this program is prohibited from giving any competitor of
 Gaussian, Inc. access to this program.  By using this program,
 the user acknowledges that Gaussian, Inc. is engaged in the
 business of creating and licensing software in the field of
 computational chemistry and represents and warrants to the
 licensee that it is not a competitor of Gaussian, Inc. and that
 it will not use this program in any manner prohibited above.
 ---------------------------------------------------------------
  

 Cite this work as:
 Gaussian 16, Revision B.01,
 M. J. Frisch, G. W. Trucks, H. B. Schlegel, G. E. Scuseria, 
 M. A. Robb, J. R. Cheeseman, G. Scalmani, V. Barone, 
 G. A. Petersson, H. Nakatsuji, X. Li, M. Caricato, A. V. Marenich, 
 J. Bloino, B. G. Janesko, R. Gomperts, B. Mennucci, H. P. Hratchian, 
 J. V. Ortiz, A. F. Izmaylov, J. L. Sonnenberg, D. Williams-Young, 
 F. Ding, F. Lipparini, F. Egidi, J. Goings, B. Peng, A. Petrone, 
 T. Henderson, D. Ranasinghe, V. G. Zakrzewski, J. Gao, N. Rega, 
 G. Zheng, W. Liang, M. Hada, M. Ehara, K. Toyota, R. Fukuda, 
 J. Hasegawa, M. Ishida, T. Nakajima, Y. Honda, O. Kitao, H. Nakai, 
 T. Vreven, K. Throssell, J. A. Montgomery, Jr., J. E. Peralta, 
 F. Ogliaro, M. J. Bearpark, J. J. Heyd, E. N. Brothers, K. N. Kudin, 
 V. N. Staroverov, T. A. Keith, R. Kobayashi, J. Normand, 
 K. Raghavachari, A. P. Rendell, J. C. Burant, S. S. Iyengar, 
 J. Tomasi, M. Cossi, J. M. Millam, M. Klene, C. Adamo, R. Cammi, 
 J. W. Ochterski, R. L. Martin, K. Morokuma, O. Farkas, 
 J. B. Foresman, and D. J. Fox, Gaussian, Inc., Wallingford CT, 2016.
 
 ******************************************
 Gaussian 16:  ES64L-G16RevB.01 20-Dec-2017
                13-Oct-2024 
 ******************************************
 %NProcShared=26
 Will use up to   26 processors via shared memory.
 %MEM=20GB
 %chk=CHKfiles/0009.chk
 ---------------------------------------------------------------------
 #p b3lyp 6-31++g(d,p) scf=verytight NoSymm freq=noraman int=ultrafine
 ---------------------------------------------------------------------
 1/10=4,30=1,38=1/1,3;
 2/12=2,15=1,17=6,18=5,40=1/2;
 3/5=1,6=6,7=1111,11=2,25=1,30=1,71=2,74=-5,75=-5,140=1/1,2,3;
 4//1;
 5/5=2,17=3,38=5,98=1/2;
 8/6=4,10=90,11=11/1;
 11/6=1,8=1,9=11,15=111,16=1,31=1/1,2,10;
 10/6=1,31=1/2;
 6/7=2,8=2,9=2,10=2,28=1/1;
 7/8=1,10=1,25=1,30=1/1,2,3,16;
 1/10=4,30=1/3;
 99//99;
 Leave Link    1 at Sun Oct 13 09:46:36 2024, MaxMem=  2684354560 cpu:               1.2 elap:               0.1
 (Enter /usr/local/g16_AVX//g16/l101.exe)
 ------------------------
 RxCoord=-9.18626 DE=0.21
 ------------------------
 Symbolic Z-matrix:
 Charge = -1 Multiplicity = 1
 C                     0.89982  -0.00062   0.00575 
 Cl                   -2.57228   0.00002  -0.0024 
 H                     0.51755   0.00185  -1.01662 
 H                     0.52265   0.88539   0.52085 
 H                     0.52319  -0.88846   0.51714 
 C                     2.35744   0.00143   0.00228 
 N                     3.51971  -0.00066  -0.00242 
 
 ITRead=  0  0  0  0  0  0  0
 MicOpt= -1 -1 -1 -1 -1 -1 -1
 NAtoms=      7 NQM=        7 NQMF=       0 NMMI=      0 NMMIF=      0
                NMic=       0 NMicF=      0.
                    Isotopes and Nuclear Properties:
 (Nuclear quadrupole moments (NQMom) in fm**2, nuclear magnetic moments (NMagM)
  in nuclear magnetons)

  Atom         1           2           3           4           5           6           7
 IAtWgt=          12          35           1           1           1          12          14
 AtmWgt=  12.0000000  34.9688527   1.0078250   1.0078250   1.0078250  12.0000000  14.0030740
 NucSpn=           0           3           1           1           1           0           2
 AtZEff=  -0.0000000  -0.0000000  -0.0000000  -0.0000000  -0.0000000  -0.0000000  -0.0000000
 NQMom=    0.0000000  -8.1650000   0.0000000   0.0000000   0.0000000   0.0000000   2.0440000
 NMagM=    0.0000000   0.8218740   2.7928460   2.7928460   2.7928460   0.0000000   0.4037610
 AtZNuc=   6.0000000  17.0000000   1.0000000   1.0000000   1.0000000   6.0000000   7.0000000
 Leave Link  101 at Sun Oct 13 09:46:36 2024, MaxMem=  2684354560 cpu:               2.8 elap:               0.1
 (Enter /usr/local/g16_AVX//g16/l103.exe)

 GradGradGradGradGradGradGradGradGradGradGradGradGradGradGradGradGradGrad
 Berny optimization.
 Initialization pass.
 Trust Radius=3.00D-01 FncErr=1.00D-07 GrdErr=1.00D-07 EigMax=2.50D+02 EigMin=1.00D-04
 Number of steps in this run=      2 maximum allowed number of steps=      2.
 GradGradGradGradGradGradGradGradGradGradGradGradGradGradGradGradGradGrad

 Leave Link  103 at Sun Oct 13 09:46:36 2024, MaxMem=  2684354560 cpu:               0.5 elap:               0.0
 (Enter /usr/local/g16_AVX//g16/l202.exe)
                          Input orientation:                          
 ---------------------------------------------------------------------
 Center     Atomic      Atomic             Coordinates (Angstroms)
 Number     Number       Type             X           Y           Z
 ---------------------------------------------------------------------
      1          6           0        0.899818   -0.000621    0.005748
      2         17           0       -2.572277    0.000021   -0.002401
      3          1           0        0.517553    0.001854   -1.016621
      4          1           0        0.522650    0.885389    0.520853
      5          1           0        0.523192   -0.888464    0.517141
      6          6           0        2.357441    0.001431    0.002279
      7          7           0        3.519714   -0.000658   -0.002421
 ---------------------------------------------------------------------
                    Distance matrix (angstroms):
                    1          2          3          4          5
     1  C    0.000000
     2  Cl   3.472105   0.000000
     3  H    1.091499   3.252029   0.000000
     4  H    1.092063   3.261326   1.773270   0.000000
     5  H    1.091620   3.262094   1.773450   1.773857   0.000000
     6  C    1.457629   4.929720   2.103175   2.101609   2.102728
     7  N    2.619909   6.091991   3.168845   3.168799   3.168168
                    6          7
     6  C    0.000000
     7  N    1.162284   0.000000
 Symmetry turned off by external request.
 Stoichiometry    C2H3ClN(1-)
 Framework group  C1[X(C2H3ClN)]
 Deg. of freedom    15
 Full point group                 C1      NOp   1
 Rotational constants (GHZ):         159.3854275           1.0448980           1.0448968
 Leave Link  202 at Sun Oct 13 09:46:36 2024, MaxMem=  2684354560 cpu:               0.2 elap:               0.0
 (Enter /usr/local/g16_AVX//g16/l301.exe)
 Standard basis: 6-31++G(d,p) (6D, 7F)
 Ernie: Thresh=  0.10000D-02 Tol=  0.10000D-05 Strict=F.
    98 basis functions,   176 primitive gaussians,    98 cartesian basis functions
    20 alpha electrons       20 beta electrons
       nuclear repulsion energy       103.4464979361 Hartrees.
 IExCor=  402 DFT=T Ex+Corr=B3LYP ExCW=0 ScaHFX=  0.200000
 ScaDFX=  0.800000  0.720000  1.000000  0.810000 ScalE2=  1.000000  1.000000
 IRadAn=      5 IRanWt=     -1 IRanGd=            0 ICorTp=0 IEmpDi=  4
 NAtoms=    7 NActive=    7 NUniq=    7 SFac= 1.00D+00 NAtFMM=   60 NAOKFM=F Big=F
 Integral buffers will be    131072 words long.
 Raffenetti 2 integral format.
 Two-electron integral symmetry is turned off.
 Leave Link  301 at Sun Oct 13 09:46:36 2024, MaxMem=  2684354560 cpu:               1.3 elap:               0.1
 (Enter /usr/local/g16_AVX//g16/l302.exe)
 NPDir=0 NMtPBC=     1 NCelOv=     1 NCel=       1 NClECP=     1 NCelD=      1
         NCelK=      1 NCelE2=     1 NClLst=     1 CellRange=     0.0.
 One-electron integrals computed using PRISM.
 NBasis=    98 RedAO= T EigKep=  1.71D-05  NBF=    98
 NBsUse=    98 1.00D-06 EigRej= -1.00D+00 NBFU=    98
 Precomputing XC quadrature grid using
 IXCGrd= 4 IRadAn=           5 IRanWt=          -1 IRanGd=           0 AccXCQ= 0.00D+00.
 Generated NRdTot=       0 NPtTot=           0 NUsed=           0 NTot=          32
 NSgBfM=    98    98    98    98    98 MxSgAt=     7 MxSgA2=     7.
 Leave Link  302 at Sun Oct 13 09:46:37 2024, MaxMem=  2684354560 cpu:               4.0 elap:               0.2
 (Enter /usr/local/g16_AVX//g16/l303.exe)
 DipDrv:  MaxL=1.
 Leave Link  303 at Sun Oct 13 09:46:37 2024, MaxMem=  2684354560 cpu:               0.7 elap:               0.1
 (Enter /usr/local/g16_AVX//g16/l401.exe)
 ExpMin= 3.60D-02 ExpMax= 2.52D+04 ExpMxC= 3.78D+03 IAcc=3 IRadAn=         5 AccDes= 0.00D+00
 Harris functional with IExCor=  402 and IRadAn=       5 diagonalized for initial guess.
 HarFok:  IExCor=  402 AccDes= 0.00D+00 IRadAn=         5 IDoV= 1 UseB2=F ITyADJ=14
 ICtDFT=  3500011 ScaDFX=  1.000000  1.000000  1.000000  1.000000
 FoFCou: FMM=F IPFlag=           0 FMFlag=      100000 FMFlg1=           0
         NFxFlg=           0 DoJE=T BraDBF=F KetDBF=T FulRan=T
         wScrn=  0.000000 ICntrl=       500 IOpCl=  0 I1Cent=   200000004 NGrid=           0
         NMat0=    1 NMatS0=      1 NMatT0=    0 NMatD0=    1 NMtDS0=    0 NMtDT0=    0
 Symmetry not used in FoFCou.
 Harris En= -593.114133820516    
 JPrj=0 DoOrth=F DoCkMO=F.
 Leave Link  401 at Sun Oct 13 09:46:37 2024, MaxMem=  2684354560 cpu:               5.9 elap:               0.3
 (Enter /usr/local/g16_AVX//g16/l502.exe)
 Keep R1 ints in memory in canonical form, NReq=35752935.
 FoFCou: FMM=F IPFlag=           0 FMFlag=           0 FMFlg1=           0
         NFxFlg=           0 DoJE=F BraDBF=F KetDBF=F FulRan=T
         wScrn=  0.000000 ICntrl=       600 IOpCl=  0 I1Cent=           0 NGrid=           0
         NMat0=    1 NMatS0=   4851 NMatT0=    0 NMatD0=    1 NMtDS0=    0 NMtDT0=    0
 Symmetry not used in FoFCou.
 Two-electron integral symmetry not used.
 Closed shell SCF:
 Using DIIS extrapolation, IDIIS=  1040.
 NGot=  2684354560 LenX=  2672563405 LenY=  2672553360
 Requested convergence on RMS density matrix=1.00D-08 within 128 cycles.
 Requested convergence on MAX density matrix=1.00D-06.
 Requested convergence on             energy=1.00D-06.
 No special actions if energy rises.

 Cycle   1  Pass 1  IDiag  1:
 E= -592.950254727798    
 DIIS: error= 2.71D-02 at cycle   1 NSaved=   1.
 NSaved= 1 IEnMin= 1 EnMin= -592.950254727798     IErMin= 1 ErrMin= 2.71D-02
 ErrMax= 2.71D-02  0.00D+00 EMaxC= 1.00D-01 BMatC= 1.03D-01 BMatP= 1.03D-01
 IDIUse=3 WtCom= 7.29D-01 WtEn= 2.71D-01
 Coeff-Com:  0.100D+01
 Coeff-En:   0.100D+01
 Coeff:      0.100D+01
 Gap=     0.159 Goal=   None    Shift=    0.000
 GapD=    0.159 DampG=1.000 DampE=0.500 DampFc=0.5000 IDamp=-1.
 Damping current iteration by 5.00D-01
 RMSDP=1.08D-02 MaxDP=1.84D-01              OVMax= 1.79D-01

 Cycle   2  Pass 1  IDiag  1:
 E= -592.989183067143     Delta-E=       -0.038928339344 Rises=F Damp=T
 DIIS: error= 1.71D-02 at cycle   2 NSaved=   2.
 NSaved= 2 IEnMin= 2 EnMin= -592.989183067143     IErMin= 2 ErrMin= 1.71D-02
 ErrMax= 1.71D-02  0.00D+00 EMaxC= 1.00D-01 BMatC= 1.49D-02 BMatP= 1.03D-01
 IDIUse=3 WtCom= 8.29D-01 WtEn= 1.71D-01
 Coeff-Com:  0.164D+00 0.836D+00
 Coeff-En:   0.250D+00 0.750D+00
 Coeff:      0.179D+00 0.821D+00
 Gap=     0.144 Goal=   None    Shift=    0.000
 RMSDP=4.54D-03 MaxDP=1.49D-01 DE=-3.89D-02 OVMax= 1.44D-01

 Cycle   3  Pass 1  IDiag  1:
 E= -593.041792253553     Delta-E=       -0.052609186410 Rises=F Damp=F
 DIIS: error= 1.43D-02 at cycle   3 NSaved=   3.
 NSaved= 3 IEnMin= 3 EnMin= -593.041792253553     IErMin= 3 ErrMin= 1.43D-02
 ErrMax= 1.43D-02  0.00D+00 EMaxC= 1.00D-01 BMatC= 1.94D-02 BMatP= 1.49D-02
 IDIUse=2 WtCom= 0.00D+00 WtEn= 1.00D+00
 Coeff-En:   0.000D+00 0.000D+00 0.100D+01
 Coeff:      0.000D+00 0.000D+00 0.100D+01
 Gap=     0.149 Goal=   None    Shift=    0.000
 RMSDP=7.03D-03 MaxDP=2.56D-01 DE=-5.26D-02 OVMax= 1.63D-01

 Cycle   4  Pass 1  IDiag  1:
 E= -592.947523657809     Delta-E=        0.094268595744 Rises=F Damp=F
 DIIS: error= 3.27D-02 at cycle   4 NSaved=   4.
 NSaved= 4 IEnMin= 3 EnMin= -593.041792253553     IErMin= 3 ErrMin= 1.43D-02
 ErrMax= 3.27D-02  0.00D+00 EMaxC= 1.00D-01 BMatC= 1.25D-01 BMatP= 1.49D-02
 IDIUse=2 WtCom= 0.00D+00 WtEn= 1.00D+00
 Coeff-En:   0.000D+00 0.000D+00 0.802D+00 0.198D+00
 Coeff:      0.000D+00 0.000D+00 0.802D+00 0.198D+00
 Gap=     0.147 Goal=   None    Shift=    0.000
 RMSDP=3.16D-03 MaxDP=1.10D-01 DE= 9.43D-02 OVMax= 8.37D-02

 Cycle   5  Pass 1  IDiag  1:
 E= -593.050426461913     Delta-E=       -0.102902804104 Rises=F Damp=F
 DIIS: error= 9.43D-03 at cycle   5 NSaved=   5.
 NSaved= 5 IEnMin= 5 EnMin= -593.050426461913     IErMin= 5 ErrMin= 9.43D-03
 ErrMax= 9.43D-03  0.00D+00 EMaxC= 1.00D-01 BMatC= 1.04D-02 BMatP= 1.49D-02
 IDIUse=3 WtCom= 9.06D-01 WtEn= 9.43D-02
 Coeff-Com: -0.935D-03 0.196D-01 0.325D+00-0.945D-01 0.751D+00
 Coeff-En:   0.000D+00 0.000D+00 0.384D+00 0.000D+00 0.616D+00
 Coeff:     -0.847D-03 0.177D-01 0.331D+00-0.856D-01 0.738D+00
 Gap=     0.149 Goal=   None    Shift=    0.000
 RMSDP=1.38D-03 MaxDP=4.84D-02 DE=-1.03D-01 OVMax= 3.25D-02

 Cycle   6  Pass 1  IDiag  1:
 E= -593.059746160963     Delta-E=       -0.009319699050 Rises=F Damp=F
 DIIS: error= 1.73D-04 at cycle   6 NSaved=   6.
 NSaved= 6 IEnMin= 6 EnMin= -593.059746160963     IErMin= 6 ErrMin= 1.73D-04
 ErrMax= 1.73D-04  0.00D+00 EMaxC= 1.00D-01 BMatC= 5.54D-06 BMatP= 1.04D-02
 IDIUse=3 WtCom= 9.98D-01 WtEn= 1.73D-03
 Coeff-Com: -0.202D-02 0.809D-02 0.118D+00-0.476D-01 0.321D+00 0.603D+00
 Coeff-En:   0.000D+00 0.000D+00 0.000D+00 0.000D+00 0.000D+00 0.100D+01
 Coeff:     -0.202D-02 0.807D-02 0.118D+00-0.475D-01 0.320D+00 0.604D+00
 Gap=     0.148 Goal=   None    Shift=    0.000
 RMSDP=3.59D-05 MaxDP=6.65D-04 DE=-9.32D-03 OVMax= 6.14D-04

 Cycle   7  Pass 1  IDiag  1:
 E= -593.059751317268     Delta-E=       -0.000005156304 Rises=F Damp=F
 DIIS: error= 7.08D-05 at cycle   7 NSaved=   7.
 NSaved= 7 IEnMin= 7 EnMin= -593.059751317268     IErMin= 7 ErrMin= 7.08D-05
 ErrMax= 7.08D-05  0.00D+00 EMaxC= 1.00D-01 BMatC= 5.22D-07 BMatP= 5.54D-06
 IDIUse=1 WtCom= 1.00D+00 WtEn= 0.00D+00
 Coeff-Com: -0.401D-03 0.137D-02 0.203D-01-0.108D-01 0.603D-01 0.190D+00
 Coeff-Com:  0.739D+00
 Coeff:     -0.401D-03 0.137D-02 0.203D-01-0.108D-01 0.603D-01 0.190D+00
 Coeff:      0.739D+00
 Gap=     0.148 Goal=   None    Shift=    0.000
 RMSDP=1.27D-05 MaxDP=3.71D-04 DE=-5.16D-06 OVMax= 2.49D-04

 Cycle   8  Pass 1  IDiag  1:
 E= -593.059751813483     Delta-E=       -0.000000496215 Rises=F Damp=F
 DIIS: error= 1.24D-05 at cycle   8 NSaved=   8.
 NSaved= 8 IEnMin= 8 EnMin= -593.059751813483     IErMin= 8 ErrMin= 1.24D-05
 ErrMax= 1.24D-05  0.00D+00 EMaxC= 1.00D-01 BMatC= 1.61D-08 BMatP= 5.22D-07
 IDIUse=1 WtCom= 1.00D+00 WtEn= 0.00D+00
 Coeff-Com:  0.141D-04-0.822D-04 0.380D-02-0.198D-02 0.104D-01 0.476D-01
 Coeff-Com:  0.264D+00 0.676D+00
 Coeff:      0.141D-04-0.822D-04 0.380D-02-0.198D-02 0.104D-01 0.476D-01
 Coeff:      0.264D+00 0.676D+00
 Gap=     0.148 Goal=   None    Shift=    0.000
 RMSDP=6.76D-06 MaxDP=2.20D-04 DE=-4.96D-07 OVMax= 3.93D-05

 Cycle   9  Pass 1  IDiag  1:
 E= -593.059751831331     Delta-E=       -0.000000017848 Rises=F Damp=F
 DIIS: error= 2.04D-06 at cycle   9 NSaved=   9.
 NSaved= 9 IEnMin= 9 EnMin= -593.059751831331     IErMin= 9 ErrMin= 2.04D-06
 ErrMax= 2.04D-06  0.00D+00 EMaxC= 1.00D-01 BMatC= 5.34D-10 BMatP= 1.61D-08
 IDIUse=1 WtCom= 1.00D+00 WtEn= 0.00D+00
 Coeff-Com:  0.308D-04-0.700D-04-0.573D-03 0.850D-04-0.125D-02-0.925D-03
 Coeff-Com:  0.124D-01 0.168D+00 0.822D+00
 Coeff:      0.308D-04-0.700D-04-0.573D-03 0.850D-04-0.125D-02-0.925D-03
 Coeff:      0.124D-01 0.168D+00 0.822D+00
 Gap=     0.148 Goal=   None    Shift=    0.000
 RMSDP=9.19D-07 MaxDP=3.30D-05 DE=-1.78D-08 OVMax= 6.60D-06

 Cycle  10  Pass 1  IDiag  1:
 E= -593.059751831881     Delta-E=       -0.000000000550 Rises=F Damp=F
 DIIS: error= 2.62D-07 at cycle  10 NSaved=  10.
 NSaved=10 IEnMin=10 EnMin= -593.059751831881     IErMin=10 ErrMin= 2.62D-07
 ErrMax= 2.62D-07  0.00D+00 EMaxC= 1.00D-01 BMatC= 1.15D-11 BMatP= 5.34D-10
 IDIUse=1 WtCom= 1.00D+00 WtEn= 0.00D+00
 Coeff-Com:  0.718D-05-0.191D-04-0.105D-03 0.520D-04-0.294D-03-0.306D-03
 Coeff-Com: -0.282D-02 0.188D-01 0.152D+00 0.833D+00
 Coeff:      0.718D-05-0.191D-04-0.105D-03 0.520D-04-0.294D-03-0.306D-03
 Coeff:     -0.282D-02 0.188D-01 0.152D+00 0.833D+00
 Gap=     0.148 Goal=   None    Shift=    0.000
 RMSDP=7.04D-08 MaxDP=1.81D-06 DE=-5.50D-10 OVMax= 1.16D-06

 Cycle  11  Pass 1  IDiag  1:
 E= -593.059751831893     Delta-E=       -0.000000000012 Rises=F Damp=F
 DIIS: error= 6.28D-08 at cycle  11 NSaved=  11.
 NSaved=11 IEnMin=11 EnMin= -593.059751831893     IErMin=11 ErrMin= 6.28D-08
 ErrMax= 6.28D-08  0.00D+00 EMaxC= 1.00D-01 BMatC= 3.62D-13 BMatP= 1.15D-11
 IDIUse=1 WtCom= 1.00D+00 WtEn= 0.00D+00
 Coeff-Com: -0.934D-06 0.200D-05-0.669D-05 0.205D-05-0.695D-05-0.236D-04
 Coeff-Com: -0.674D-03-0.252D-02-0.474D-02 0.285D-01 0.979D+00
 Coeff:     -0.934D-06 0.200D-05-0.669D-05 0.205D-05-0.695D-05-0.236D-04
 Coeff:     -0.674D-03-0.252D-02-0.474D-02 0.285D-01 0.979D+00
 Gap=     0.148 Goal=   None    Shift=    0.000
 RMSDP=5.78D-08 MaxDP=2.24D-06 DE=-1.23D-11 OVMax= 1.94D-07

 Cycle  12  Pass 1  IDiag  1:
 E= -593.059751831894     Delta-E=       -0.000000000000 Rises=F Damp=F
 DIIS: error= 9.90D-09 at cycle  12 NSaved=  12.
 NSaved=12 IEnMin=12 EnMin= -593.059751831894     IErMin=12 ErrMin= 9.90D-09
 ErrMax= 9.90D-09  0.00D+00 EMaxC= 1.00D-01 BMatC= 3.24D-15 BMatP= 3.62D-13
 IDIUse=1 WtCom= 1.00D+00 WtEn= 0.00D+00
 Coeff-Com: -0.389D-06 0.829D-06-0.525D-06-0.498D-07 0.180D-05-0.571D-05
 Coeff-Com: -0.154D-03-0.900D-03-0.319D-02 0.328D-02 0.278D+00 0.723D+00
 Coeff:     -0.389D-06 0.829D-06-0.525D-06-0.498D-07 0.180D-05-0.571D-05
 Coeff:     -0.154D-03-0.900D-03-0.319D-02 0.328D-02 0.278D+00 0.723D+00
 Gap=     0.148 Goal=   None    Shift=    0.000
 RMSDP=1.39D-08 MaxDP=5.60D-07 DE=-4.55D-13 OVMax= 2.14D-08

 Cycle  13  Pass 1  IDiag  1:
 E= -593.059751831893     Delta-E=        0.000000000001 Rises=F Damp=F
 DIIS: error= 1.37D-09 at cycle  13 NSaved=  13.
 NSaved=13 IEnMin=12 EnMin= -593.059751831894     IErMin=13 ErrMin= 1.37D-09
 ErrMax= 1.37D-09  0.00D+00 EMaxC= 1.00D-01 BMatC= 1.71D-16 BMatP= 3.24D-15
 IDIUse=1 WtCom= 1.00D+00 WtEn= 0.00D+00
 Coeff-Com: -0.189D-07 0.298D-07 0.275D-06-0.679D-07 0.493D-06-0.233D-05
 Coeff-Com:  0.700D-05-0.151D-04-0.360D-03 0.954D-03-0.111D-01 0.104D+00
 Coeff-Com:  0.907D+00
 Coeff:     -0.189D-07 0.298D-07 0.275D-06-0.679D-07 0.493D-06-0.233D-05
 Coeff:      0.700D-05-0.151D-04-0.360D-03 0.954D-03-0.111D-01 0.104D+00
 Coeff:      0.907D+00
 Gap=     0.148 Goal=   None    Shift=    0.000
 RMSDP=2.18D-09 MaxDP=8.33D-08 DE= 1.14D-12 OVMax= 6.23D-09

 SCF Done:  E(RB3LYP) =  -593.059751832     A.U. after   13 cycles
            NFock= 13  Conv=0.22D-08     -V/T= 2.0047
 KE= 5.902649577776D+02 PE=-1.616977985397D+03 EE= 3.302067778517D+02
 Leave Link  502 at Sun Oct 13 09:46:39 2024, MaxMem=  2684354560 cpu:              38.7 elap:               1.8
 (Enter /usr/local/g16_AVX//g16/l801.exe)
 DoSCS=F DFT=T ScalE2(SS,OS)=  1.000000  1.000000
 Range of M.O.s used for correlation:     1    98
 NBasis=    98 NAE=    20 NBE=    20 NFC=     0 NFV=     0
 NROrb=     98 NOA=    20 NOB=    20 NVA=    78 NVB=    78

 **** Warning!!: The largest alpha MO coefficient is  0.12152126D+03

 Leave Link  801 at Sun Oct 13 09:46:39 2024, MaxMem=  2684354560 cpu:               0.7 elap:               0.1
 (Enter /usr/local/g16_AVX//g16/l1101.exe)
 Using compressed storage, NAtomX=     7.
 Will process      8 centers per pass.
 Leave Link 1101 at Sun Oct 13 09:46:39 2024, MaxMem=  2684354560 cpu:               3.5 elap:               0.2
 (Enter /usr/local/g16_AVX//g16/l1102.exe)
 Symmetrizing basis deriv contribution to polar:
 IMax=3 JMax=2 DiffMx= 0.00D+00
 Leave Link 1102 at Sun Oct 13 09:46:39 2024, MaxMem=  2684354560 cpu:               0.7 elap:               0.1
 (Enter /usr/local/g16_AVX//g16/l1110.exe)
 Forming Gx(P) for the SCF density, NAtomX=     7.
 Integral derivatives from FoFJK, PRISM(SPDF).
 Do as many integral derivatives as possible in FoFJK.
 G2DrvN: MDV=    2684353864.
 G2DrvN: will do     8 centers at a time, making    1 passes.
 Calling FoFCou, ICntrl=  3107 FMM=F I1Cent=   0 AccDes= 0.00D+00.
 FoFJK:  IHMeth= 1 ICntrl=    3107 DoSepK=F KAlg= 0 I1Cent=           0 FoldK=F
 IRaf=         0 NMat=       1 IRICut=       1 DoRegI=T DoRafI=F ISym2E= 0 IDoP0=0 IntGTp=1.
 FoFCou: FMM=F IPFlag=           0 FMFlag=      100000 FMFlg1=           0
         NFxFlg=           0 DoJE=F BraDBF=F KetDBF=F FulRan=T
         wScrn=  0.000000 ICntrl=      3107 IOpCl=  0 I1Cent=           0 NGrid=           0
         NMat0=    1 NMatS0=      1 NMatT0=    0 NMatD0=    1 NMtDS0=    0 NMtDT0=    0
 Symmetry not used in FoFCou.
 End of G2Drv F.D. properties file   721 does not exist.
 End of G2Drv F.D. properties file   722 does not exist.
 End of G2Drv F.D. properties file   788 does not exist.
 Leave Link 1110 at Sun Oct 13 09:46:41 2024, MaxMem=  2684354560 cpu:              39.7 elap:               1.6
 (Enter /usr/local/g16_AVX//g16/l1002.exe)
 Minotr:  Closed shell wavefunction.
          IDoAtm=1111111
          Direct CPHF calculation.
          Differentiating once with respect to electric field.
                with respect to dipole field.
          Differentiating once with respect to nuclear coordinates.
          Requested convergence is 1.0D-08 RMS, and 1.0D-07 maximum.
          Secondary convergence is 1.0D-12 RMS, and 1.0D-12 maximum.
          NewPWx=T KeepS1=F KeepF1=F KeepIn=T MapXYZ=F SortEE=F KeepMc=T.
         2136 words used for storage of precomputed grid.
 Keep R1 ints in memory in canonical form, NReq=35668397.
 FoFCou: FMM=F IPFlag=           0 FMFlag=           0 FMFlg1=           0
         NFxFlg=           0 DoJE=F BraDBF=F KetDBF=F FulRan=T
         wScrn=  0.000000 ICntrl=       600 IOpCl=  0 I1Cent=           0 NGrid=           0
         NMat0=    1 NMatS0=   4851 NMatT0=    0 NMatD0=    1 NMtDS0=    0 NMtDT0=    0
 Symmetry not used in FoFCou.
 Two-electron integral symmetry not used.
          MDV=    2684354560 using IRadAn=       1.
          Solving linear equations simultaneously, MaxMat=       0.
          There are    24 degrees of freedom in the 1st order CPHF.  IDoFFX=6 NUNeed=     3.
     21 vectors produced by pass  0 Test12= 6.50D-15 4.17D-09 XBig12= 6.89D+01 2.85D+00.
 AX will form    21 AO Fock derivatives at one time.
     21 vectors produced by pass  1 Test12= 6.50D-15 4.17D-09 XBig12= 4.91D+01 1.99D+00.
     21 vectors produced by pass  2 Test12= 6.50D-15 4.17D-09 XBig12= 2.07D+00 4.81D-01.
     21 vectors produced by pass  3 Test12= 6.50D-15 4.17D-09 XBig12= 8.60D-03 2.00D-02.
     21 vectors produced by pass  4 Test12= 6.50D-15 4.17D-09 XBig12= 1.03D-05 5.81D-04.
     18 vectors produced by pass  5 Test12= 6.50D-15 4.17D-09 XBig12= 1.86D-08 3.05D-05.
      5 vectors produced by pass  6 Test12= 6.50D-15 4.17D-09 XBig12= 4.36D-11 1.57D-06.
      3 vectors produced by pass  7 Test12= 6.50D-15 4.17D-09 XBig12= 7.78D-14 7.29D-08.
 InvSVY:  IOpt=1 It=  1 EMax= 5.33D-15
 Solved reduced A of dimension   131 with    24 vectors.
 FullF1:  Do perturbations      1 to       3.
 Isotropic polarizability for W=    0.000000       53.81 Bohr**3.
 End of Minotr F.D. properties file   721 does not exist.
 End of Minotr F.D. properties file   722 does not exist.
 End of Minotr F.D. properties file   788 does not exist.
 Leave Link 1002 at Sun Oct 13 09:46:43 2024, MaxMem=  2684354560 cpu:              55.4 elap:               2.2
 (Enter /usr/local/g16_AVX//g16/l601.exe)
 Copying SCF densities to generalized density rwf, IOpCl= 0 IROHF=0.

 **********************************************************************

            Population analysis using the SCF Density.

 **********************************************************************

 Alpha  occ. eigenvalues -- -101.25401 -14.23413 -10.13136 -10.10459  -9.16730
 Alpha  occ. eigenvalues --   -6.92511  -6.92511  -6.92509  -0.80366  -0.65068
 Alpha  occ. eigenvalues --   -0.50456  -0.38822  -0.33444  -0.33432  -0.26403
 Alpha  occ. eigenvalues --   -0.22291  -0.22286  -0.05204  -0.05075  -0.05075
 Alpha virt. eigenvalues --    0.09768   0.13154   0.13166   0.14109   0.14310
 Alpha virt. eigenvalues --    0.14315   0.19729   0.20247   0.20256   0.21934
 Alpha virt. eigenvalues --    0.22728   0.22749   0.24830   0.25828   0.25837
 Alpha virt. eigenvalues --    0.28478   0.32403   0.33116   0.33134   0.33714
 Alpha virt. eigenvalues --    0.33733   0.33880   0.39187   0.40436   0.48010
 Alpha virt. eigenvalues --    0.69615   0.78184   0.78194   0.83886   0.83906
 Alpha virt. eigenvalues --    0.84850   0.85107   0.85123   0.88140   0.98274
 Alpha virt. eigenvalues --    1.00744   1.01831   1.01848   1.09409   1.11179
 Alpha virt. eigenvalues --    1.11201   1.15484   1.15485   1.15966   1.15969
 Alpha virt. eigenvalues --    1.19065   1.23251   1.26586   1.44588   1.44604
 Alpha virt. eigenvalues --    1.53315   1.62077   1.62079   1.85518   1.85596
 Alpha virt. eigenvalues --    1.88252   2.04720   2.04773   2.13879   2.22604
 Alpha virt. eigenvalues --    2.22627   2.29308   2.38999   2.39005   2.73907
 Alpha virt. eigenvalues --    2.79396   2.79534   3.04149   3.08104   3.08222
 Alpha virt. eigenvalues --    3.27549   3.44287   3.54036   3.54147   4.24005
 Alpha virt. eigenvalues --    4.42838   4.56869   4.80082
          Condensed to atoms (all electrons):
               1          2          3          4          5          6
     1  C    5.811016  -0.085768   0.417547   0.419508   0.421259  -0.877267
     2  Cl  -0.085768  17.926894  -0.003917  -0.003903  -0.003903   0.109892
     3  H    0.417547  -0.003917   0.484916  -0.023409  -0.023384  -0.061290
     4  H    0.419508  -0.003903  -0.023409   0.487158  -0.023488  -0.064503
     5  H    0.421259  -0.003903  -0.023384  -0.023488   0.486468  -0.065774
     6  C   -0.877267   0.109892  -0.061290  -0.064503  -0.065774   6.573126
     7  N   -0.012102  -0.000084  -0.004528  -0.004244  -0.004379   0.419889
               7
     1  C   -0.012102
     2  Cl  -0.000084
     3  H   -0.004528
     4  H   -0.004244
     5  H   -0.004379
     6  C    0.419889
     7  N    7.178115
 Mulliken charges:
               1
     1  C   -0.094193
     2  Cl  -0.939211
     3  H    0.214065
     4  H    0.212880
     5  H    0.213201
     6  C   -0.034074
     7  N   -0.572668
 Sum of Mulliken charges =  -1.00000
 Mulliken charges with hydrogens summed into heavy atoms:
               1
     1  C    0.545953
     2  Cl  -0.939211
     6  C   -0.034074
     7  N   -0.572668
 APT charges:
               1
     1  C    0.010344
     2  Cl  -0.986629
     3  H    0.081003
     4  H    0.079531
     5  H    0.079795
     6  C    0.201859
     7  N   -0.465902
 Sum of APT charges =  -1.00000
 APT charges with hydrogens summed into heavy atoms:
               1
     1  C    0.250673
     2  Cl  -0.986629
     6  C    0.201859
     7  N   -0.465902
 Electronic spatial extent (au):  <R**2>=            982.6438
 Charge=             -1.0000 electrons
 Dipole moment (field-independent basis, Debye):
    X=              6.7133    Y=              0.0010    Z=              0.0236  Tot=              6.7133
 Quadrupole moment (field-independent basis, Debye-Ang):
   XX=            -91.4411   YY=            -35.4619   ZZ=            -35.4614
   XY=              0.0051   XZ=              0.0025   YZ=             -0.0010
 Traceless Quadrupole moment (field-independent basis, Debye-Ang):
   XX=            -37.3196   YY=             18.6595   ZZ=             18.6601
   XY=              0.0051   XZ=              0.0025   YZ=             -0.0010
 Octapole moment (field-independent basis, Debye-Ang**2):
  XXX=             -6.1931  YYY=             -0.0093  ZZZ=             -0.8439  XYY=              4.7414
  XXY=              0.0151  XXZ=              0.1614  XZZ=              4.7348  YZZ=              0.0043
  YYZ=              0.8646  XYZ=             -0.0009
 Hexadecapole moment (field-independent basis, Debye-Ang**3):
 XXXX=          -2000.0531 YYYY=            -58.3169 ZZZZ=            -58.3379 XXXY=              0.0458
 XXXZ=             -0.2127 YYYX=             -0.0079 YYYZ=             -0.0025 ZZZX=             -0.7418
 ZZZY=             -0.0010 XXYY=           -248.1530 XXZZ=           -248.1579 YYZZ=            -19.4262
 XXYZ=             -0.0015 YYXZ=              0.2774 ZZXY=              0.0007
 N-N= 1.034464979361D+02 E-N=-1.616977985175D+03  KE= 5.902649577776D+02
  Exact polarizability:  78.176  -0.021  41.622  -0.049   0.001  41.631
 Approx polarizability:  96.535  -0.064  49.741  -0.120   0.003  49.748
 No NMR shielding tensors so no spin-rotation constants.
 Leave Link  601 at Sun Oct 13 09:46:43 2024, MaxMem=  2684354560 cpu:               2.6 elap:               0.1
 (Enter /usr/local/g16_AVX//g16/l701.exe)
 ... and contract with generalized density number  0.
 Compute integral second derivatives.
 Leave Link  701 at Sun Oct 13 09:46:43 2024, MaxMem=  2684354560 cpu:               5.1 elap:               0.2
 (Enter /usr/local/g16_AVX//g16/l702.exe)
 L702 exits ... SP integral derivatives will be done elsewhere.
 Leave Link  702 at Sun Oct 13 09:46:44 2024, MaxMem=  2684354560 cpu:               0.6 elap:               0.1
 (Enter /usr/local/g16_AVX//g16/l703.exe)
 Integral derivatives from FoFJK, PRISM(SPDF).
 Compute integral second derivatives, UseDBF=F ICtDFT=           0.
 Calling FoFJK, ICntrl=    100127 FMM=F ISym2X=0 I1Cent= 0 IOpClX= 0 NMat=1 NMatS=1 NMatT=0.
 FoFJK:  IHMeth= 1 ICntrl=  100127 DoSepK=F KAlg= 0 I1Cent=           0 FoldK=F
 IRaf=         0 NMat=       1 IRICut=       1 DoRegI=T DoRafI=F ISym2E= 0 IDoP0=0 IntGTp=1.
 FoFCou: FMM=F IPFlag=           0 FMFlag=      100000 FMFlg1=         800
         NFxFlg=           0 DoJE=F BraDBF=F KetDBF=F FulRan=T
         wScrn=  0.000000 ICntrl=    100127 IOpCl=  0 I1Cent=           0 NGrid=           0
         NMat0=    1 NMatS0=      1 NMatT0=    0 NMatD0=    1 NMtDS0=    0 NMtDT0=    0
 Symmetry not used in FoFCou.
 Leave Link  703 at Sun Oct 13 09:46:46 2024, MaxMem=  2684354560 cpu:              65.9 elap:               2.6
 (Enter /usr/local/g16_AVX//g16/l716.exe)
 Dipole        = 2.64120180D+00 3.87394743D-04 9.26619857D-03
 Polarizability= 7.81755706D+01-2.10173462D-02 4.16216370D+01
                -4.85954495D-02 1.35614478D-03 4.16309164D+01
 Full mass-weighted force constant matrix:
 Low frequencies ---  -61.7507  -60.1590   -0.0063   -0.0056   -0.0045   16.1471
 Low frequencies ---   16.3105   75.7478  126.5908
 ******    2 imaginary frequencies (negative Signs) ****** 
 Diagonal vibrational polarizability:
       97.7676177     177.6757593     167.8681437
 Harmonic frequencies (cm**-1), IR intensities (KM/Mole), Raman scattering
 activities (A**4/AMU), depolarization ratios for plane and unpolarized
 incident light, reduced masses (AMU), force constants (mDyne/A),
 and normal coordinates:
                      1                      2                      3
                      A                      A                      A
 Frequencies --    -57.6998               -55.9810                75.7478
 Red. masses --      3.5423                 3.5552                11.9195
 Frc consts  --      0.0069                 0.0066                 0.0403
 IR Inten    --     20.6703                20.6727                20.6320
  Atom  AN      X      Y      Z        X      Y      Z        X      Y      Z
     1   6     0.00  -0.06   0.37    -0.00   0.37   0.06    -0.36  -0.00  -0.00
     2  17     0.00   0.01  -0.08     0.00  -0.08  -0.01     0.43   0.00   0.00
     3   1    -0.28  -0.08   0.47    -0.05   0.48   0.08    -0.37  -0.00   0.00
     4   1     0.10  -0.08   0.46     0.26   0.46   0.10    -0.37  -0.01  -0.01
     5   1     0.18  -0.09   0.47    -0.22   0.46   0.06    -0.37   0.00  -0.01
     6   6    -0.00  -0.00   0.02    -0.00   0.02   0.00    -0.37  -0.00  -0.00
     7   7    -0.00   0.04  -0.24    -0.00  -0.24  -0.04    -0.37   0.00   0.00
                      4                      5                      6
                      A                      A                      A
 Frequencies --    371.3428               372.1718               921.5303
 Red. masses --      3.5604                 3.5604                 4.7348
 Frc consts  --      0.2893                 0.2906                 2.3690
 IR Inten    --      1.3781                 1.3467                 9.5700
  Atom  AN      X      Y      Z        X      Y      Z        X      Y      Z
     1   6    -0.00   0.01  -0.05     0.00  -0.05  -0.01     0.44   0.00  -0.00
     2  17     0.00   0.00  -0.00     0.00  -0.00  -0.00    -0.00   0.00   0.00
     3   1     0.58   0.07  -0.28     0.15  -0.27  -0.07     0.48   0.00  -0.01
     4   1    -0.16   0.07  -0.28    -0.57  -0.28  -0.07     0.48   0.01   0.00
     5   1    -0.42   0.07  -0.27     0.43  -0.28  -0.07     0.47  -0.01   0.00
     6   6     0.00  -0.10   0.39     0.00   0.39   0.10    -0.20  -0.00   0.00
     7   7    -0.00   0.06  -0.23    -0.00  -0.23  -0.06    -0.30   0.00   0.00
                      7                      8                      9
                      A                      A                      A
 Frequencies --   1022.5029              1023.5854              1367.2112
 Red. masses --      1.5086                 1.5064                 1.2246
 Frc consts  --      0.9293                 0.9299                 1.3487
 IR Inten    --      1.3063                 1.3108                32.9965
  Atom  AN      X      Y      Z        X      Y      Z        X      Y      Z
     1   6     0.00  -0.02   0.16     0.00  -0.16  -0.02    -0.14  -0.00  -0.00
     2  17     0.00   0.00  -0.00    -0.00   0.00   0.00     0.00  -0.00  -0.00
     3   1     0.71   0.04  -0.12    -0.09   0.33   0.02     0.52   0.00  -0.24
     4   1    -0.28   0.11  -0.29     0.66   0.16  -0.06     0.52   0.20   0.12
     5   1    -0.43  -0.07  -0.26    -0.57   0.18   0.13     0.52  -0.20   0.12
     6   6    -0.00   0.02  -0.13     0.00   0.13   0.02     0.00   0.00   0.00
     7   7     0.00  -0.00   0.02    -0.00  -0.02  -0.00     0.01  -0.00  -0.00
                     10                     11                     12
                      A                      A                      A
 Frequencies --   1450.7115              1451.1263              2348.8754
 Red. masses --      1.0399                 1.0401                12.5199
 Frc consts  --      1.2895                 1.2905                40.6979
 IR Inten    --     13.4280                13.3835                44.4826
  Atom  AN      X      Y      Z        X      Y      Z        X      Y      Z
     1   6     0.00  -0.04  -0.03     0.00   0.03  -0.04    -0.09  -0.00   0.00
     2  17     0.00  -0.00  -0.00     0.00   0.00  -0.00     0.00  -0.00  -0.00
     3   1     0.22   0.56  -0.10     0.28  -0.45  -0.13    -0.07   0.00   0.02
     4   1    -0.36  -0.19   0.02     0.06  -0.33   0.62    -0.07  -0.02  -0.01
     5   1     0.13   0.28   0.60    -0.34   0.26   0.15    -0.07   0.02  -0.01
     6   6    -0.00  -0.02  -0.01    -0.00   0.01  -0.02     0.80  -0.00  -0.00
     7   7     0.00   0.00   0.00    -0.00  -0.00   0.00    -0.59   0.00   0.00
                     13                     14                     15
                      A                      A                      A
 Frequencies --   3081.8372              3163.2006              3166.6523
 Red. masses --      1.0336                 1.1031                 1.1032
 Frc consts  --      5.7842                 6.5029                 6.5181
 IR Inten    --      1.2386                 0.1675                 0.1867
  Atom  AN      X      Y      Z        X      Y      Z        X      Y      Z
     1   6    -0.05   0.00   0.00    -0.00  -0.08  -0.04    -0.00   0.04  -0.08
     2  17    -0.00  -0.00  -0.00    -0.00   0.00   0.00    -0.00  -0.00   0.00
     3   1     0.19  -0.00   0.53     0.13  -0.02   0.33     0.26   0.01   0.69
     4   1     0.20  -0.49  -0.28    -0.28   0.64   0.38    -0.02   0.07   0.01
     5   1     0.19   0.47  -0.27     0.17   0.38  -0.24    -0.23  -0.54   0.30
     6   6    -0.00   0.00   0.00    -0.00   0.00   0.00    -0.00  -0.00   0.00
     7   7     0.00   0.00  -0.00     0.00  -0.00  -0.00     0.00   0.00  -0.00

 -------------------
 - Thermochemistry -
 -------------------
 Temperature   298.150 Kelvin.  Pressure   1.00000 Atm.
 Atom     1 has atomic number  6 and mass  12.00000
 Atom     2 has atomic number 17 and mass  34.96885
 Atom     3 has atomic number  1 and mass   1.00783
 Atom     4 has atomic number  1 and mass   1.00783
 Atom     5 has atomic number  1 and mass   1.00783
 Atom     6 has atomic number  6 and mass  12.00000
 Atom     7 has atomic number  7 and mass  14.00307
 Molecular mass:    75.99540 amu.
 Principal axes and moments of inertia in atomic units:
                           1         2         3
     Eigenvalues --    11.323131727.193661727.19572
           X            1.00000   0.00016  -0.00047
           Y           -0.00000   0.94965   0.31330
           Z            0.00050  -0.31330   0.94965
 This molecule is an asymmetric top.
 Rotational symmetry number  1.
 Rotational temperatures (Kelvin)      7.64929     0.05015     0.05015
 Rotational constants (GHZ):         159.38543     1.04490     1.04490
    2 imaginary frequencies ignored.
 Zero-point vibrational energy     118529.0 (Joules/Mol)
                                   28.32910 (Kcal/Mol)
 Warning -- explicit consideration of   3 degrees of freedom as
           vibrations may cause significant error
 Vibrational temperatures:    108.98   534.28   535.47  1325.88  1471.15
          (Kelvin)           1472.71  1967.11  2087.25  2087.85  3379.51
                             4434.08  4551.14  4556.11
 
 Zero-point correction=                           0.045145 (Hartree/Particle)
 Thermal correction to Energy=                    0.049574
 Thermal correction to Enthalpy=                  0.050518
 Thermal correction to Gibbs Free Energy=         0.017059
 Sum of electronic and zero-point Energies=           -593.014607
 Sum of electronic and thermal Energies=              -593.010178
 Sum of electronic and thermal Enthalpies=            -593.009234
 Sum of electronic and thermal Free Energies=         -593.042692
 
                     E (Thermal)             CV                S
                      KCal/Mol        Cal/Mol-Kelvin    Cal/Mol-Kelvin
 Total                   31.108             12.463             70.419
 Electronic               0.000              0.000              0.000
 Translational            0.889              2.981             38.900
 Rotational               0.889              2.981             25.027
 Vibrational             29.330              6.502              6.492
 Vibration     1          0.599              1.965              3.998
 Vibration     2          0.743              1.531              1.074
 Vibration     3          0.744              1.529              1.071
                       Q            Log10(Q)             Ln(Q)
 Total Bot       0.142298D-07         -7.846802        -18.067929
 Total V=0       0.829040D+13         12.918576         29.746120
 Vib (Bot)       0.830602D-20        -20.080607        -46.237306
 Vib (Bot)    1  0.272055D+01          0.434656          1.000832
 Vib (Bot)    2  0.489822D+00         -0.309962         -0.713714
 Vib (Bot)    3  0.488453D+00         -0.311177         -0.716512
 Vib (V=0)       0.483917D+01          0.684771          1.576743
 Vib (V=0)    1  0.326611D+01          0.514031          1.183600
 Vib (V=0)    2  0.119995D+01          0.079162          0.182277
 Vib (V=0)    3  0.119899D+01          0.078815          0.181479
 Electronic      0.100000D+01          0.000000          0.000000
 Translational   0.260396D+08          7.415635         17.075130
 Rotational      0.657915D+05          4.818170         11.094247
 
                                                       RxCoord=-9.18626 DE=0.21
                                                             IR Spectrum
 
     33  3                            2                                   1   1           11                                         
     11  0                            3                                   4   3           00    9                     3              
     66  8                            4                                   5   6           22    2                     7          7   
     73  2                            9                                   1   7           43    2                     1          6   
 
     XX  X                            X                                   X   X           XX    X                     X          X   
                                      X                                   X   X                 X                                X   
                                      X                                   X   X                 X                                X   
                                      X                                   X   X                 X                                X   
                                      X                                   X   X                                                  X   
                                      X                                   X   X                                                  X   
                                      X                                   X   X                                                  X   
                                      X                                   X   X                                                  X   
                                      X                                   X   X                                                  X   
                                      X                                   X   X                                                      
                                      X                                   X   X                                                      
                                      X                                   X   X                                                      
                                      X                                       X                                                      
                                      X                                       X                                                      
                                      X                                       X                                                      
                                      X                                                                                              
                                      X                                                                                              
                                      X                                                                                              
                                      X                                                                                              
                                      X                                                                                              
 
 -------------------------------------------------------------------
 Center     Atomic                   Forces (Hartrees/Bohr)
 Number     Number              X              Y              Z
 -------------------------------------------------------------------
      1        6           0.002616173    0.000537992    0.000356639
      2       17           0.001611661   -0.000002590   -0.000002376
      3        1          -0.003048110   -0.000026125    0.001044908
      4        1          -0.003116462   -0.001225982   -0.000682583
      5        1          -0.003037130    0.000962798   -0.000552403
      6        6           0.001476098   -0.000393647   -0.000235040
      7        7           0.003497771    0.000147554    0.000070854
 -------------------------------------------------------------------
 Cartesian Forces:  Max     0.003497771 RMS     0.001647939
 Z-matrix is all fixed cartesians, so copy forces.
 Force constants in Cartesian coordinates: 
                1             2             3             4             5 
      1  0.487588D+00
      2  0.460942D-03  0.556744D+00
      3  0.685905D-03 -0.668999D-03  0.557588D+00
      4 -0.333193D-02 -0.752418D-05  0.387831D-05  0.413872D-02
      5 -0.270569D-05 -0.398430D-03 -0.165895D-05  0.191017D-05  0.231382D-03
      6  0.370373D-05 -0.167605D-05 -0.401215D-03  0.960744D-05  0.000000D+00
      7 -0.723729D-01  0.192700D-03 -0.903021D-01  0.366162D-03  0.220605D-05
      8  0.177285D-03 -0.412052D-01  0.631565D-03  0.000000D+00 -0.832720D-03
      9 -0.891924D-01  0.635787D-03 -0.293093D+00 -0.101532D-02 -0.314785D-05
     10 -0.715551D-01  0.767414D-01  0.446380D-01  0.339756D-03  0.818496D-03
     11  0.757599D-01 -0.229309D+00 -0.109235D+00  0.863535D-03  0.701791D-04
     12  0.440748D-01 -0.109239D+00 -0.104896D+00  0.510865D-03  0.515769D-03
     13 -0.714637D-01 -0.771366D-01  0.444229D-01  0.344268D-03 -0.821419D-03
     14 -0.761859D-01 -0.230875D+00  0.109239D+00 -0.861933D-03  0.724664D-04
     15  0.438680D-01  0.109238D+00 -0.104171D+00  0.503280D-03 -0.511945D-03
     16 -0.258599D+00 -0.416911D-03  0.375192D-03  0.687219D-04  0.150929D-05
     17 -0.955572D-04 -0.761386D-01  0.236422D-04  0.238436D-05  0.948983D-03
     18  0.520341D-03  0.246036D-04 -0.762142D-01 -0.251244D-04  0.170119D-05
     19 -0.102649D-01  0.165977D-03  0.176266D-03 -0.192570D-02  0.000000D+00
     20 -0.113922D-03  0.211825D-01  0.113711D-04  0.000000D+00 -0.918610D-04
     21  0.397034D-04  0.105015D-04  0.211868D-01  0.128116D-04  0.000000D+00
                6             7             8             9            10 
      6  0.228551D-03
      7 -0.960210D-03  0.836078D-01
      8 -0.279502D-05 -0.204662D-03  0.430265D-01
      9  0.340881D-03  0.990854D-01 -0.648398D-03  0.312297D+00
     10  0.479037D-03  0.446666D-02 -0.982860D-02 -0.463438D-02  0.828386D-01
     11  0.516323D-03 -0.945976D-03  0.622846D-03  0.129056D-02 -0.843634D-01
     12 -0.511949D-03  0.107166D-01 -0.241110D-01 -0.127087D-01 -0.490884D-01
     13  0.476284D-03  0.445575D-02  0.985832D-02 -0.458849D-02  0.440027D-02
     14 -0.512835D-03  0.904747D-03  0.544154D-03 -0.124991D-02 -0.877188D-02
     15 -0.516300D-03  0.106843D-01  0.241754D-01 -0.125858D-01 -0.619615D-02
     16 -0.391023D-05 -0.208138D-01  0.717026D-05 -0.286963D-02 -0.206656D-01
     17  0.169965D-05  0.586451D-04 -0.328052D-02 -0.249659D-04  0.290748D-01
     18  0.952911D-03 -0.334444D-01 -0.510271D-04  0.725114D-02  0.169299D-01
     19 -0.451240D-05  0.290431D-03 -0.102230D-04  0.321485D-02  0.175403D-03
     20  0.000000D+00 -0.765933D-05  0.112488D-02  0.000000D+00 -0.367085D-02
     21 -0.928790D-04  0.422048D-02  0.630448D-05 -0.150207D-02 -0.212807D-02
               11            12            13            14            15 
     11  0.244180D+00
     12  0.116882D+00  0.111106D+00
     13  0.883456D-02 -0.618262D-02  0.826473D-01
     14 -0.192263D-01  0.126890D-01  0.847231D-01  0.245814D+00
     15 -0.128032D-01  0.723765D-02 -0.488011D-01 -0.116819D+00  0.110298D+00
     16  0.263769D-02  0.157536D-02 -0.206199D-01 -0.258950D-02  0.153352D-02
     17  0.447525D-02  0.437379D-02 -0.291345D-01  0.449649D-02 -0.438694D-02
     18  0.446460D-02 -0.713521D-03  0.167818D-01 -0.445184D-02 -0.758737D-03
     19 -0.278626D-02 -0.160654D-02  0.236079D-03  0.278133D-02 -0.159182D-02
     20 -0.813450D-03 -0.111118D-02  0.367650D-02 -0.825861D-03  0.110688D-02
     21 -0.111520D-02  0.486415D-03 -0.210876D-02  0.110473D-02  0.496705D-03
               16            17            18            19            20 
     16  0.155751D+01
     17 -0.177518D-02  0.108250D+00
     18 -0.544159D-02  0.270412D-04  0.108253D+00
     19 -0.123688D+01  0.186937D-02  0.467899D-02  0.124837D+01
     20  0.213522D-02 -0.387513D-01 -0.150827D-04 -0.202020D-02  0.181750D-01
     21  0.483106D-02 -0.142728D-04 -0.387707D-01 -0.486723D-02  0.878970D-05
               21 
     21  0.181957D-01
 Leave Link  716 at Sun Oct 13 09:46:46 2024, MaxMem=  2684354560 cpu:               0.9 elap:               0.1
 (Enter /usr/local/g16_AVX//g16/l103.exe)

 GradGradGradGradGradGradGradGradGradGradGradGradGradGradGradGradGradGrad
 Berny optimization.
 Search for a local minimum.
 Step number   1 out of a maximum of    2
 All quantities printed in internal units (Hartrees-Bohrs-Radians)
 Second derivative matrix not updated -- analytic derivatives used.
 ITU=  0
     Eigenvalues ---   -0.00053  -0.00050   0.00406   0.02471   0.02479
     Eigenvalues ---    0.09664   0.09673   0.09769   0.16282   0.16288
     Eigenvalues ---    0.28109   0.64853   0.81888   0.82108   2.66492
 Eigenvalue     1 is  -5.27D-04 should be greater than     0.000000 Eigenvector:
                          Z3        Z5        Z4        Z7        Z1
   1                    0.43619   0.42471   0.42118  -0.35005   0.32517
                          X3        Z2        X5        X4        Y5
   1                   -0.29406  -0.24813   0.19123   0.10334  -0.08140
 Eigenvalue     2 is  -4.97D-04 should be greater than     0.000000 Eigenvector:
                          Y4        Y5        Y3        Y7        Y1
   1                    0.42931   0.42695   0.42584  -0.35090   0.32574
                          X4        Y2        X5        Z4        Z3
   1                    0.27854  -0.24828  -0.22899   0.08532   0.07610
 Quadratic step=4.589D-01 exceeds max=3.000D-01 adjusted using Lamda=-2.217D-03.
 Angle between NR and scaled steps=   4.39 degrees.
 Angle between quadratic step and forces=  64.64 degrees.
 Linear search not attempted -- first point.
 B after Tr=     0.047628   -0.000133   -0.000337
         Rot=    1.000000   -0.000000    0.000022   -0.000015 Ang=  -0.00 deg.
 Variable       Old X    -DE/DX   Delta X   Delta X   Delta X     New X
                                 (Linear)    (Quad)   (Total)
    X1        1.70041   0.00262   0.00000  -0.06761  -0.01999   1.68042
    Y1       -0.00117   0.00054   0.00000   0.00081   0.00072  -0.00045
    Z1        0.01086   0.00036   0.00000   0.00090   0.00063   0.01149
    X2       -4.86090   0.00161   0.00000   0.19604   0.24367  -4.61723
    Y2        0.00004  -0.00000   0.00000  -0.00007  -0.00034  -0.00030
    Z2       -0.00454  -0.00000   0.00000  -0.00022  -0.00076  -0.00529
    X3        0.97803  -0.00305   0.00000  -0.11571  -0.06800   0.91003
    Y3        0.00350  -0.00003   0.00000   0.00026   0.00016   0.00366
    Z3       -1.92114   0.00104   0.00000   0.01829   0.01799  -1.90315
    X4        0.98767  -0.00312   0.00000  -0.11402  -0.06649   0.92118
    Y4        1.67314  -0.00123   0.00000  -0.01467  -0.01477   1.65837
    Z4        0.98427  -0.00068   0.00000  -0.00761  -0.00791   0.97636
    X5        0.98869  -0.00304   0.00000  -0.11503  -0.06739   0.92129
    Y5       -1.67895   0.00096   0.00000   0.01558   0.01547  -1.66348
    Z5        0.97725  -0.00055   0.00000  -0.00771  -0.00801   0.96925
    X6        4.45492   0.00148   0.00000  -0.06005  -0.01242   4.44250
    Y6        0.00270  -0.00039   0.00000  -0.00283  -0.00283  -0.00013
    Z6        0.00431  -0.00024   0.00000  -0.00181  -0.00196   0.00235
    X7        6.65130   0.00350   0.00000  -0.05701  -0.00938   6.64191
    Y7       -0.00124   0.00015   0.00000   0.00153   0.00159   0.00034
    Z7       -0.00458   0.00007   0.00000   0.00007   0.00002  -0.00456
         Item               Value     Threshold  Converged?
 Maximum Force            0.003498     0.000450     NO 
 RMS     Force            0.001648     0.000300     NO 
 Maximum Displacement     0.243669     0.001800     NO 
 RMS     Displacement     0.059573     0.001200     NO 
 Predicted change in Energy=-5.864718D-04
 GradGradGradGradGradGradGradGradGradGradGradGradGradGradGradGradGradGrad

 Leave Link  103 at Sun Oct 13 09:46:46 2024, MaxMem=  2684354560 cpu:               0.6 elap:               0.1
 (Enter /usr/local/g16_AVX//g16/l9999.exe)

 ----------------------------------------------------------------------

 Electric dipole moment (input orientation):
 (Debye = 10**-18 statcoulomb cm , SI units = C m)
                  (au)            (Debye)         (10**-30 SI)
   Tot        0.264122D+01      0.671331D+01      0.223932D+02
   x          0.264120D+01      0.671327D+01      0.223930D+02
   y          0.387395D-03      0.984659D-03      0.328447D-02
   z          0.926620D-02      0.235523D-01      0.785621D-01

 Dipole polarizability, Alpha (input orientation).
 (esu units = cm**3 , SI units = C**2 m**2 J**-1)
 Alpha(0;0):
               (au)            (10**-24 esu)      (10**-40 SI)
   iso        0.538094D+02      0.797373D+01      0.887197D+01
   aniso      0.365494D+02      0.541606D+01      0.602618D+01
   xx         0.781756D+02      0.115844D+02      0.128894D+02
   yx        -0.210173D-01     -0.311445D-02     -0.346529D-02
   yy         0.416216D+02      0.616769D+01      0.686248D+01
   zx        -0.485954D-01     -0.720110D-02     -0.801231D-02
   zy         0.135614D-02      0.200960D-03      0.223598D-03
   zz         0.416309D+02      0.616907D+01      0.686401D+01

 ----------------------------------------------------------------------

 Dipole orientation:
     6         -0.00489632         -0.00142364          1.70043703
    17         -0.01251642          0.00075081         -4.86088499
     1          1.92455417          0.00364238          0.97128798
     1         -0.98104295          1.67285397          0.99135779
     1         -0.97353479         -1.67924144          0.99186575
     6          0.01132225          0.00205244          4.45490589
     7          0.02791010         -0.00221492          6.65123826

 Electric dipole moment (dipole orientation):
 (Debye = 10**-18 statcoulomb cm , SI units = C m)
                  (au)            (Debye)         (10**-30 SI)
   Tot        0.264122D+01      0.671331D+01      0.223932D+02
   x          0.000000D+00      0.000000D+00      0.000000D+00
   y          0.000000D+00      0.000000D+00      0.000000D+00
   z          0.264122D+01      0.671331D+01      0.223932D+02

 Dipole polarizability, Alpha (dipole orientation).
 (esu units = cm**3 , SI units = C**2 m**2 J**-1)
 Alpha(0;0):
               (au)            (10**-24 esu)      (10**-40 SI)
   iso        0.538094D+02      0.797373D+01      0.887197D+01
   aniso      0.365494D+02      0.541606D+01      0.602618D+01
   xx         0.416317D+02      0.616918D+01      0.686414D+01
   yx        -0.145433D-02     -0.215510D-03     -0.239787D-03
   yy         0.416216D+02      0.616769D+01      0.686248D+01
   zx         0.176807D+00      0.262001D-01      0.291515D-01
   zy        -0.263480D-01     -0.390437D-02     -0.434419D-02
   zz         0.781748D+02      0.115843D+02      0.128893D+02

 ----------------------------------------------------------------------
 1\1\GINC-NODO7\Freq\RB3LYP\6-31++G(d,p)\C2H3Cl1N1(1-)\ALANQF\13-Oct-20
 24\0\\#p b3lyp 6-31++g(d,p) scf=verytight NoSymm freq=noraman int=ultr
 afine\\RxCoord=-9.18626 DE=0.21\\-1,1\C,0.899818,-0.000621,0.005748\Cl
 ,-2.572277,0.000021,-0.002401\H,0.517553,0.001854,-1.016621\H,0.52265,
 0.885389,0.520853\H,0.523192,-0.888464,0.517141\C,2.357441,0.001431,0.
 002279\N,3.519714,-0.000658,-0.002421\\Version=ES64L-G16RevB.01\HF=-59
 3.0597518\RMSD=2.184e-09\RMSF=1.648e-03\ZeroPoint=0.0451453\Thermal=0.
 0495735\Dipole=2.7388976,0.0003578,0.0098366\DipoleDeriv=-0.1047729,0.
 0003823,0.0003453,-0.0009504,0.0684684,0.0000384,-0.0010963,0.0000353,
 0.0673361,-1.0884073,0.0000418,-0.0000649,0.0000605,-0.9357094,0.00001
 24,0.0000665,0.0000123,-0.9357716,0.116323,-0.0001556,0.017042,-0.0003
 399,0.1116022,0.0003226,-0.0188552,0.0003028,0.0150823,0.1133179,-0.01
 47604,-0.0080695,0.0172204,0.0383527,-0.0423986,0.0107316,-0.0423159,0
 .0869218,0.1134337,0.0146552,-0.0080618,-0.0168092,0.0385021,0.0420856
 ,0.009955,0.042022,0.0874504,0.494499,0.0011109,-0.0009371,0.0010035,0
 .0553481,-0.0002003,-0.0018691,-0.000198,0.0557286,-0.6443934,-0.00127
 41,-0.000254,-0.0001849,-0.3765641,0.0001399,0.0010674,0.0001415,-0.37
 67476\Polar=78.1755706,-0.0210173,41.621637,-0.0485954,0.0013561,41.63
 09164\Quadrupole=-27.7462005,13.8729034,13.8732971,0.0038144,0.0018834
 ,-0.0007211\PG=C01 [X(C2H3Cl1N1)]\NImag=2\\0.48758770,0.00046094,0.556
 74404,0.00068590,-0.00066900,0.55758824,-0.00333193,-0.00000752,0.0000
 0388,0.00413872,-0.00000271,-0.00039843,-0.00000166,0.00000191,0.00023
 138,0.00000370,-0.00000168,-0.00040121,0.00000961,0.00000013,0.0002285
 5,-0.07237293,0.00019270,-0.09030213,0.00036616,0.00000221,-0.00096021
 ,0.08360775,0.00017729,-0.04120517,0.00063157,0.00000072,-0.00083272,-
 0.00000280,-0.00020466,0.04302652,-0.08919242,0.00063579,-0.29309256,-
 0.00101532,-0.00000315,0.00034088,0.09908539,-0.00064840,0.31229717,-0
 .07155511,0.07674144,0.04463802,0.00033976,0.00081850,0.00047904,0.004
 46666,-0.00982860,-0.00463438,0.08283863,0.07575988,-0.22930904,-0.109
 23532,0.00086353,0.00007018,0.00051632,-0.00094598,0.00062285,0.001290
 56,-0.08436343,0.24418049,0.04407479,-0.10923862,-0.10489590,0.0005108
 6,0.00051577,-0.00051195,0.01071656,-0.02411100,-0.01270873,-0.0490884
 1,0.11688225,0.11110604,-0.07146374,-0.07713662,0.04442287,0.00034427,
 -0.00082142,0.00047628,0.00445575,0.00985832,-0.00458849,0.00440027,0.
 00883456,-0.00618262,0.08264728,-0.07618592,-0.23087535,0.10923940,-0.
 00086193,0.00007247,-0.00051283,0.00090475,0.00054415,-0.00124991,-0.0
 0877188,-0.01922628,0.01268900,0.08472315,0.24581438,0.04386798,0.1092
 3840,-0.10417122,0.00050328,-0.00051194,-0.00051630,0.01068430,0.02417
 535,-0.01258583,-0.00619615,-0.01280321,0.00723765,-0.04880111,-0.1168
 1855,0.11029773,-0.25859910,-0.00041691,0.00037519,0.00006872,0.000001
 51,-0.00000391,-0.02081383,0.00000717,-0.00286963,-0.02066561,0.002637
 69,0.00157536,-0.02061991,-0.00258950,0.00153352,1.55751267,-0.0000955
 6,-0.07613856,0.00002364,0.00000238,0.00094898,0.00000170,0.00005865,-
 0.00328052,-0.00002497,0.02907482,0.00447525,0.00437379,-0.02913448,0.
 00449649,-0.00438694,-0.00177518,0.10824964,0.00052034,0.00002460,-0.0
 7621419,-0.00002512,0.00000170,0.00095291,-0.03344439,-0.00005103,0.00
 725114,0.01692994,0.00446460,-0.00071352,0.01678184,-0.00445184,-0.000
 75874,-0.00544159,0.00002704,0.10825313,-0.01026489,0.00016598,0.00017
 627,-0.00192570,0.,-0.00000451,0.00029043,-0.00001022,0.00321485,0.000
 17540,-0.00278626,-0.00160654,0.00023608,0.00278133,-0.00159182,-1.236
 88295,0.00186937,0.00467899,1.24837163,-0.00011392,0.02118251,0.000011
 37,0.00000091,-0.00009186,-0.00000085,-0.00000766,0.00112488,0.0000000
 7,-0.00367085,-0.00081345,-0.00111118,0.00367650,-0.00082586,0.0011068
 8,0.00213522,-0.03875128,-0.00001508,-0.00202020,0.01817505,0.00003970
 ,0.00001050,0.02118685,0.00001281,-0.00000085,-0.00009288,0.00422048,0
 .00000630,-0.00150207,-0.00212807,-0.00111520,0.00048641,-0.00210876,0
 .00110473,0.00049671,0.00483106,-0.00001427,-0.03877073,-0.00486723,0.
 00000879,0.01819572\\-0.00261617,-0.00053799,-0.00035664,-0.00161166,0
 .00000259,0.00000238,0.00304811,0.00002612,-0.00104491,0.00311646,0.00
 122598,0.00068258,0.00303713,-0.00096280,0.00055240,-0.00147610,0.0003
 9365,0.00023504,-0.00349777,-0.00014755,-0.00007085\\\@


 ONLY A FOOL KNOWS EVERYTHING.

               -- THE CHEMIST ANALYST, SEPTEMBER 1946
 Job cpu time:       0 days  0 hours  3 minutes 52.2 seconds.
 Elapsed time:       0 days  0 hours  0 minutes  9.9 seconds.
 File lengths (MBytes):  RWF=     88 Int=      0 D2E=      0 Chk=      2 Scr=      2
 Normal termination of Gaussian 16 at Sun Oct 13 09:46:46 2024.
