RxCoord=-9.18626 DE=0.21                                                
Freq      RB3LYP                                                      6-31++G(d,p)        
Number of atoms                            I                7
Info1-9                                    I   N=           9
          16          16           0           0           0         100
           6          18        -502
Full Title                                 C   N=           2
RxCoord=-9.18626 DE=0.21
Route                                      C   N=           6
#p b3lyp 6-31++g(d,p) scf=verytight NoSymm freq=noraman int=
ultrafine   
Charge                                     I               -1
Multiplicity                               I                1
Number of electrons                        I               40
Number of alpha electrons                  I               20
Number of beta electrons                   I               20
Number of basis functions                  I               98
Number of independent functions            I               98
Number of point charges in /Mol/           I                0
Number of translation vectors              I                0
Atomic numbers                             I   N=           7
           6          17           1           1           1           6
           7
Nuclear charges                            R   N=           7
  6.00000000E+00  1.70000000E+01  1.00000000E+00  1.00000000E+00  1.00000000E+00
  6.00000000E+00  7.00000000E+00
Current cartesian coordinates              R   N=          21
  1.70040958E+00 -1.17351992E-03  1.08621458E-02 -4.86089905E+00  3.96842486E-05
 -4.53723243E-03  9.78033425E-01  3.50355223E-03 -1.92113526E+00  9.87665359E-01
  1.67314272E+00  9.84269521E-01  9.88689591E-01 -1.67895363E+00  9.77254858E-01
  4.45491784E+00  2.70419808E-03  4.30668584E-03  6.65129550E+00 -1.24343979E-03
 -4.57502695E-03
Number of symbols in /Mol/                 I                0
Force Field                                I                0
Atom Types                                 C   N=           7
                                                            
                        
Int Atom Types                             I   N=           7
           0           0           0           0           0           0
           0
MM charges                                 R   N=           7
  0.00000000E+00  0.00000000E+00  0.00000000E+00  0.00000000E+00  0.00000000E+00
  0.00000000E+00  0.00000000E+00
Integer atomic weights                     I   N=           7
          12          35           1           1           1          12
          14
Real atomic weights                        R   N=           7
  1.20000000E+01  3.49688527E+01  1.00782504E+00  1.00782504E+00  1.00782504E+00
  1.20000000E+01  1.40030740E+01
Atom fragment info                         I   N=           7
           0           0           0           0           0           0
           0
Atom residue num                           I   N=           7
           0           0           0           0           0           0
           0
Nuclear spins                              I   N=           7
           0           3           1           1           1           0
           2
Nuclear ZEff                               R   N=           7
 -3.60000000E+00 -1.42400000E+01 -1.00000000E+00 -1.00000000E+00 -1.00000000E+00
 -3.60000000E+00 -4.55000000E+00
Nuclear ZNuc                               R   N=           7
  6.00000000E+00  1.70000000E+01  1.00000000E+00  1.00000000E+00  1.00000000E+00
  6.00000000E+00  7.00000000E+00
Nuclear QMom                               R   N=           7
  0.00000000E+00 -8.16500000E+00  0.00000000E+00  0.00000000E+00  0.00000000E+00
  0.00000000E+00  2.04400000E+00
Nuclear GFac                               R   N=           7
  0.00000000E+00  8.21874000E-01  2.79284600E+00  2.79284600E+00  2.79284600E+00
  0.00000000E+00  4.03761000E-01
MicOpt                                     I   N=           7
          -1          -1          -1          -1          -1          -1
          -1
Number of residues                         I                0
Number of secondary structures             I                0
Number of contracted shells                I               33
Number of primitive shells                 I               72
Pure/Cartesian d shells                    I                1
Pure/Cartesian f shells                    I                0
Highest angular momentum                   I                2
Largest degree of contraction              I                6
Shell types                                I   N=          33
           0          -1          -1          -1           2           0
          -1          -1          -1          -1           2           0
           0           0           1           0           0           0
           1           0           0           0           1           0
          -1          -1          -1           2           0          -1
          -1          -1           2
Number of primitives per shell             I   N=          33
           6           3           1           1           1           6
           6           3           1           1           1           3
           1           1           1           3           1           1
           1           3           1           1           1           6
           3           1           1           1           6           3
           1           1           1
Shell to atom map                          I   N=          33
           1           1           1           1           1           2
           2           2           2           2           2           3
           3           3           3           4           4           4
           4           5           5           5           5           6
           6           6           6           6           7           7
           7           7           7
Primitive exponents                        R   N=          72
  3.04752488E+03  4.57369518E+02  1.03948685E+02  2.92101553E+01  9.28666296E+00
  3.16392696E+00  7.86827235E+00  1.88128854E+00  5.44249258E-01  1.68714478E-01
  4.38000000E-02  8.00000000E-01  2.51801000E+04  3.78035000E+03  8.60474000E+02
  2.42145000E+02  7.73349000E+01  2.62470000E+01  4.91765000E+02  1.16984000E+02
  3.74153000E+01  1.37834000E+01  5.45215000E+00  2.22588000E+00  3.18649000E+00
  1.14427000E+00  4.20377000E-01  1.42657000E-01  4.83000000E-02  7.50000000E-01
  1.87311370E+01  2.82539436E+00  6.40121692E-01  1.61277759E-01  3.60000000E-02
  1.10000000E+00  1.87311370E+01  2.82539436E+00  6.40121692E-01  1.61277759E-01
  3.60000000E-02  1.10000000E+00  1.87311370E+01  2.82539436E+00  6.40121692E-01
  1.61277759E-01  3.60000000E-02  1.10000000E+00  3.04752488E+03  4.57369518E+02
  1.03948685E+02  2.92101553E+01  9.28666296E+00  3.16392696E+00  7.86827235E+00
  1.88128854E+00  5.44249258E-01  1.68714478E-01  4.38000000E-02  8.00000000E-01
  4.17351146E+03  6.27457911E+02  1.42902093E+02  4.02343293E+01  1.28202129E+01
  4.39043701E+00  1.16263619E+01  2.71627981E+00  7.72218397E-01  2.12031498E-01
  6.39000000E-02  8.00000000E-01
Contraction coefficients                   R   N=          72
  1.83473713E-03  1.40373228E-02  6.88426223E-02  2.32184443E-01  4.67941348E-01
  3.62311985E-01 -1.19332420E-01 -1.60854152E-01  1.14345644E+00  1.00000000E+00
  1.00000000E+00  1.00000000E+00  1.83295985E-03  1.40341988E-02  6.90973943E-02
  2.37451980E-01  4.83033960E-01  3.39855972E-01 -2.29739142E-03 -3.07137189E-02
 -1.12528069E-01  4.50163278E-02  5.89353363E-01  4.65206287E-01 -2.51828028E-01
  6.15892514E-02  1.06018433E+00  1.00000000E+00  1.00000000E+00  1.00000000E+00
  3.34946043E-02  2.34726953E-01  8.13757326E-01  1.00000000E+00  1.00000000E+00
  1.00000000E+00  3.34946043E-02  2.34726953E-01  8.13757326E-01  1.00000000E+00
  1.00000000E+00  1.00000000E+00  3.34946043E-02  2.34726953E-01  8.13757326E-01
  1.00000000E+00  1.00000000E+00  1.00000000E+00  1.83473713E-03  1.40373228E-02
  6.88426223E-02  2.32184443E-01  4.67941348E-01  3.62311985E-01 -1.19332420E-01
 -1.60854152E-01  1.14345644E+00  1.00000000E+00  1.00000000E+00  1.00000000E+00
  1.83477216E-03  1.39946270E-02  6.85865518E-02  2.32240873E-01  4.69069948E-01
  3.60455199E-01 -1.14961182E-01 -1.69117479E-01  1.14585195E+00  1.00000000E+00
  1.00000000E+00  1.00000000E+00
P(S=P) Contraction coefficients            R   N=          72
  0.00000000E+00  0.00000000E+00  0.00000000E+00  0.00000000E+00  0.00000000E+00
  0.00000000E+00  6.89990666E-02  3.16423961E-01  7.44308291E-01  1.00000000E+00
  1.00000000E+00  0.00000000E+00  0.00000000E+00  0.00000000E+00  0.00000000E+00
  0.00000000E+00  0.00000000E+00  0.00000000E+00  3.98940088E-03  3.03177067E-02
  1.29880029E-01  3.27951072E-01  4.53527100E-01  2.52154056E-01 -1.42993147E-02
  3.23572333E-01  7.43507765E-01  1.00000000E+00  1.00000000E+00  0.00000000E+00
  0.00000000E+00  0.00000000E+00  0.00000000E+00  0.00000000E+00  0.00000000E+00
  0.00000000E+00  0.00000000E+00  0.00000000E+00  0.00000000E+00  0.00000000E+00
  0.00000000E+00  0.00000000E+00  0.00000000E+00  0.00000000E+00  0.00000000E+00
  0.00000000E+00  0.00000000E+00  0.00000000E+00  0.00000000E+00  0.00000000E+00
  0.00000000E+00  0.00000000E+00  0.00000000E+00  0.00000000E+00  6.89990666E-02
  3.16423961E-01  7.44308291E-01  1.00000000E+00  1.00000000E+00  0.00000000E+00
  0.00000000E+00  0.00000000E+00  0.00000000E+00  0.00000000E+00  0.00000000E+00
  0.00000000E+00  6.75797439E-02  3.23907296E-01  7.40895140E-01  1.00000000E+00
  1.00000000E+00  0.00000000E+00
Coordinates of each shell                  R   N=          99
  1.70040958E+00 -1.17351992E-03  1.08621458E-02  1.70040958E+00 -1.17351992E-03
  1.08621458E-02  1.70040958E+00 -1.17351992E-03  1.08621458E-02  1.70040958E+00
 -1.17351992E-03  1.08621458E-02  1.70040958E+00 -1.17351992E-03  1.08621458E-02
 -4.86089905E+00  3.96842486E-05 -4.53723243E-03 -4.86089905E+00  3.96842486E-05
 -4.53723243E-03 -4.86089905E+00  3.96842486E-05 -4.53723243E-03 -4.86089905E+00
  3.96842486E-05 -4.53723243E-03 -4.86089905E+00  3.96842486E-05 -4.53723243E-03
 -4.86089905E+00  3.96842486E-05 -4.53723243E-03  9.78033425E-01  3.50355223E-03
 -1.92113526E+00  9.78033425E-01  3.50355223E-03 -1.92113526E+00  9.78033425E-01
  3.50355223E-03 -1.92113526E+00  9.78033425E-01  3.50355223E-03 -1.92113526E+00
  9.87665359E-01  1.67314272E+00  9.84269521E-01  9.87665359E-01  1.67314272E+00
  9.84269521E-01  9.87665359E-01  1.67314272E+00  9.84269521E-01  9.87665359E-01
  1.67314272E+00  9.84269521E-01  9.88689591E-01 -1.67895363E+00  9.77254858E-01
  9.88689591E-01 -1.67895363E+00  9.77254858E-01  9.88689591E-01 -1.67895363E+00
  9.77254858E-01  9.88689591E-01 -1.67895363E+00  9.77254858E-01  4.45491784E+00
  2.70419808E-03  4.30668584E-03  4.45491784E+00  2.70419808E-03  4.30668584E-03
  4.45491784E+00  2.70419808E-03  4.30668584E-03  4.45491784E+00  2.70419808E-03
  4.30668584E-03  4.45491784E+00  2.70419808E-03  4.30668584E-03  6.65129550E+00
 -1.24343979E-03 -4.57502695E-03  6.65129550E+00 -1.24343979E-03 -4.57502695E-03
  6.65129550E+00 -1.24343979E-03 -4.57502695E-03  6.65129550E+00 -1.24343979E-03
 -4.57502695E-03  6.65129550E+00 -1.24343979E-03 -4.57502695E-03
Num ILSW                                   I              100
ILSW                                       I   N=         100
           0           1           0           0           2           0
           0           0           0           0         402          -1
           5           0           0           0           2           0
           0           0           0           0           1           0
           1           1           0           0           0           0
           0           0      100000           0          -1           0
           0           0           0           0           0           0
           0           0           0           1           0           0
           0 -2000000000           1           0           0           0
           0           0           4          52           0           0
           0           0           5           0           0           0
           0           0           0           7           0           1
           0           0           0           0           0           0
           0           0           0           0           0           0
           0           0           0           0           0           0
           0           0           0           0           0           0
           0           0           0           0
Num RLSW                                   I               52
RLSW                                       R   N=          52
  8.00000000E-01  7.20000000E-01  1.00000000E+00  8.10000000E-01  2.00000000E-01
  0.00000000E+00  0.00000000E+00  1.00000000E+00  0.00000000E+00  0.00000000E+00
  0.00000000E+00  0.00000000E+00  1.00000000E+00  0.00000000E+00  0.00000000E+00
  0.00000000E+00  0.00000000E+00  1.00000000E+00  0.00000000E+00  0.00000000E+00
  0.00000000E+00  0.00000000E+00  1.00000000E+00  0.00000000E+00  0.00000000E+00
  0.00000000E+00  0.00000000E+00  1.00000000E+00  0.00000000E+00  0.00000000E+00
  0.00000000E+00  0.00000000E+00  1.00000000E+00  0.00000000E+00  0.00000000E+00
  0.00000000E+00  0.00000000E+00  0.00000000E+00  1.00000000E+00  1.00000000E+00
  0.00000000E+00  1.00000000E+00  0.00000000E+00  0.00000000E+00  0.00000000E+00
  0.00000000E+00  0.00000000E+00  0.00000000E+00  0.00000000E+00  0.00000000E+00
  0.00000000E+00  0.00000000E+00
MxBond                                     I                4
NBond                                      I   N=           7
           4           0           1           1           1           2
           1
IBond                                      I   N=          28
           3           4           5           6           0           0
           0           0           1           0           0           0
           1           0           0           0           1           0
           0           0           1           7           0           0
           6           0           0           0
RBond                                      R   N=          28
  1.00000000E+00  1.00000000E+00  1.00000000E+00  1.00000000E+00  0.00000000E+00
  0.00000000E+00  0.00000000E+00  0.00000000E+00  1.00000000E+00  0.00000000E+00
  0.00000000E+00  0.00000000E+00  1.00000000E+00  0.00000000E+00  0.00000000E+00
  0.00000000E+00  1.00000000E+00  0.00000000E+00  0.00000000E+00  0.00000000E+00
  1.00000000E+00  3.00000000E+00  0.00000000E+00  0.00000000E+00  3.00000000E+00
  0.00000000E+00  0.00000000E+00  0.00000000E+00
Virial Ratio                               R      2.004734812760734E+00
SCF Energy                                 R     -5.930597518318928E+02
Total Energy                               R     -5.930597518318928E+02
RMS Force                                  R      1.647939279243197E-03
RMS Density                                R      2.183581342874188E-09
NImag                                      I                2
Job Status                                 I                1
Nuclear derivative order                   I                2
External E-field                           R   N=          35
  0.00000000E+00  0.00000000E+00  0.00000000E+00  0.00000000E+00  0.00000000E+00
  0.00000000E+00  0.00000000E+00  0.00000000E+00  0.00000000E+00  0.00000000E+00
  0.00000000E+00  0.00000000E+00  0.00000000E+00  0.00000000E+00  0.00000000E+00
  0.00000000E+00  0.00000000E+00  0.00000000E+00  0.00000000E+00  0.00000000E+00
  0.00000000E+00  0.00000000E+00  0.00000000E+00  0.00000000E+00  0.00000000E+00
  0.00000000E+00  0.00000000E+00  0.00000000E+00  0.00000000E+00  0.00000000E+00
  0.00000000E+00  0.00000000E+00  0.00000000E+00  0.00000000E+00  0.00000000E+00
IOpCl                                      I                0
IROHF                                      I                0
Alpha Orbital Energies                     R   N=          98
 -1.01254013E+02 -1.42341260E+01 -1.01313602E+01 -1.01045853E+01 -9.16730453E+00
 -6.92511033E+00 -6.92510918E+00 -6.92508946E+00 -8.03664677E-01 -6.50677097E-01
 -5.04561290E-01 -3.88219505E-01 -3.34439715E-01 -3.34319334E-01 -2.64025430E-01
 -2.22907958E-01 -2.22862838E-01 -5.20446236E-02 -5.07517381E-02 -5.07466262E-02
  9.76782781E-02  1.31544993E-01  1.31659668E-01  1.41089256E-01  1.43098104E-01
  1.43146502E-01  1.97292436E-01  2.02473955E-01  2.02557631E-01  2.19338547E-01
  2.27275888E-01  2.27487605E-01  2.48299268E-01  2.58278361E-01  2.58370979E-01
  2.84779577E-01  3.24033533E-01  3.31159967E-01  3.31337001E-01  3.37140347E-01
  3.37327880E-01  3.38802307E-01  3.91867426E-01  4.04357086E-01  4.80100971E-01
  6.96146031E-01  7.81839503E-01  7.81938455E-01  8.38863491E-01  8.39059967E-01
  8.48497048E-01  8.51065768E-01  8.51227567E-01  8.81400258E-01  9.82744968E-01
  1.00744331E+00  1.01830554E+00  1.01847954E+00  1.09409137E+00  1.11179413E+00
  1.11201076E+00  1.15484060E+00  1.15484985E+00  1.15965534E+00  1.15968549E+00
  1.19065184E+00  1.23251121E+00  1.26585809E+00  1.44587655E+00  1.44603913E+00
  1.53315146E+00  1.62077157E+00  1.62078565E+00  1.85517532E+00  1.85596354E+00
  1.88251585E+00  2.04720436E+00  2.04772743E+00  2.13878867E+00  2.22603874E+00
  2.22626841E+00  2.29307996E+00  2.38999228E+00  2.39004640E+00  2.73906645E+00
  2.79395839E+00  2.79533817E+00  3.04148534E+00  3.08103684E+00  3.08222228E+00
  3.27548725E+00  3.44286758E+00  3.54035996E+00  3.54147356E+00  4.24005250E+00
  4.42838242E+00  4.56868700E+00  4.80082110E+00
Alpha MO coefficients                      R   N=        9604
 -2.66063868E-07 -5.94815483E-06 -7.91140642E-06 -6.66357895E-09 -7.73208276E-10
  1.24039593E-04  1.06768709E-04  2.08409079E-07 -3.09477947E-07  9.03961796E-04
  2.87127376E-04  3.40593551E-07 -5.43868886E-07  5.49909754E-06  1.94460536E-06
  1.93278599E-06  1.65367552E-08  4.84680203E-09  2.58501652E-09  9.95998034E-01
  1.51388276E-02  5.00785130E-06 -2.11491351E-09  6.53134085E-09 -2.10649310E-02
 -1.37673426E-05  3.02289420E-09 -2.52542924E-08  1.99003839E-03  3.34970573E-05
 -1.53132427E-09  4.83758645E-08 -3.34867544E-04 -3.69389902E-05 -3.58628498E-08
  1.04911019E-07  7.50249400E-03  7.50157352E-03  7.50157268E-03 -2.32760982E-09
  9.00749404E-09  1.16061036E-10  6.18344406E-06 -9.75796674E-06  5.55678644E-05
 -3.66649461E-06 -9.89239936E-09 -1.11470505E-06  6.13403447E-06 -9.38157889E-06
  5.46629499E-05 -3.82622927E-06  8.96704039E-07  5.53334583E-07  6.15170919E-06
 -9.26450515E-06  5.47206932E-05 -3.86060465E-06 -8.99696468E-07  5.35717304E-07
  2.03813780E-06  1.03662680E-05  8.73045908E-07 -2.10128327E-08  4.07408764E-09
 -5.89472663E-05  1.41345922E-04  1.46420277E-07 -4.13632366E-07 -1.09099740E-03
  3.15368081E-04  7.64582490E-07 -8.59266904E-07 -2.32728957E-06  3.17563378E-06
  3.18192489E-06 -1.24744686E-08  1.86643740E-08  1.34723309E-09  2.25603727E-06
  9.10895465E-06 -1.14612710E-06  8.11795719E-09  1.03246888E-08 -1.17539522E-04
  3.38634832E-05 -1.52933499E-07 -1.99461165E-07  8.98499225E-05 -6.45470471E-05
 -2.25187852E-07  3.02420459E-07  4.05295686E-06  4.29646370E-06  4.29512307E-06
  2.23261094E-08  6.68400063E-09 -1.78100494E-10  9.48973468E-06 -1.87701511E-04
  2.69765198E-04  4.04789543E-07 -6.43588693E-07  9.55997306E-04  6.17245329E-04
  2.62695695E-06 -6.73972424E-07  9.37726895E-03  2.34001631E-03  4.47144242E-06
 -2.87405175E-06  4.70970034E-04  2.68688647E-05  2.68695611E-05  1.62194171E-06
 -7.19226647E-07  3.78470907E-08  5.81303736E-08  1.48284111E-06  3.69806464E-06
 -1.52513153E-09  1.55219775E-08  5.87751464E-06 -1.97463714E-05  5.34684341E-09
 -8.06541506E-08 -5.95480105E-05  3.53153159E-05  4.27181917E-08  1.47693399E-07
  3.03509074E-04  1.01126968E-04 -5.04074315E-07  4.12208539E-07  2.62288155E-06
 -9.79363737E-07 -9.72229617E-07 -2.28894093E-08  2.14742285E-08  7.25267194E-10
  1.15477801E-06 -7.69778548E-05 -2.50129715E-04 -1.75749892E-06 -1.10376053E-07
 -2.28410508E-06  1.10373471E-06 -7.86115491E-05 -2.47642073E-04 -2.04376397E-06
  1.62992469E-06  9.62662438E-07  1.24106354E-06 -7.70365279E-05 -2.47932565E-04
 -1.76272831E-06 -1.96928399E-06  1.01409636E-06  7.59942926E-05  3.22378457E-04
 -5.61230427E-04  1.12157739E-06  2.34352755E-06  1.05929502E-05  1.28249503E-03
  7.18699971E-07 -3.58346538E-06 -6.74808188E-03  3.97169592E-03  2.77399364E-06
 -1.38531976E-05 -1.44747390E-03  1.69680126E-05  1.69329294E-05  1.82885031E-06
  6.21772286E-06  8.17352639E-09  9.92764080E-01  3.47096421E-02 -2.14875551E-03
  4.81581517E-06  9.29976364E-06  3.62054399E-03  8.08371292E-04 -2.41602016E-06
 -4.04461190E-06 -3.38093091E-03 -3.97114266E-04 -1.70318511E-06  1.76549726E-06
 -7.31084324E-03 -8.36416938E-03 -8.36415500E-03 -2.30084769E-06 -4.97894034E-06
  1.42644134E-08  6.15093628E-03  1.26690436E-04 -4.35451289E-04 -1.35727024E-06
  9.05637010E-07  7.00944108E-03  2.46181281E-03  7.73494202E-06 -5.92842142E-06
  6.79268795E-02  2.30135836E-02  2.89546677E-05 -2.97664367E-05 -1.03087813E-03
 -2.07541544E-04 -2.07180931E-04 -2.01084256E-06  1.98100240E-06 -9.16627580E-08
  2.21340512E-07  4.53337992E-06  2.11262208E-05 -2.58769886E-08  7.39002378E-08
  1.91232949E-05 -1.24253274E-04  1.32864324E-07 -4.05042668E-07 -3.36966360E-04
  3.73115807E-04 -9.74612179E-08  7.31897745E-07  3.29264431E-03  1.32490365E-03
 -2.21013518E-06  9.01020895E-06  2.97248178E-05 -1.57078774E-05 -1.56736584E-05
 -1.36375892E-07  3.87957141E-07  1.62548482E-08 -1.17589591E-04 -7.88485603E-04
 -1.20458043E-04  4.80916547E-05 -3.46775987E-07  1.06354217E-05 -1.17610044E-04
 -7.90338453E-04 -1.26478850E-04  5.02932982E-05 -8.92141938E-06 -5.25037434E-06
 -1.16924799E-04 -7.88882082E-04 -1.02860278E-04  4.82870642E-05  9.45112582E-06
 -5.86925234E-06  9.92757465E-01  5.03490437E-02  2.32205025E-04 -2.53377147E-06
 -1.61591126E-06 -1.04344363E-02  7.19263501E-03  4.67111928E-06 -1.98017520E-05
 -7.39508388E-02  2.08564589E-02  5.31097580E-05 -7.11664560E-05 -7.85739846E-03
 -9.90510863E-03 -9.90515993E-03 -1.89535642E-06 -8.30282766E-06  5.18705756E-08
 -4.74421918E-04  3.20922641E-04  3.30069914E-04 -1.10370716E-06 -1.09625452E-06
 -7.45300210E-03  3.04552329E-03 -8.94988833E-06 -1.67886810E-05  7.75982892E-03
 -5.86987184E-03 -1.23383841E-05  2.77482349E-05 -1.76522784E-05  3.23364316E-04
  3.23374605E-04  2.79795426E-06  2.66652488E-06 -8.31537532E-09  9.93016222E-01
  5.06317707E-02  7.40274751E-04  1.67497014E-06  9.32525769E-07 -2.45521240E-02
 -4.62726093E-03 -1.50936575E-05  5.13224226E-06  4.15961436E-02  1.70867120E-02
  1.52389585E-05 -1.70267599E-05 -8.94484941E-03 -8.85795037E-03 -8.85815328E-03
  1.33831056E-07  4.00280422E-07 -5.60679399E-07  7.22537199E-07  1.30599388E-05
  5.54001267E-06 -8.82825550E-09  1.36993379E-07  3.61633300E-05 -3.15118390E-05
  5.78155717E-08 -7.68835240E-07 -3.43832362E-04  2.10226002E-04 -2.04095428E-07
  1.67798735E-06  3.06205067E-03  1.27139437E-03 -9.23788708E-07  7.97527212E-06
  2.80702158E-05  1.98661033E-05  1.97747811E-05 -7.25948213E-08  4.95967722E-07
  1.62015859E-09  2.82356688E-06  3.16762890E-03  1.19322007E-04  2.67200233E-05
  9.40656591E-07 -1.24052053E-04  5.23719655E-06  3.16917773E-03  1.21169269E-04
  2.51813259E-05  1.07831896E-04  6.25450038E-05  2.86712826E-06  3.16373761E-03
  1.33801063E-04  2.62912777E-05 -1.07749093E-04  6.26519876E-05 -6.45388821E-03
 -4.70593803E-04  2.66481167E-04  3.09127767E-07 -2.81500564E-07  3.58879049E-03
 -9.54454794E-03 -3.06287627E-06  2.71405665E-05 -4.80564635E-02  1.22267677E-02
  3.53869885E-05 -5.43768954E-05 -8.31587915E-04 -4.81752083E-06 -4.63379061E-06
 -4.80753640E-07  2.99497488E-06 -6.77633349E-08 -1.91266243E-05 -5.63070067E-05
 -2.46609810E-04 -1.23149871E-07  1.12571205E-06  5.42482996E-03 -1.79411871E-03
  1.25157134E-05  9.83578555E-06  4.73982110E-03 -2.37227354E-03 -9.10301529E-06
  1.89107069E-05  1.47935569E-04 -7.68109030E-05 -7.68147646E-05 -2.33635009E-06
 -2.06316858E-06  3.04161503E-08  4.98001978E-05  3.02012332E-04  1.27771745E-04
  1.41892896E-07  3.81811294E-07 -3.62129042E-03 -2.99557414E-03 -7.48806620E-06
  1.02318923E-05  1.23119611E-02  5.02666849E-03  2.38403831E-06  2.58421556E-06
 -1.45079191E-04  1.01401650E-04  1.00755417E-04 -6.03524230E-07  2.36178160E-07
 -1.69365232E-07 -2.84645496E-01  1.02262975E+00  2.81548368E-04 -2.12575548E-07
  4.50790438E-08  7.49239378E-02  3.48911945E-04 -3.45774198E-08  6.05529984E-07
 -2.02415647E-02 -1.01869768E-03 -6.58332714E-08 -1.39899416E-06  9.70508110E-03
  2.88897683E-03  3.28331069E-07  1.74115317E-06 -1.56895640E-02 -1.57096097E-02
 -1.57094369E-02 -3.79594001E-09 -1.42075274E-07  4.72000147E-09  2.93325314E-05
 -8.83273045E-04 -2.82598961E-03  9.91334175E-05  5.03318599E-07 -6.27750491E-05
  3.37575254E-05 -8.96869080E-04 -2.77416525E-03  9.91710922E-05  5.57377070E-05
  3.20008471E-05  3.31737422E-05 -9.01267092E-04 -2.76559563E-03  9.96843497E-05
 -5.59013592E-05  3.21993490E-05 -2.94237158E-05 -1.97728262E-04 -2.23205451E-05
  1.13745695E-07  2.31799848E-08 -4.94701485E-04 -5.12790935E-03 -2.25370879E-07
  1.55529006E-05 -4.83011328E-03  9.87750700E-04  5.77935454E-06 -2.53146447E-05
  7.91677216E-05 -2.02526529E-05 -2.04469231E-05  4.67963171E-07 -2.15231619E-08
 -9.16019444E-09 -1.07799645E-04 -4.27071264E-04  2.23498511E-05 -5.89693375E-07
 -1.76129298E-07  5.30111521E-03 -1.60387127E-03  6.98353347E-06  7.63337233E-06
 -2.09951899E-03  9.40811525E-04 -1.93410249E-06  4.71832230E-06 -1.68403898E-04
 -2.18848781E-04 -2.18782839E-04 -6.46397400E-07 -5.00760081E-07  4.73772253E-09
 -1.64606650E-06 -1.38053311E-05 -5.20060568E-06  5.53153427E-08  4.62835561E-06
  2.24935590E-04  1.57843255E-04 -9.98722451E-06 -5.23439201E-04  2.54605798E-03
  9.63015078E-04  6.64645260E-06  3.49433381E-04  9.90342117E-06 -3.55113221E-05
  3.31498027E-05  7.19903072E-07  3.30921456E-05 -1.07688220E-06 -3.80337059E-06
  1.00847789E-05 -3.44293492E-02  2.06698248E-02  9.90025038E-01 -1.06505562E-05
 -1.04340662E-03  6.16949240E-04  2.95469242E-02  4.74118395E-05  4.36614082E-04
 -2.36596069E-04 -1.13207854E-02  6.24772318E-05 -1.31064100E-04  9.85327713E-05
  4.68730126E-03 -5.26577068E-06 -3.61040586E-06 -9.13566607E-06  8.73985394E-07
  4.11155347E-05  7.72957000E-08  1.11884657E-04 -7.52925147E-04  3.76530423E-03
 -2.93297203E-05  3.11586948E-07 -7.84642243E-05 -5.51477184E-05  3.98355357E-04
 -1.83548713E-03  6.56744491E-06 -3.91663410E-05 -1.60717956E-05 -5.05531372E-05
  3.68692524E-04 -1.68392123E-03  5.65170671E-06  3.65658906E-05 -1.42263629E-05
  4.30246336E-06  2.14609130E-05 -8.73940703E-07  4.67173115E-07  2.41454190E-05
 -4.63715343E-05  3.04963402E-04 -3.98822691E-07 -6.85772320E-06 -2.93960373E-03
  8.56436654E-04  3.02506144E-05  1.12425748E-03  7.29163228E-07  3.05132872E-06
  8.81471245E-06 -4.14800100E-07 -1.72680732E-05 -1.44259722E-07  3.97231237E-06
  1.80451237E-05 -1.38980868E-06 -3.00910213E-07 -7.50690104E-06 -2.56347249E-04
  9.22924264E-05  1.51905481E-06  4.77648653E-05  1.00632184E-04 -1.28077691E-04
 -1.30234465E-05 -4.52239663E-04  3.14044955E-06  1.00744600E-05  4.55306208E-06
 -2.18343255E-08 -1.96161185E-06  7.11566299E-08 -4.39635987E-07 -4.74553101E-06
 -2.11008938E-06  3.65177369E-06 -1.12652562E-07  9.18036696E-05  7.42875731E-05
 -5.10990161E-04  1.11424594E-05  1.29957760E-03  4.88789825E-04  3.32111845E-04
 -9.22680626E-06  4.66172715E-06  6.96208784E-07 -1.15871711E-06  3.19226283E-05
 -6.83814122E-07 -3.88070491E-05 -1.57987251E-06  4.19237015E-06 -1.34905183E-02
  9.90521846E-01 -2.11494532E-02 -4.34952623E-06 -4.09766587E-04  2.95606145E-02
 -6.31134324E-04  1.84428672E-05  1.74100892E-04 -1.13233587E-02  2.41582909E-04
  4.22094821E-05 -4.39750401E-05  4.68160728E-03 -9.89738830E-05 -1.97719499E-06
 -2.89560866E-06 -2.71936245E-06  4.10362004E-05 -8.42928836E-07  3.31759739E-06
 -2.00946254E-06  2.64699398E-05 -4.46740837E-05 -2.01005039E-06  6.18226239E-06
  2.58047250E-06 -9.35393175E-05  6.46671840E-04 -3.06939773E-03  1.74528226E-05
 -5.66084248E-05 -3.66176120E-05  9.68003083E-05 -6.46268184E-04  3.22830772E-03
 -2.33011550E-05 -5.71139027E-05  3.63029482E-05  2.05870079E-06  1.02089838E-05
 -3.12599996E-07  2.38011240E-05 -4.86378167E-07 -1.39149754E-05  1.43426102E-04
 -7.10512407E-06 -7.46122545E-07 -1.50206563E-03  4.43721283E-04  1.12530900E-03
 -2.11657392E-05  8.26865879E-07  2.75079890E-06  2.69724469E-06 -1.69761512E-05
  3.43134552E-07 -3.17617564E-06  2.03705263E-06  9.13327637E-06 -7.29766938E-07
 -7.63135518E-06  2.78123157E-08 -1.26352780E-04  4.67950008E-05  4.86804441E-05
 -5.15325628E-07  5.25493970E-05 -6.99179541E-05 -4.51320190E-04  7.24311385E-06
  1.39216043E-06  3.81263784E-06  3.99114495E-06 -2.02071602E-06  3.71119159E-08
  3.14486287E-06  3.38169007E-05  3.52042046E-04  1.60313729E-04  5.63289792E-07
  7.37907168E-07 -6.45619104E-03 -5.21755970E-03 -2.15564914E-05  1.12693141E-07
 -8.38530246E-02 -3.19015826E-02 -2.37882397E-05  4.91957925E-05 -3.32446002E-04
  1.93064361E-05  2.07987157E-05 -3.84705355E-07  1.48299207E-06 -8.22086703E-07
  1.11153225E-04 -2.90354191E-04  9.90054447E-01  1.42157847E-02  3.41396086E-02
  3.17987981E-04  3.00495899E-02  4.24043230E-04  1.02023966E-03 -1.38699659E-03
 -1.27073595E-02 -1.62370477E-04 -3.93228479E-04 -2.54140968E-03  3.45388132E-03
  7.02661244E-05  1.47431139E-04  1.49702111E-04  2.02110622E-04  2.01984993E-04
  7.37014565E-07  5.58464667E-07  3.95270270E-08 -3.96806542E-05 -6.21624252E-04
 -2.59113686E-03  1.84301619E-04  9.22741446E-07 -5.23776608E-05 -4.02221528E-05
 -5.92672187E-04 -2.79802309E-03  1.87019744E-04  4.35427855E-05  2.45694404E-05
 -3.88073790E-05 -6.18509605E-04 -2.71720668E-03  1.87775572E-04 -4.53419675E-05
  2.62864477E-05 -1.38250452E-04 -6.90971591E-04  2.53921764E-05  2.16337220E-06