 Entering Gaussian System, Link 0=g16
 Initial command:
 /usr/local/g16_AVX//g16/l1.exe "/scratch/alanqf/0010-54452.ixchel.mda.cinvestav.mx/Gau-16062.inp" -scrdir="/scratch/alanqf/0010-54452.ixchel.mda.cinvestav.mx/"
 Entering Link 1 = /usr/local/g16_AVX//g16/l1.exe PID=     16063.
  
 Copyright (c) 1988-2017, Gaussian, Inc.  All Rights Reserved.
  
 This is part of the Gaussian(R) 16 program.  It is based on
 the Gaussian(R) 09 system (copyright 2009, Gaussian, Inc.),
 the Gaussian(R) 03 system (copyright 2003, Gaussian, Inc.),
 the Gaussian(R) 98 system (copyright 1998, Gaussian, Inc.),
 the Gaussian(R) 94 system (copyright 1995, Gaussian, Inc.),
 the Gaussian 92(TM) system (copyright 1992, Gaussian, Inc.),
 the Gaussian 90(TM) system (copyright 1990, Gaussian, Inc.),
 the Gaussian 88(TM) system (copyright 1988, Gaussian, Inc.),
 the Gaussian 86(TM) system (copyright 1986, Carnegie Mellon
 University), and the Gaussian 82(TM) system (copyright 1983,
 Carnegie Mellon University). Gaussian is a federally registered
 trademark of Gaussian, Inc.
  
 This software contains proprietary and confidential information,
 including trade secrets, belonging to Gaussian, Inc.
  
 This software is provided under written license and may be
 used, copied, transmitted, or stored only in accord with that
 written license.
  
 The following legend is applicable only to US Government
 contracts under FAR:
  
                    RESTRICTED RIGHTS LEGEND
  
 Use, reproduction and disclosure by the US Government is
 subject to restrictions as set forth in subparagraphs (a)
 and (c) of the Commercial Computer Software - Restricted
 Rights clause in FAR 52.227-19.
  
 Gaussian, Inc.
 340 Quinnipiac St., Bldg. 40, Wallingford CT 06492
  
  
 ---------------------------------------------------------------
 Warning -- This program may not be used in any manner that
 competes with the business of Gaussian, Inc. or will provide
 assistance to any competitor of Gaussian, Inc.  The licensee
 of this program is prohibited from giving any competitor of
 Gaussian, Inc. access to this program.  By using this program,
 the user acknowledges that Gaussian, Inc. is engaged in the
 business of creating and licensing software in the field of
 computational chemistry and represents and warrants to the
 licensee that it is not a competitor of Gaussian, Inc. and that
 it will not use this program in any manner prohibited above.
 ---------------------------------------------------------------
  

 Cite this work as:
 Gaussian 16, Revision B.01,
 M. J. Frisch, G. W. Trucks, H. B. Schlegel, G. E. Scuseria, 
 M. A. Robb, J. R. Cheeseman, G. Scalmani, V. Barone, 
 G. A. Petersson, H. Nakatsuji, X. Li, M. Caricato, A. V. Marenich, 
 J. Bloino, B. G. Janesko, R. Gomperts, B. Mennucci, H. P. Hratchian, 
 J. V. Ortiz, A. F. Izmaylov, J. L. Sonnenberg, D. Williams-Young, 
 F. Ding, F. Lipparini, F. Egidi, J. Goings, B. Peng, A. Petrone, 
 T. Henderson, D. Ranasinghe, V. G. Zakrzewski, J. Gao, N. Rega, 
 G. Zheng, W. Liang, M. Hada, M. Ehara, K. Toyota, R. Fukuda, 
 J. Hasegawa, M. Ishida, T. Nakajima, Y. Honda, O. Kitao, H. Nakai, 
 T. Vreven, K. Throssell, J. A. Montgomery, Jr., J. E. Peralta, 
 F. Ogliaro, M. J. Bearpark, J. J. Heyd, E. N. Brothers, K. N. Kudin, 
 V. N. Staroverov, T. A. Keith, R. Kobayashi, J. Normand, 
 K. Raghavachari, A. P. Rendell, J. C. Burant, S. S. Iyengar, 
 J. Tomasi, M. Cossi, J. M. Millam, M. Klene, C. Adamo, R. Cammi, 
 J. W. Ochterski, R. L. Martin, K. Morokuma, O. Farkas, 
 J. B. Foresman, and D. J. Fox, Gaussian, Inc., Wallingford CT, 2016.
 
 ******************************************
 Gaussian 16:  ES64L-G16RevB.01 20-Dec-2017
                13-Oct-2024 
 ******************************************
 %NProcShared=26
 Will use up to   26 processors via shared memory.
 %MEM=20GB
 %chk=CHKfiles/0010.chk
 ---------------------------------------------------------------------
 #p b3lyp 6-31++g(d,p) scf=verytight NoSymm freq=noraman int=ultrafine
 ---------------------------------------------------------------------
 1/10=4,30=1,38=1/1,3;
 2/12=2,15=1,17=6,18=5,40=1/2;
 3/5=1,6=6,7=1111,11=2,25=1,30=1,71=2,74=-5,75=-5,140=1/1,2,3;
 4//1;
 5/5=2,17=3,38=5,98=1/2;
 8/6=4,10=90,11=11/1;
 11/6=1,8=1,9=11,15=111,16=1,31=1/1,2,10;
 10/6=1,31=1/2;
 6/7=2,8=2,9=2,10=2,28=1/1;
 7/8=1,10=1,25=1,30=1/1,2,3,16;
 1/10=4,30=1/3;
 99//99;
 Leave Link    1 at Sun Oct 13 09:46:37 2024, MaxMem=  2684354560 cpu:               1.5 elap:               0.1
 (Enter /usr/local/g16_AVX//g16/l101.exe)
 ------------------------
 RxCoord=-9.08643 DE=0.24
 ------------------------
 Symbolic Z-matrix:
 Charge = -1 Multiplicity = 1
 C                     0.8944    0.00044   0.0062 
 Cl                   -2.56591   0.00001  -0.00235 
 H                     0.5118    0.00239  -1.01639 
 H                     0.51724   0.88597   0.52091 
 H                     0.51697  -0.88766   0.51709 
 C                     2.35206  -0.00116   0.00056 
 N                     3.51433   0.00056  -0.00147 
 
 ITRead=  0  0  0  0  0  0  0
 MicOpt= -1 -1 -1 -1 -1 -1 -1
 NAtoms=      7 NQM=        7 NQMF=       0 NMMI=      0 NMMIF=      0
                NMic=       0 NMicF=      0.
                    Isotopes and Nuclear Properties:
 (Nuclear quadrupole moments (NQMom) in fm**2, nuclear magnetic moments (NMagM)
  in nuclear magnetons)

  Atom         1           2           3           4           5           6           7
 IAtWgt=          12          35           1           1           1          12          14
 AtmWgt=  12.0000000  34.9688527   1.0078250   1.0078250   1.0078250  12.0000000  14.0030740
 NucSpn=           0           3           1           1           1           0           2
 AtZEff=  -0.0000000  -0.0000000  -0.0000000  -0.0000000  -0.0000000  -0.0000000  -0.0000000
 NQMom=    0.0000000  -8.1650000   0.0000000   0.0000000   0.0000000   0.0000000   2.0440000
 NMagM=    0.0000000   0.8218740   2.7928460   2.7928460   2.7928460   0.0000000   0.4037610
 AtZNuc=   6.0000000  17.0000000   1.0000000   1.0000000   1.0000000   6.0000000   7.0000000
 Leave Link  101 at Sun Oct 13 09:46:37 2024, MaxMem=  2684354560 cpu:               2.8 elap:               0.2
 (Enter /usr/local/g16_AVX//g16/l103.exe)

 GradGradGradGradGradGradGradGradGradGradGradGradGradGradGradGradGradGrad
 Berny optimization.
 Initialization pass.
 Trust Radius=3.00D-01 FncErr=1.00D-07 GrdErr=1.00D-07 EigMax=2.50D+02 EigMin=1.00D-04
 Number of steps in this run=      2 maximum allowed number of steps=      2.
 GradGradGradGradGradGradGradGradGradGradGradGradGradGradGradGradGradGrad

 Leave Link  103 at Sun Oct 13 09:46:37 2024, MaxMem=  2684354560 cpu:               0.5 elap:               0.1
 (Enter /usr/local/g16_AVX//g16/l202.exe)
                          Input orientation:                          
 ---------------------------------------------------------------------
 Center     Atomic      Atomic             Coordinates (Angstroms)
 Number     Number       Type             X           Y           Z
 ---------------------------------------------------------------------
      1          6           0        0.894395    0.000437    0.006197
      2         17           0       -2.565913    0.000005   -0.002354
      3          1           0        0.511797    0.002387   -1.016394
      4          1           0        0.517238    0.885969    0.520909
      5          1           0        0.516967   -0.887655    0.517085
      6          6           0        2.352063   -0.001160    0.000564
      7          7           0        3.514330    0.000556   -0.001470
 ---------------------------------------------------------------------
                    Distance matrix (angstroms):
                    1          2          3          4          5
     1  C    0.000000
     2  Cl   3.460319   0.000000
     3  H    1.091823   3.240460   0.000000
     4  H    1.091486   3.250316   1.773146   0.000000
     5  H    1.091863   3.249909   1.773065   1.773628   0.000000
     6  C    1.457680   4.917977   2.102569   2.103411   2.102438
     7  N    2.619946   6.080243   3.169429   3.168501   3.168912
                    6          7
     6  C    0.000000
     7  N    1.162270   0.000000
 Symmetry turned off by external request.
 Stoichiometry    C2H3ClN(1-)
 Framework group  C1[X(C2H3ClN)]
 Deg. of freedom    15
 Full point group                 C1      NOp   1
 Rotational constants (GHZ):         159.4326905           1.0494832           1.0494819
 Leave Link  202 at Sun Oct 13 09:46:37 2024, MaxMem=  2684354560 cpu:               0.2 elap:               0.0
 (Enter /usr/local/g16_AVX//g16/l301.exe)
 Standard basis: 6-31++G(d,p) (6D, 7F)
 Ernie: Thresh=  0.10000D-02 Tol=  0.10000D-05 Strict=F.
    98 basis functions,   176 primitive gaussians,    98 cartesian basis functions
    20 alpha electrons       20 beta electrons
       nuclear repulsion energy       103.5739001494 Hartrees.
 IExCor=  402 DFT=T Ex+Corr=B3LYP ExCW=0 ScaHFX=  0.200000
 ScaDFX=  0.800000  0.720000  1.000000  0.810000 ScalE2=  1.000000  1.000000
 IRadAn=      5 IRanWt=     -1 IRanGd=            0 ICorTp=0 IEmpDi=  4
 NAtoms=    7 NActive=    7 NUniq=    7 SFac= 1.00D+00 NAtFMM=   60 NAOKFM=F Big=F
 Integral buffers will be    131072 words long.
 Raffenetti 2 integral format.
 Two-electron integral symmetry is turned off.
 Leave Link  301 at Sun Oct 13 09:46:37 2024, MaxMem=  2684354560 cpu:               1.4 elap:               0.1
 (Enter /usr/local/g16_AVX//g16/l302.exe)
 NPDir=0 NMtPBC=     1 NCelOv=     1 NCel=       1 NClECP=     1 NCelD=      1
         NCelK=      1 NCelE2=     1 NClLst=     1 CellRange=     0.0.
 One-electron integrals computed using PRISM.
 NBasis=    98 RedAO= T EigKep=  1.70D-05  NBF=    98
 NBsUse=    98 1.00D-06 EigRej= -1.00D+00 NBFU=    98
 Precomputing XC quadrature grid using
 IXCGrd= 4 IRadAn=           5 IRanWt=          -1 IRanGd=           0 AccXCQ= 0.00D+00.
 Generated NRdTot=       0 NPtTot=           0 NUsed=           0 NTot=          32
 NSgBfM=    98    98    98    98    98 MxSgAt=     7 MxSgA2=     7.
 Leave Link  302 at Sun Oct 13 09:46:38 2024, MaxMem=  2684354560 cpu:               3.9 elap:               0.2
 (Enter /usr/local/g16_AVX//g16/l303.exe)
 DipDrv:  MaxL=1.
 Leave Link  303 at Sun Oct 13 09:46:38 2024, MaxMem=  2684354560 cpu:               0.7 elap:               0.1
 (Enter /usr/local/g16_AVX//g16/l401.exe)
 ExpMin= 3.60D-02 ExpMax= 2.52D+04 ExpMxC= 3.78D+03 IAcc=3 IRadAn=         5 AccDes= 0.00D+00
 Harris functional with IExCor=  402 and IRadAn=       5 diagonalized for initial guess.
 HarFok:  IExCor=  402 AccDes= 0.00D+00 IRadAn=         5 IDoV= 1 UseB2=F ITyADJ=14
 ICtDFT=  3500011 ScaDFX=  1.000000  1.000000  1.000000  1.000000
 FoFCou: FMM=F IPFlag=           0 FMFlag=      100000 FMFlg1=           0
         NFxFlg=           0 DoJE=T BraDBF=F KetDBF=T FulRan=T
         wScrn=  0.000000 ICntrl=       500 IOpCl=  0 I1Cent=   200000004 NGrid=           0
         NMat0=    1 NMatS0=      1 NMatT0=    0 NMatD0=    1 NMtDS0=    0 NMtDT0=    0
 Symmetry not used in FoFCou.
 Harris En= -593.114134615894    
 JPrj=0 DoOrth=F DoCkMO=F.
 Leave Link  401 at Sun Oct 13 09:46:38 2024, MaxMem=  2684354560 cpu:               5.8 elap:               0.3
 (Enter /usr/local/g16_AVX//g16/l502.exe)
 Keep R1 ints in memory in canonical form, NReq=35752935.
 FoFCou: FMM=F IPFlag=           0 FMFlag=           0 FMFlg1=           0
         NFxFlg=           0 DoJE=F BraDBF=F KetDBF=F FulRan=T
         wScrn=  0.000000 ICntrl=       600 IOpCl=  0 I1Cent=           0 NGrid=           0
         NMat0=    1 NMatS0=   4851 NMatT0=    0 NMatD0=    1 NMtDS0=    0 NMtDT0=    0
 Symmetry not used in FoFCou.
 Two-electron integral symmetry not used.
 Closed shell SCF:
 Using DIIS extrapolation, IDIIS=  1040.
 NGot=  2684354560 LenX=  2672563405 LenY=  2672553360
 Requested convergence on RMS density matrix=1.00D-08 within 128 cycles.
 Requested convergence on MAX density matrix=1.00D-06.
 Requested convergence on             energy=1.00D-06.
 No special actions if energy rises.

 Cycle   1  Pass 1  IDiag  1:
 E= -592.950297977217    
 DIIS: error= 2.71D-02 at cycle   1 NSaved=   1.
 NSaved= 1 IEnMin= 1 EnMin= -592.950297977217     IErMin= 1 ErrMin= 2.71D-02
 ErrMax= 2.71D-02  0.00D+00 EMaxC= 1.00D-01 BMatC= 1.03D-01 BMatP= 1.03D-01
 IDIUse=3 WtCom= 7.29D-01 WtEn= 2.71D-01
 Coeff-Com:  0.100D+01
 Coeff-En:   0.100D+01
 Coeff:      0.100D+01
 Gap=     0.160 Goal=   None    Shift=    0.000
 GapD=    0.160 DampG=1.000 DampE=0.500 DampFc=0.5000 IDamp=-1.
 Damping current iteration by 5.00D-01
 RMSDP=1.09D-02 MaxDP=1.84D-01              OVMax= 1.79D-01

 Cycle   2  Pass 1  IDiag  1:
 E= -592.989275918576     Delta-E=       -0.038977941359 Rises=F Damp=T
 DIIS: error= 1.71D-02 at cycle   2 NSaved=   2.
 NSaved= 2 IEnMin= 2 EnMin= -592.989275918576     IErMin= 2 ErrMin= 1.71D-02
 ErrMax= 1.71D-02  0.00D+00 EMaxC= 1.00D-01 BMatC= 1.49D-02 BMatP= 1.03D-01
 IDIUse=3 WtCom= 8.29D-01 WtEn= 1.71D-01
 Coeff-Com:  0.164D+00 0.836D+00
 Coeff-En:   0.249D+00 0.751D+00
 Coeff:      0.178D+00 0.822D+00
 Gap=     0.144 Goal=   None    Shift=    0.000
 RMSDP=4.56D-03 MaxDP=1.50D-01 DE=-3.90D-02 OVMax= 1.43D-01

 Cycle   3  Pass 1  IDiag  1:
 E= -593.041834334027     Delta-E=       -0.052558415451 Rises=F Damp=F
 DIIS: error= 1.43D-02 at cycle   3 NSaved=   3.
 NSaved= 3 IEnMin= 3 EnMin= -593.041834334027     IErMin= 3 ErrMin= 1.43D-02
 ErrMax= 1.43D-02  0.00D+00 EMaxC= 1.00D-01 BMatC= 1.94D-02 BMatP= 1.49D-02
 IDIUse=2 WtCom= 0.00D+00 WtEn= 1.00D+00
 Coeff-En:   0.000D+00 0.000D+00 0.100D+01
 Coeff:      0.000D+00 0.000D+00 0.100D+01
 Gap=     0.149 Goal=   None    Shift=    0.000
 RMSDP=7.06D-03 MaxDP=2.58D-01 DE=-5.26D-02 OVMax= 1.63D-01

 Cycle   4  Pass 1  IDiag  1:
 E= -592.947531683199     Delta-E=        0.094302650829 Rises=F Damp=F
 DIIS: error= 3.27D-02 at cycle   4 NSaved=   4.
 NSaved= 4 IEnMin= 3 EnMin= -593.041834334027     IErMin= 3 ErrMin= 1.43D-02
 ErrMax= 3.27D-02  0.00D+00 EMaxC= 1.00D-01 BMatC= 1.25D-01 BMatP= 1.49D-02
 IDIUse=2 WtCom= 0.00D+00 WtEn= 1.00D+00
 Coeff-En:   0.000D+00 0.000D+00 0.802D+00 0.198D+00
 Coeff:      0.000D+00 0.000D+00 0.802D+00 0.198D+00
 Gap=     0.148 Goal=   None    Shift=    0.000
 RMSDP=3.18D-03 MaxDP=1.11D-01 DE= 9.43D-02 OVMax= 8.36D-02

 Cycle   5  Pass 1  IDiag  1:
 E= -593.050462226897     Delta-E=       -0.102930543698 Rises=F Damp=F
 DIIS: error= 9.40D-03 at cycle   5 NSaved=   5.
 NSaved= 5 IEnMin= 5 EnMin= -593.050462226897     IErMin= 5 ErrMin= 9.40D-03
 ErrMax= 9.40D-03  0.00D+00 EMaxC= 1.00D-01 BMatC= 1.04D-02 BMatP= 1.49D-02
 IDIUse=3 WtCom= 9.06D-01 WtEn= 9.40D-02
 Coeff-Com: -0.948D-03 0.196D-01 0.325D+00-0.948D-01 0.751D+00
 Coeff-En:   0.000D+00 0.000D+00 0.384D+00 0.000D+00 0.616D+00
 Coeff:     -0.859D-03 0.177D-01 0.330D+00-0.858D-01 0.738D+00
 Gap=     0.149 Goal=   None    Shift=    0.000
 RMSDP=1.38D-03 MaxDP=4.87D-02 DE=-1.03D-01 OVMax= 3.25D-02

 Cycle   6  Pass 1  IDiag  1:
 E= -593.059789081860     Delta-E=       -0.009326854963 Rises=F Damp=F
 DIIS: error= 1.73D-04 at cycle   6 NSaved=   6.
 NSaved= 6 IEnMin= 6 EnMin= -593.059789081860     IErMin= 6 ErrMin= 1.73D-04
 ErrMax= 1.73D-04  0.00D+00 EMaxC= 1.00D-01 BMatC= 5.51D-06 BMatP= 1.04D-02
 IDIUse=3 WtCom= 9.98D-01 WtEn= 1.73D-03
 Coeff-Com: -0.202D-02 0.809D-02 0.118D+00-0.477D-01 0.321D+00 0.603D+00
 Coeff-En:   0.000D+00 0.000D+00 0.000D+00 0.000D+00 0.000D+00 0.100D+01
 Coeff:     -0.201D-02 0.808D-02 0.118D+00-0.476D-01 0.320D+00 0.604D+00
 Gap=     0.149 Goal=   None    Shift=    0.000
 RMSDP=3.58D-05 MaxDP=6.66D-04 DE=-9.33D-03 OVMax= 6.13D-04

 Cycle   7  Pass 1  IDiag  1:
 E= -593.059794212815     Delta-E=       -0.000005130955 Rises=F Damp=F
 DIIS: error= 7.07D-05 at cycle   7 NSaved=   7.
 NSaved= 7 IEnMin= 7 EnMin= -593.059794212815     IErMin= 7 ErrMin= 7.07D-05
 ErrMax= 7.07D-05  0.00D+00 EMaxC= 1.00D-01 BMatC= 5.23D-07 BMatP= 5.51D-06
 IDIUse=1 WtCom= 1.00D+00 WtEn= 0.00D+00
 Coeff-Com: -0.394D-03 0.135D-02 0.202D-01-0.107D-01 0.600D-01 0.190D+00
 Coeff-Com:  0.739D+00
 Coeff:     -0.394D-03 0.135D-02 0.202D-01-0.107D-01 0.600D-01 0.190D+00
 Coeff:      0.739D+00
 Gap=     0.149 Goal=   None    Shift=    0.000
 RMSDP=1.26D-05 MaxDP=3.62D-04 DE=-5.13D-06 OVMax= 2.49D-04

 Cycle   8  Pass 1  IDiag  1:
 E= -593.059794709821     Delta-E=       -0.000000497006 Rises=F Damp=F
 DIIS: error= 1.24D-05 at cycle   8 NSaved=   8.
 NSaved= 8 IEnMin= 8 EnMin= -593.059794709821     IErMin= 8 ErrMin= 1.24D-05
 ErrMax= 1.24D-05  0.00D+00 EMaxC= 1.00D-01 BMatC= 1.60D-08 BMatP= 5.23D-07
 IDIUse=1 WtCom= 1.00D+00 WtEn= 0.00D+00
 Coeff-Com:  0.150D-04-0.844D-04 0.382D-02-0.198D-02 0.105D-01 0.477D-01
 Coeff-Com:  0.264D+00 0.676D+00
 Coeff:      0.150D-04-0.844D-04 0.382D-02-0.198D-02 0.105D-01 0.477D-01
 Coeff:      0.264D+00 0.676D+00
 Gap=     0.149 Goal=   None    Shift=    0.000
 RMSDP=6.72D-06 MaxDP=2.18D-04 DE=-4.97D-07 OVMax= 3.92D-05

 Cycle   9  Pass 1  IDiag  1:
 E= -593.059794727522     Delta-E=       -0.000000017701 Rises=F Damp=F
 DIIS: error= 2.06D-06 at cycle   9 NSaved=   9.
 NSaved= 9 IEnMin= 9 EnMin= -593.059794727522     IErMin= 9 ErrMin= 2.06D-06
 ErrMax= 2.06D-06  0.00D+00 EMaxC= 1.00D-01 BMatC= 5.42D-10 BMatP= 1.60D-08
 IDIUse=1 WtCom= 1.00D+00 WtEn= 0.00D+00
 Coeff-Com:  0.308D-04-0.702D-04-0.576D-03 0.857D-04-0.126D-02-0.916D-03
 Coeff-Com:  0.126D-01 0.170D+00 0.820D+00
 Coeff:      0.308D-04-0.702D-04-0.576D-03 0.857D-04-0.126D-02-0.916D-03
 Coeff:      0.126D-01 0.170D+00 0.820D+00
 Gap=     0.149 Goal=   None    Shift=    0.000
 RMSDP=9.30D-07 MaxDP=3.33D-05 DE=-1.77D-08 OVMax= 6.64D-06

 Cycle  10  Pass 1  IDiag  1:
 E= -593.059794728079     Delta-E=       -0.000000000557 Rises=F Damp=F
 DIIS: error= 2.62D-07 at cycle  10 NSaved=  10.
 NSaved=10 IEnMin=10 EnMin= -593.059794728079     IErMin=10 ErrMin= 2.62D-07
 ErrMax= 2.62D-07  0.00D+00 EMaxC= 1.00D-01 BMatC= 1.17D-11 BMatP= 5.42D-10
 IDIUse=1 WtCom= 1.00D+00 WtEn= 0.00D+00
 Coeff-Com:  0.717D-05-0.191D-04-0.106D-03 0.522D-04-0.295D-03-0.307D-03
 Coeff-Com: -0.282D-02 0.190D-01 0.152D+00 0.833D+00
 Coeff:      0.717D-05-0.191D-04-0.106D-03 0.522D-04-0.295D-03-0.307D-03
 Coeff:     -0.282D-02 0.190D-01 0.152D+00 0.833D+00
 Gap=     0.149 Goal=   None    Shift=    0.000
 RMSDP=6.91D-08 MaxDP=1.68D-06 DE=-5.57D-10 OVMax= 1.16D-06

 Cycle  11  Pass 1  IDiag  1:
 E= -593.059794728090     Delta-E=       -0.000000000012 Rises=F Damp=F
 DIIS: error= 6.29D-08 at cycle  11 NSaved=  11.
 NSaved=11 IEnMin=11 EnMin= -593.059794728090     IErMin=11 ErrMin= 6.29D-08
 ErrMax= 6.29D-08  0.00D+00 EMaxC= 1.00D-01 BMatC= 3.66D-13 BMatP= 1.17D-11
 IDIUse=1 WtCom= 1.00D+00 WtEn= 0.00D+00
 Coeff-Com: -0.926D-06 0.197D-05-0.690D-05 0.218D-05-0.755D-05-0.252D-04
 Coeff-Com: -0.688D-03-0.251D-02-0.447D-02 0.302D-01 0.977D+00
 Coeff:     -0.926D-06 0.197D-05-0.690D-05 0.218D-05-0.755D-05-0.252D-04
 Coeff:     -0.688D-03-0.251D-02-0.447D-02 0.302D-01 0.977D+00
 Gap=     0.149 Goal=   None    Shift=    0.000
 RMSDP=5.97D-08 MaxDP=2.31D-06 DE=-1.16D-11 OVMax= 1.95D-07

 Cycle  12  Pass 1  IDiag  1:
 E= -593.059794728092     Delta-E=       -0.000000000002 Rises=F Damp=F
 DIIS: error= 1.04D-08 at cycle  12 NSaved=  12.
 NSaved=12 IEnMin=12 EnMin= -593.059794728092     IErMin=12 ErrMin= 1.04D-08
 ErrMax= 1.04D-08  0.00D+00 EMaxC= 1.00D-01 BMatC= 3.47D-15 BMatP= 3.66D-13
 IDIUse=1 WtCom= 1.00D+00 WtEn= 0.00D+00
 Coeff-Com: -0.397D-06 0.846D-06-0.555D-06-0.462D-07 0.180D-05-0.591D-05
 Coeff-Com: -0.158D-03-0.921D-03-0.321D-02 0.328D-02 0.283D+00 0.718D+00
 Coeff:     -0.397D-06 0.846D-06-0.555D-06-0.462D-07 0.180D-05-0.591D-05
 Coeff:     -0.158D-03-0.921D-03-0.321D-02 0.328D-02 0.283D+00 0.718D+00
 Gap=     0.149 Goal=   None    Shift=    0.000
 RMSDP=1.46D-08 MaxDP=5.86D-07 DE=-1.82D-12 OVMax= 2.21D-08

 Cycle  13  Pass 1  IDiag  1:
 E= -593.059794728092     Delta-E=        0.000000000000 Rises=F Damp=F
 DIIS: error= 1.35D-09 at cycle  13 NSaved=  13.
 NSaved=13 IEnMin=12 EnMin= -593.059794728092     IErMin=13 ErrMin= 1.35D-09
 ErrMax= 1.35D-09  0.00D+00 EMaxC= 1.00D-01 BMatC= 1.74D-16 BMatP= 3.47D-15
 IDIUse=1 WtCom= 1.00D+00 WtEn= 0.00D+00
 Coeff-Com: -0.188D-07 0.296D-07 0.276D-06-0.681D-07 0.495D-06-0.233D-05
 Coeff-Com:  0.718D-05-0.154D-04-0.359D-03 0.937D-03-0.112D-01 0.960D-01
 Coeff-Com:  0.915D+00
 Coeff:     -0.188D-07 0.296D-07 0.276D-06-0.681D-07 0.495D-06-0.233D-05
 Coeff:      0.718D-05-0.154D-04-0.359D-03 0.937D-03-0.112D-01 0.960D-01
 Coeff:      0.915D+00
 Gap=     0.149 Goal=   None    Shift=    0.000
 RMSDP=2.15D-09 MaxDP=8.20D-08 DE= 0.00D+00 OVMax= 6.31D-09

 SCF Done:  E(RB3LYP) =  -593.059794728     A.U. after   13 cycles
            NFock= 13  Conv=0.22D-08     -V/T= 2.0047
 KE= 5.902656506092D+02 PE=-1.617239340816D+03 EE= 3.303399953290D+02
 Leave Link  502 at Sun Oct 13 09:46:40 2024, MaxMem=  2684354560 cpu:              38.5 elap:               1.8
 (Enter /usr/local/g16_AVX//g16/l801.exe)
 DoSCS=F DFT=T ScalE2(SS,OS)=  1.000000  1.000000
 Range of M.O.s used for correlation:     1    98
 NBasis=    98 NAE=    20 NBE=    20 NFC=     0 NFV=     0
 NROrb=     98 NOA=    20 NOB=    20 NVA=    78 NVB=    78

 **** Warning!!: The largest alpha MO coefficient is  0.12198644D+03

 Leave Link  801 at Sun Oct 13 09:46:40 2024, MaxMem=  2684354560 cpu:               0.7 elap:               0.1
 (Enter /usr/local/g16_AVX//g16/l1101.exe)
 Using compressed storage, NAtomX=     7.
 Will process      8 centers per pass.
 Leave Link 1101 at Sun Oct 13 09:46:40 2024, MaxMem=  2684354560 cpu:               3.4 elap:               0.2
 (Enter /usr/local/g16_AVX//g16/l1102.exe)
 Symmetrizing basis deriv contribution to polar:
 IMax=3 JMax=2 DiffMx= 0.00D+00
 Leave Link 1102 at Sun Oct 13 09:46:40 2024, MaxMem=  2684354560 cpu:               0.7 elap:               0.1
 (Enter /usr/local/g16_AVX//g16/l1110.exe)
 Forming Gx(P) for the SCF density, NAtomX=     7.
 Integral derivatives from FoFJK, PRISM(SPDF).
 Do as many integral derivatives as possible in FoFJK.
 G2DrvN: MDV=    2684353864.
 G2DrvN: will do     8 centers at a time, making    1 passes.
 Calling FoFCou, ICntrl=  3107 FMM=F I1Cent=   0 AccDes= 0.00D+00.
 FoFJK:  IHMeth= 1 ICntrl=    3107 DoSepK=F KAlg= 0 I1Cent=           0 FoldK=F
 IRaf=         0 NMat=       1 IRICut=       1 DoRegI=T DoRafI=F ISym2E= 0 IDoP0=0 IntGTp=1.
 FoFCou: FMM=F IPFlag=           0 FMFlag=      100000 FMFlg1=           0
         NFxFlg=           0 DoJE=F BraDBF=F KetDBF=F FulRan=T
         wScrn=  0.000000 ICntrl=      3107 IOpCl=  0 I1Cent=           0 NGrid=           0
         NMat0=    1 NMatS0=      1 NMatT0=    0 NMatD0=    1 NMtDS0=    0 NMtDT0=    0
 Symmetry not used in FoFCou.
 End of G2Drv F.D. properties file   721 does not exist.
 End of G2Drv F.D. properties file   722 does not exist.
 End of G2Drv F.D. properties file   788 does not exist.
 Leave Link 1110 at Sun Oct 13 09:46:42 2024, MaxMem=  2684354560 cpu:              39.5 elap:               1.6
 (Enter /usr/local/g16_AVX//g16/l1002.exe)
 Minotr:  Closed shell wavefunction.
          IDoAtm=1111111
          Direct CPHF calculation.
          Differentiating once with respect to electric field.
                with respect to dipole field.
          Differentiating once with respect to nuclear coordinates.
          Requested convergence is 1.0D-08 RMS, and 1.0D-07 maximum.
          Secondary convergence is 1.0D-12 RMS, and 1.0D-12 maximum.
          NewPWx=T KeepS1=F KeepF1=F KeepIn=T MapXYZ=F SortEE=F KeepMc=T.
         2136 words used for storage of precomputed grid.
 Keep R1 ints in memory in canonical form, NReq=35668397.
 FoFCou: FMM=F IPFlag=           0 FMFlag=           0 FMFlg1=           0
         NFxFlg=           0 DoJE=F BraDBF=F KetDBF=F FulRan=T
         wScrn=  0.000000 ICntrl=       600 IOpCl=  0 I1Cent=           0 NGrid=           0
         NMat0=    1 NMatS0=   4851 NMatT0=    0 NMatD0=    1 NMtDS0=    0 NMtDT0=    0
 Symmetry not used in FoFCou.
 Two-electron integral symmetry not used.
          MDV=    2684354560 using IRadAn=       1.
          Solving linear equations simultaneously, MaxMat=       0.
          There are    24 degrees of freedom in the 1st order CPHF.  IDoFFX=6 NUNeed=     3.
     21 vectors produced by pass  0 Test12= 6.50D-15 4.17D-09 XBig12= 6.89D+01 3.03D+00.
 AX will form    21 AO Fock derivatives at one time.
     21 vectors produced by pass  1 Test12= 6.50D-15 4.17D-09 XBig12= 4.90D+01 2.03D+00.
     21 vectors produced by pass  2 Test12= 6.50D-15 4.17D-09 XBig12= 2.02D+00 4.74D-01.
     21 vectors produced by pass  3 Test12= 6.50D-15 4.17D-09 XBig12= 8.56D-03 1.92D-02.
     21 vectors produced by pass  4 Test12= 6.50D-15 4.17D-09 XBig12= 1.02D-05 5.73D-04.
     18 vectors produced by pass  5 Test12= 6.50D-15 4.17D-09 XBig12= 1.78D-08 2.98D-05.
      5 vectors produced by pass  6 Test12= 6.50D-15 4.17D-09 XBig12= 4.09D-11 1.51D-06.
      3 vectors produced by pass  7 Test12= 6.50D-15 4.17D-09 XBig12= 7.23D-14 7.18D-08.
 InvSVY:  IOpt=1 It=  1 EMax= 8.38D-15
 Solved reduced A of dimension   131 with    24 vectors.
 FullF1:  Do perturbations      1 to       3.
 Isotropic polarizability for W=    0.000000       53.82 Bohr**3.
 End of Minotr F.D. properties file   721 does not exist.
 End of Minotr F.D. properties file   722 does not exist.
 End of Minotr F.D. properties file   788 does not exist.
 Leave Link 1002 at Sun Oct 13 09:46:44 2024, MaxMem=  2684354560 cpu:              54.7 elap:               2.2
 (Enter /usr/local/g16_AVX//g16/l601.exe)
 Copying SCF densities to generalized density rwf, IOpCl= 0 IROHF=0.

 **********************************************************************

            Population analysis using the SCF Density.

 **********************************************************************

 Alpha  occ. eigenvalues -- -101.25407 -14.23384 -10.13107 -10.10416  -9.16737
 Alpha  occ. eigenvalues --   -6.92518  -6.92518  -6.92515  -0.80340  -0.65027
 Alpha  occ. eigenvalues --   -0.50467  -0.38789  -0.33404  -0.33387  -0.26377
 Alpha  occ. eigenvalues --   -0.22263  -0.22257  -0.05213  -0.05085  -0.05085
 Alpha virt. eigenvalues --    0.09786   0.13175   0.13194   0.14120   0.14328
 Alpha virt. eigenvalues --    0.14336   0.19739   0.20263   0.20273   0.21935
 Alpha virt. eigenvalues --    0.22744   0.22778   0.24855   0.25834   0.25845
 Alpha virt. eigenvalues --    0.28519   0.32420   0.33143   0.33157   0.33752
 Alpha virt. eigenvalues --    0.33760   0.33936   0.39201   0.40461   0.48039
 Alpha virt. eigenvalues --    0.69574   0.78210   0.78220   0.83923   0.83956
 Alpha virt. eigenvalues --    0.84882   0.85096   0.85108   0.88143   0.98308
 Alpha virt. eigenvalues --    1.00879   1.01870   1.01885   1.09450   1.11221
 Alpha virt. eigenvalues --    1.11239   1.15476   1.15477   1.15959   1.15963
 Alpha virt. eigenvalues --    1.19151   1.23309   1.26621   1.44630   1.44638
 Alpha virt. eigenvalues --    1.53342   1.62104   1.62105   1.85544   1.85611
 Alpha virt. eigenvalues --    1.88363   2.04754   2.04799   2.13933   2.22662
 Alpha virt. eigenvalues --    2.22686   2.29360   2.39027   2.39033   2.74098
 Alpha virt. eigenvalues --    2.79418   2.79555   3.04199   3.08156   3.08230
 Alpha virt. eigenvalues --    3.27589   3.44318   3.54122   3.54183   4.24055
 Alpha virt. eigenvalues --    4.42899   4.56914   4.80120
          Condensed to atoms (all electrons):
               1          2          3          4          5          6
     1  C    5.818610  -0.087066   0.416184   0.421505   0.420056  -0.885267
     2  Cl  -0.087066  17.926773  -0.004050  -0.004027  -0.004031   0.110954
     3  H    0.416184  -0.004050   0.485369  -0.023438  -0.023453  -0.060188
     4  H    0.421505  -0.004027  -0.023438   0.486103  -0.023519  -0.065769
     5  H    0.420056  -0.004031  -0.023453  -0.023519   0.486704  -0.064724
     6  C   -0.885267   0.110954  -0.060188  -0.065769  -0.064724   6.582919
     7  N   -0.013428  -0.000058  -0.004474  -0.004450  -0.004343   0.421058
               7
     1  C   -0.013428
     2  Cl  -0.000058
     3  H   -0.004474
     4  H   -0.004450
     5  H   -0.004343
     6  C    0.421058
     7  N    7.178574
 Mulliken charges:
               1
     1  C   -0.090594
     2  Cl  -0.938497
     3  H    0.214049
     4  H    0.213594
     5  H    0.213309
     6  C   -0.038983
     7  N   -0.572879
 Sum of Mulliken charges =  -1.00000
 Mulliken charges with hydrogens summed into heavy atoms:
               1
     1  C    0.550359
     2  Cl  -0.938497
     6  C   -0.038983
     7  N   -0.572879
 APT charges:
               1
     1  C    0.009888
     2  Cl  -0.986378
     3  H    0.080936
     4  H    0.080111
     5  H    0.079863
     6  C    0.202330
     7  N   -0.466750
 Sum of APT charges =  -1.00000
 APT charges with hydrogens summed into heavy atoms:
               1
     1  C    0.250797
     2  Cl  -0.986378
     6  C    0.202330
     7  N   -0.466750
 Electronic spatial extent (au):  <R**2>=            978.7542
 Charge=             -1.0000 electrons
 Dipole moment (field-independent basis, Debye):
    X=              6.6770    Y=             -0.0010    Z=              0.0214  Tot=              6.6771
 Quadrupole moment (field-independent basis, Debye-Ang):
   XX=            -91.2552   YY=            -35.4605   ZZ=            -35.4617
   XY=             -0.0043   XZ=             -0.0049   YZ=              0.0007
 Traceless Quadrupole moment (field-independent basis, Debye-Ang):
   XX=            -37.1961   YY=             18.5987   ZZ=             18.5974
   XY=             -0.0043   XZ=             -0.0049   YZ=              0.0007
 Octapole moment (field-independent basis, Debye-Ang**2):
  XXX=             -6.4988  YYY=             -0.0027  ZZZ=             -0.8397  XYY=              4.7177
  XXY=             -0.0138  XXZ=              0.1346  XZZ=              4.7100  YZZ=              0.0064
  YYZ=              0.8653  XYZ=              0.0006
 Hexadecapole moment (field-independent basis, Debye-Ang**3):
 XXXX=          -1990.3109 YYYY=            -58.3043 ZZZZ=            -58.3325 XXXY=             -0.0353
 XXXZ=             -0.2756 YYYX=              0.0046 YYYZ=              0.0017 ZZZX=             -0.7241
 ZZZY=              0.0011 XXYY=           -247.1568 XXZZ=           -247.1645 YYZZ=            -19.4231
 XXYZ=              0.0013 YYXZ=              0.2758 ZZXY=              0.0048
 N-N= 1.035739001494D+02 E-N=-1.617239340590D+03  KE= 5.902656506092D+02
  Exact polarizability:  78.208   0.017  41.619  -0.021  -0.001  41.632
 Approx polarizability:  96.577   0.052  49.755  -0.039  -0.003  49.770
 No NMR shielding tensors so no spin-rotation constants.
 Leave Link  601 at Sun Oct 13 09:46:44 2024, MaxMem=  2684354560 cpu:               2.7 elap:               0.1
 (Enter /usr/local/g16_AVX//g16/l701.exe)
 ... and contract with generalized density number  0.
 Compute integral second derivatives.
 Leave Link  701 at Sun Oct 13 09:46:44 2024, MaxMem=  2684354560 cpu:               4.6 elap:               0.2
 (Enter /usr/local/g16_AVX//g16/l702.exe)
 L702 exits ... SP integral derivatives will be done elsewhere.
 Leave Link  702 at Sun Oct 13 09:46:44 2024, MaxMem=  2684354560 cpu:               0.7 elap:               0.1
 (Enter /usr/local/g16_AVX//g16/l703.exe)
 Integral derivatives from FoFJK, PRISM(SPDF).
 Compute integral second derivatives, UseDBF=F ICtDFT=           0.
 Calling FoFJK, ICntrl=    100127 FMM=F ISym2X=0 I1Cent= 0 IOpClX= 0 NMat=1 NMatS=1 NMatT=0.
 FoFJK:  IHMeth= 1 ICntrl=  100127 DoSepK=F KAlg= 0 I1Cent=           0 FoldK=F
 IRaf=         0 NMat=       1 IRICut=       1 DoRegI=T DoRafI=F ISym2E= 0 IDoP0=0 IntGTp=1.
 FoFCou: FMM=F IPFlag=           0 FMFlag=      100000 FMFlg1=         800
         NFxFlg=           0 DoJE=F BraDBF=F KetDBF=F FulRan=T
         wScrn=  0.000000 ICntrl=    100127 IOpCl=  0 I1Cent=           0 NGrid=           0
         NMat0=    1 NMatS0=      1 NMatT0=    0 NMatD0=    1 NMtDS0=    0 NMtDT0=    0
 Symmetry not used in FoFCou.
 Leave Link  703 at Sun Oct 13 09:46:47 2024, MaxMem=  2684354560 cpu:              66.4 elap:               2.6
 (Enter /usr/local/g16_AVX//g16/l716.exe)
 Dipole        = 2.62695072D+00-4.02299918D-04 8.40616406D-03
 Polarizability= 7.82077111D+01 1.74121695D-02 4.16194252D+01
                -2.10293913D-02-1.12631275D-03 4.16319662D+01
 Full mass-weighted force constant matrix:
 Low frequencies ---  -61.2949  -60.4887   -0.0010    0.0001    0.0041   15.5980
 Low frequencies ---   15.7426   77.6003  126.5447
 ******    2 imaginary frequencies (negative Signs) ****** 
 Diagonal vibrational polarizability:
       93.1806027     174.8800799     170.5806896
 Harmonic frequencies (cm**-1), IR intensities (KM/Mole), Raman scattering
 activities (A**4/AMU), depolarization ratios for plane and unpolarized
 incident light, reduced masses (AMU), force constants (mDyne/A),
 and normal coordinates:
                      1                      2                      3
                      A                      A                      A
 Frequencies --    -57.2996               -56.4106                77.6003
 Red. masses --      3.5488                 3.5544                11.9247
 Frc consts  --      0.0069                 0.0067                 0.0423
 IR Inten    --     20.6897                20.6857                20.6254
  Atom  AN      X      Y      Z        X      Y      Z        X      Y      Z
     1   6     0.00   0.12   0.36     0.00   0.36  -0.12    -0.36   0.00  -0.00
     2  17     0.00  -0.02  -0.08    -0.00  -0.08   0.02     0.43  -0.00   0.00
     3   1    -0.27   0.15   0.46     0.09   0.46  -0.15    -0.37   0.00   0.00
     4   1     0.21   0.15   0.45     0.19   0.44  -0.13    -0.37  -0.00  -0.01
     5   1     0.06   0.14   0.44    -0.27   0.45  -0.16    -0.37   0.01  -0.01
     6   6    -0.00   0.01   0.02     0.00   0.02  -0.01    -0.37   0.00  -0.00
     7   7    -0.00  -0.08  -0.23     0.00  -0.23   0.08    -0.37  -0.00   0.00
                      4                      5                      6
                      A                      A                      A
 Frequencies --    371.6081               371.9995               921.3322
 Red. masses --      3.5561                 3.5562                 4.7383
 Frc consts  --      0.2893                 0.2899                 2.3698
 IR Inten    --      1.3659                 1.3508                 9.6397
  Atom  AN      X      Y      Z        X      Y      Z        X      Y      Z
     1   6    -0.00  -0.03  -0.05     0.00  -0.05   0.03     0.44   0.00  -0.00
     2  17    -0.00  -0.00  -0.00    -0.00  -0.00   0.00    -0.00  -0.00  -0.00
     3   1     0.50  -0.15  -0.24    -0.33  -0.24   0.16     0.48  -0.00  -0.01
     4   1    -0.54  -0.16  -0.23    -0.27  -0.24   0.15     0.47   0.01   0.00
     5   1     0.03  -0.15  -0.24     0.60  -0.24   0.16     0.48  -0.01   0.00
     6   6     0.00   0.22   0.34    -0.00   0.34  -0.22    -0.20   0.00   0.00
     7   7     0.00  -0.13  -0.20     0.00  -0.20   0.13    -0.30  -0.00   0.00
                      7                      8                      9
                      A                      A                      A
 Frequencies --   1022.4044              1023.0533              1366.7782
 Red. masses --      1.5086                 1.5070                 1.2243
 Frc consts  --      0.9291                 0.9293                 1.3475
 IR Inten    --      1.3225                 1.3065                33.3144
  Atom  AN      X      Y      Z        X      Y      Z        X      Y      Z
     1   6     0.00   0.03   0.16     0.00   0.16  -0.03    -0.14   0.00   0.00
     2  17     0.00  -0.00  -0.00    -0.00  -0.00   0.00     0.00   0.00   0.00
     3   1     0.70  -0.07  -0.12    -0.15  -0.32   0.02     0.52  -0.00  -0.24
     4   1    -0.48   0.06  -0.25    -0.53  -0.19   0.15     0.52   0.20   0.12
     5   1    -0.22  -0.13  -0.29     0.68  -0.15  -0.04     0.52  -0.20   0.12
     6   6    -0.00  -0.03  -0.13     0.00  -0.13   0.03     0.00  -0.00  -0.00
     7   7     0.00   0.00   0.02    -0.00   0.02  -0.00     0.01   0.00   0.00
                     10                     11                     12
                      A                      A                      A
 Frequencies --   1450.4606              1450.9404              2348.8766
 Red. masses --      1.0400                 1.0401                12.5194
 Frc consts  --      1.2891                 1.2901                40.6964
 IR Inten    --     13.4105                13.3618                44.6962
  Atom  AN      X      Y      Z        X      Y      Z        X      Y      Z
     1   6     0.00   0.02  -0.05     0.00  -0.05  -0.02    -0.09   0.00   0.00
     2  17     0.00   0.00  -0.00     0.00  -0.00  -0.00     0.00   0.00   0.00
     3   1     0.33  -0.25  -0.15     0.13   0.67  -0.06    -0.07  -0.00   0.02
     4   1    -0.06  -0.38   0.60    -0.35  -0.08  -0.18    -0.07  -0.02  -0.01
     5   1    -0.28   0.33   0.33     0.23   0.19   0.53    -0.07   0.02  -0.01
     6   6    -0.00   0.01  -0.02     0.00  -0.02  -0.01     0.79   0.00  -0.00
     7   7    -0.00  -0.00   0.00    -0.00   0.00   0.00    -0.59  -0.00   0.00
                     13                     14                     15
                      A                      A                      A
 Frequencies --   3081.9956              3163.6261              3166.2018
 Red. masses --      1.0336                 1.1031                 1.1032
 Frc consts  --      5.7847                 6.5048                 6.5161
 IR Inten    --      1.2736                 0.1772                 0.1744
  Atom  AN      X      Y      Z        X      Y      Z        X      Y      Z
     1   6    -0.05  -0.00  -0.00    -0.00   0.05  -0.08     0.00  -0.08  -0.05
     2  17    -0.00   0.00  -0.00    -0.00  -0.00   0.00     0.00   0.00   0.00
     3   1     0.20  -0.00   0.55     0.25   0.01   0.65     0.15  -0.02   0.39
     4   1     0.19  -0.46  -0.27     0.01  -0.01  -0.03    -0.29   0.67   0.39
     5   1     0.19   0.48  -0.28    -0.25  -0.58   0.32     0.13   0.30  -0.19
     6   6    -0.00  -0.00   0.00    -0.00  -0.00   0.00     0.00   0.00   0.00
     7   7     0.00  -0.00  -0.00     0.00   0.00  -0.00    -0.00  -0.00  -0.00

 -------------------
 - Thermochemistry -
 -------------------
 Temperature   298.150 Kelvin.  Pressure   1.00000 Atm.
 Atom     1 has atomic number  6 and mass  12.00000
 Atom     2 has atomic number 17 and mass  34.96885
 Atom     3 has atomic number  1 and mass   1.00783
 Atom     4 has atomic number  1 and mass   1.00783
 Atom     5 has atomic number  1 and mass   1.00783
 Atom     6 has atomic number  6 and mass  12.00000
 Atom     7 has atomic number  7 and mass  14.00307
 Molecular mass:    75.99540 amu.
 Principal axes and moments of inertia in atomic units:
                           1         2         3
     Eigenvalues --    11.319771719.647571719.64970
           X            1.00000  -0.00009  -0.00049
           Y           -0.00000   0.98426  -0.17670
           Z            0.00050   0.17670   0.98426
 This molecule is an asymmetric top.
 Rotational symmetry number  1.
 Rotational temperatures (Kelvin)      7.65156     0.05037     0.05037
 Rotational constants (GHZ):         159.43269     1.04948     1.04948
    2 imaginary frequencies ignored.
 Zero-point vibrational energy     118531.2 (Joules/Mol)
                                   28.32965 (Kcal/Mol)
 Warning -- explicit consideration of   3 degrees of freedom as
           vibrations may cause significant error
 Vibrational temperatures:    111.65   534.66   535.22  1325.59  1471.01
          (Kelvin)           1471.95  1966.49  2086.89  2087.58  3379.51
                             4434.30  4551.75  4555.46
 
 Zero-point correction=                           0.045146 (Hartree/Particle)
 Thermal correction to Energy=                    0.049571
 Thermal correction to Enthalpy=                  0.050515
 Thermal correction to Gibbs Free Energy=         0.017084
 Sum of electronic and zero-point Energies=           -593.014649
 Sum of electronic and thermal Energies=              -593.010224
 Sum of electronic and thermal Enthalpies=            -593.009280
 Sum of electronic and thermal Free Energies=         -593.042711
 
                     E (Thermal)             CV                S
                      KCal/Mol        Cal/Mol-Kelvin    Cal/Mol-Kelvin
 Total                   31.106             12.463             70.362
 Electronic               0.000              0.000              0.000
 Translational            0.889              2.981             38.900
 Rotational               0.889              2.981             25.018
 Vibrational             29.329              6.501              6.444
 Vibration     1          0.599              1.964              3.951
 Vibration     2          0.743              1.530              1.073
 Vibration     3          0.744              1.530              1.072
                       Q            Log10(Q)             Ln(Q)
 Total Bot       0.138720D-07         -7.857862        -18.093395
 Total V=0       0.808939D+13         12.907916         29.721574
 Vib (Bot)       0.813391D-20        -20.089701        -46.258245
 Vib (Bot)    1  0.265487D+01          0.424043          0.976396
 Vib (Bot)    2  0.489383D+00         -0.310351         -0.714610
 Vib (Bot)    3  0.488737D+00         -0.310925         -0.715931
 Vib (V=0)       0.474326D+01          0.676077          1.556724
 Vib (V=0)    1  0.320154D+01          0.505359          1.163633
 Vib (V=0)    2  0.119964D+01          0.079051          0.182021
 Vib (V=0)    3  0.119919D+01          0.078887          0.181645
 Electronic      0.100000D+01          0.000000          0.000000
 Translational   0.260396D+08          7.415635         17.075130
 Rotational      0.654944D+05          4.816204         11.089720
 
                                                       RxCoord=-9.08643 DE=0.24
                                                             IR Spectrum
 
     33  3                            2                                   1   1            1                                         
     11  0                            3                                   4   3            0    9                     3              
     66  8                            4                                   5   6            2    2                     7          7   
     64  2                            9                                   0   7            2    1                     2          8   
 
     XX  X                            X                                   X   X            X    X                     X          X   
                                      X                                   X   X                 X                                X   
                                      X                                   X   X                 X                                X   
                                      X                                   X   X                 X                                X   
                                      X                                   X   X                                                  X   
                                      X                                   X   X                                                  X   
                                      X                                   X   X                                                  X   
                                      X                                   X   X                                                  X   
                                      X                                   X   X                                                  X   
                                      X                                   X   X                                                      
                                      X                                   X   X                                                      
                                      X                                   X   X                                                      
                                      X                                       X                                                      
                                      X                                       X                                                      
                                      X                                       X                                                      
                                      X                                                                                              
                                      X                                                                                              
                                      X                                                                                              
                                      X                                                                                              
                                      X                                                                                              
 
 -------------------------------------------------------------------
 Center     Atomic                   Forces (Hartrees/Bohr)
 Number     Number              X              Y              Z
 -------------------------------------------------------------------
      1        6           0.002634296   -0.000446786   -0.000313224
      2       17           0.001518791    0.000002388    0.000001214
      3        1          -0.003076905    0.000012592    0.001263754
      4        1          -0.002974471   -0.000891828   -0.000495707
      5        1          -0.003042749    0.001119516   -0.000603596
      6        6           0.001370230    0.000323331    0.000253579
      7        7           0.003570808   -0.000119214   -0.000106020
 -------------------------------------------------------------------
 Cartesian Forces:  Max     0.003570808 RMS     0.001635842
 Z-matrix is all fixed cartesians, so copy forces.
 Force constants in Cartesian coordinates: 
                1             2             3             4             5 
      1  0.487421D+00
      2 -0.409661D-03  0.557465D+00
      3  0.214935D-04  0.551663D-03  0.556705D+00
      4 -0.343833D-02  0.603281D-05  0.122790D-04  0.434202D-02
      5  0.203152D-05 -0.394641D-03  0.135270D-05 -0.186762D-05  0.219350D-03
      6  0.618131D-05  0.137473D-05 -0.400972D-03  0.886270D-05  0.000000D+00
      7 -0.723633D-01  0.191204D-03 -0.901111D-01  0.342663D-03  0.197718D-05
      8  0.199136D-03 -0.412801D-01  0.460774D-03  0.325559D-05 -0.841400D-03
      9 -0.889692D-01  0.456961D-03 -0.292393D+00 -0.103177D-02 -0.208414D-05
     10 -0.714840D-01  0.771309D-01  0.448551D-01  0.327094D-03  0.825971D-03
     11  0.761757D-01 -0.230164D+00 -0.109839D+00  0.869304D-03  0.701585D-04
     12  0.443086D-01 -0.109843D+00 -0.104996D+00  0.513471D-03  0.520609D-03
     13 -0.715306D-01 -0.771145D-01  0.444068D-01  0.322968D-03 -0.826981D-03
     14 -0.761289D-01 -0.230585D+00  0.108855D+00 -0.874303D-03  0.767745D-04
     15  0.438603D-01  0.108863D+00 -0.103892D+00  0.512617D-03 -0.519056D-03
     16 -0.258318D+00  0.331272D-03  0.843252D-03  0.505251D-04 -0.116807D-05
     17  0.718282D-04 -0.762295D-01 -0.204227D-04 -0.153529D-05  0.964769D-03
     18  0.605829D-03 -0.212411D-04 -0.762400D-01 -0.267357D-04 -0.137981D-05
     19 -0.102868D-01 -0.135312D-03 -0.278440D-04 -0.194694D-02  0.000000D+00
     20  0.897973D-04  0.211878D-01 -0.948825D-05  0.000000D+00 -0.950116D-04
     21  0.166739D-03 -0.881970D-05  0.212169D-01  0.112716D-04  0.000000D+00
                6             7             8             9            10 
      6  0.216800D-03
      7 -0.966894D-03  0.836941D-01
      8 -0.239157D-05 -0.216032D-03  0.431208D-01
      9  0.350274D-03  0.989339D-01 -0.512093D-03  0.311621D+00
     10  0.483022D-03  0.445737D-02 -0.984185D-02 -0.464339D-02  0.826646D-01
     11  0.521091D-03 -0.938644D-03  0.624528D-03  0.129662D-02 -0.846731D-01
     12 -0.518261D-03  0.106642D-01 -0.241202D-01 -0.127047D-01 -0.492595D-01
     13  0.478827D-03  0.446449D-02  0.985493D-02 -0.460301D-02  0.439553D-02
     14 -0.519253D-03  0.890706D-03  0.513631D-03 -0.122902D-02 -0.879242D-02
     15 -0.522287D-03  0.106948D-01  0.241702D-01 -0.126238D-01 -0.620213D-02
     16 -0.562882D-05 -0.208478D-01  0.495661D-05 -0.291224D-02 -0.206224D-01
     17 -0.137858D-05  0.808971D-04 -0.326422D-02 -0.205897D-04  0.290090D-01
     18  0.972401D-03 -0.334338D-01 -0.175822D-05  0.725549D-02  0.168881D-01
     19 -0.437027D-05  0.252555D-03 -0.440161D-05  0.322570D-02  0.261854D-03
     20  0.000000D+00 -0.101083D-04  0.112683D-02  0.102052D-04 -0.365858D-02
     21 -0.979554D-04  0.421899D-02  0.543502D-05 -0.150525D-02 -0.212116D-02
               11            12            13            14            15 
     11  0.245022D+00
     12  0.117445D+00  0.111234D+00
     13  0.879246D-02 -0.614694D-02  0.827938D-01
     14 -0.192293D-01  0.126953D-01  0.847194D-01  0.245509D+00
     15 -0.128081D-01  0.723752D-02 -0.488117D-01 -0.116451D+00  0.110075D+00
     16  0.254983D-02  0.152116D-02 -0.206573D-01 -0.260646D-02  0.153770D-02
     17  0.449573D-02  0.441776D-02 -0.290965D-01  0.454055D-02 -0.436381D-02
     18  0.450409D-02 -0.735121D-03  0.167848D-01 -0.446878D-02 -0.766531D-03
     19 -0.277562D-02 -0.160095D-02  0.211103D-03  0.279195D-02 -0.159157D-02
     20 -0.819735D-03 -0.111568D-02  0.367121D-02 -0.825814D-03  0.110859D-02
     21 -0.111965D-02  0.482718D-03 -0.210881D-02  0.111730D-02  0.491585D-03
               16            17            18            19            20 
     16  0.155739D+01
     17  0.147529D-02  0.108210D+00
     18 -0.309142D-02 -0.204267D-04  0.108253D+00
     19 -0.123699D+01 -0.153895D-02  0.227325D-02  0.124850D+01
     20 -0.175372D-02 -0.387169D-01  0.949774D-05  0.166229D-02  0.181428D-01
     21  0.210718D-02  0.886937D-05 -0.387397D-01 -0.227422D-02 -0.381855D-05
               21 
     21  0.181517D-01
 Leave Link  716 at Sun Oct 13 09:46:47 2024, MaxMem=  2684354560 cpu:               0.9 elap:               0.1
 (Enter /usr/local/g16_AVX//g16/l103.exe)

 GradGradGradGradGradGradGradGradGradGradGradGradGradGradGradGradGradGrad
 Berny optimization.
 Search for a local minimum.
 Step number   1 out of a maximum of    2
 All quantities printed in internal units (Hartrees-Bohrs-Radians)
 Second derivative matrix not updated -- analytic derivatives used.
 ITU=  0
     Eigenvalues ---   -0.00052  -0.00050   0.00426   0.02471   0.02474
     Eigenvalues ---    0.09662   0.09670   0.09767   0.16278   0.16283
     Eigenvalues ---    0.28094   0.64846   0.81907   0.82082   2.66495
 Eigenvalue     1 is  -5.21D-04 should be greater than     0.000000 Eigenvector:
                          Z3        Z4        Z5        Z7        Z1
   1                    0.42318   0.41364   0.40687  -0.33968   0.31574
                          X3        Z2        X4        Y4        Y3
   1                   -0.28375  -0.24131   0.21944   0.13489   0.12730
 Eigenvalue     2 is  -5.05D-04 should be greater than     0.000000 Eigenvector:
                          Y5        Y4        Y3        Y7        Y1
   1                    0.41748   0.41324   0.41289  -0.33998   0.31599
                          X5        Y2        X4        Z5        Z3
   1                   -0.28977  -0.24136   0.20200  -0.13782  -0.13069
 Quadratic step=4.168D-01 exceeds max=3.000D-01 adjusted using Lamda=-1.723D-03.
 Angle between NR and scaled steps=   3.51 degrees.
 Angle between quadratic step and forces=  65.22 degrees.
 Linear search not attempted -- first point.
 B after Tr=     0.047552    0.000144   -0.000231
         Rot=    1.000000   -0.000000    0.000011    0.000014 Ang=  -0.00 deg.
 Variable       Old X    -DE/DX   Delta X   Delta X   Delta X     New X
                                 (Linear)    (Quad)   (Total)
    X1        1.69016   0.00263   0.00000  -0.06734  -0.01979   1.67038
    Y1        0.00083  -0.00045   0.00000  -0.00074  -0.00064   0.00019
    Z1        0.01171  -0.00031   0.00000  -0.00003  -0.00023   0.01148
    X2       -4.84887   0.00152   0.00000   0.19554   0.24309  -4.60578
    Y2        0.00001   0.00000   0.00000   0.00011   0.00038   0.00039
    Z2       -0.00445   0.00000   0.00000  -0.00021  -0.00055  -0.00499
    X3        0.96716  -0.00308   0.00000  -0.11528  -0.06768   0.89947
    Y3        0.00451   0.00001   0.00000  -0.00042  -0.00030   0.00422
    Z3       -1.92071   0.00126   0.00000   0.01800   0.01778  -1.90292
    X4        0.97744  -0.00297   0.00000  -0.11496  -0.06739   0.91005
    Y4        1.67424  -0.00089   0.00000  -0.01563  -0.01550   1.65873
    Z4        0.98438  -0.00050   0.00000  -0.00814  -0.00835   0.97603
    X5        0.97693  -0.00304   0.00000  -0.11417  -0.06669   0.91024
    Y5       -1.67742   0.00112   0.00000   0.01479   0.01491  -1.66252
    Z5        0.97715  -0.00060   0.00000  -0.00800  -0.00821   0.96894
    X6        4.44475   0.00137   0.00000  -0.05987  -0.01232   4.43244
    Y6       -0.00219   0.00032   0.00000   0.00231   0.00233   0.00014
    Z6        0.00107   0.00025   0.00000   0.00155   0.00142   0.00248
    X7        6.64112   0.00357   0.00000  -0.05678  -0.00923   6.63189
    Y7        0.00105  -0.00012   0.00000  -0.00114  -0.00118  -0.00013
    Z7       -0.00278  -0.00011   0.00000  -0.00178  -0.00186  -0.00464
         Item               Value     Threshold  Converged?
 Maximum Force            0.003571     0.000450     NO 
 RMS     Force            0.001636     0.000300     NO 
 Maximum Displacement     0.243089     0.001800     NO 
 RMS     Displacement     0.059450     0.001200     NO 
 Predicted change in Energy=-5.489607D-04
 GradGradGradGradGradGradGradGradGradGradGradGradGradGradGradGradGradGrad

 Leave Link  103 at Sun Oct 13 09:46:47 2024, MaxMem=  2684354560 cpu:               0.6 elap:               0.1
 (Enter /usr/local/g16_AVX//g16/l9999.exe)

 ----------------------------------------------------------------------

 Electric dipole moment (input orientation):
 (Debye = 10**-18 statcoulomb cm , SI units = C m)
                  (au)            (Debye)         (10**-30 SI)
   Tot        0.262696D+01      0.667708D+01      0.222723D+02
   x          0.262695D+01      0.667704D+01      0.222722D+02
   y         -0.402300D-03     -0.102254D-02     -0.341084D-02
   z          0.840616D-02      0.213663D-01      0.712704D-01

 Dipole polarizability, Alpha (input orientation).
 (esu units = cm**3 , SI units = C**2 m**2 J**-1)
 Alpha(0;0):
               (au)            (10**-24 esu)      (10**-40 SI)
   iso        0.538197D+02      0.797526D+01      0.887367D+01
   aniso      0.365820D+02      0.542090D+01      0.603156D+01
   xx         0.782077D+02      0.115892D+02      0.128947D+02
   yx         0.174122D-01      0.258022D-02      0.287088D-02
   yy         0.416194D+02      0.616736D+01      0.686212D+01
   zx        -0.210294D-01     -0.311623D-02     -0.346728D-02
   zy        -0.112631D-02     -0.166902D-03     -0.185704D-03
   zz         0.416320D+02      0.616922D+01      0.686418D+01

 ----------------------------------------------------------------------

 Dipole orientation:
     6         -0.00630197          0.00108561          1.69019027
    17         -0.01106789         -0.00073143         -4.84886218
     1          1.92379200          0.00436427          0.96100434
     1         -0.98098694          1.67453868          0.98032670
     1         -0.97427394         -1.67712603          0.98030475
     6          0.01315698         -0.00151341          4.44473584
     7          0.02402948          0.00206405          6.64107808

 Electric dipole moment (dipole orientation):
 (Debye = 10**-18 statcoulomb cm , SI units = C m)
                  (au)            (Debye)         (10**-30 SI)
   Tot        0.262696D+01      0.667708D+01      0.222723D+02
   x          0.000000D+00      0.000000D+00      0.000000D+00
   y          0.000000D+00      0.000000D+00      0.000000D+00
   z          0.262696D+01      0.667708D+01      0.222723D+02

 Dipole polarizability, Alpha (dipole orientation).
 (esu units = cm**3 , SI units = C**2 m**2 J**-1)
 Alpha(0;0):
               (au)            (10**-24 esu)      (10**-40 SI)
   iso        0.538197D+02      0.797526D+01      0.887367D+01
   aniso      0.365820D+02      0.542090D+01      0.603156D+01
   xx         0.416325D+02      0.616930D+01      0.686427D+01
   yx         0.120118D-02      0.177996D-03      0.198048D-03
   yy         0.416194D+02      0.616736D+01      0.686212D+01
   zx         0.138072D+00      0.204602D-01      0.227651D-01
   zy         0.229905D-01      0.340685D-02      0.379063D-02
   zz         0.782072D+02      0.115891D+02      0.128946D+02

 ----------------------------------------------------------------------
 1\1\GINC-NODO6\Freq\RB3LYP\6-31++G(d,p)\C2H3Cl1N1(1-)\ALANQF\13-Oct-20
 24\0\\#p b3lyp 6-31++g(d,p) scf=verytight NoSymm freq=noraman int=ultr
 afine\\RxCoord=-9.08643 DE=0.24\\-1,1\C,0.894395,0.000437,0.006197\Cl,
 -2.565913,0.000005,-0.002354\H,0.511797,0.002387,-1.016394\H,0.517238,
 0.885969,0.520909\H,0.516967,-0.887655,0.517085\C,2.352063,-0.00116,0.
 000564\N,3.51433,0.000556,-0.00147\\Version=ES64L-G16RevB.01\HF=-593.0
 597947\RMSD=2.152e-09\RMSF=1.636e-03\ZeroPoint=0.0451462\Thermal=0.049
 5708\Dipole=2.7240797,-0.0003858,0.0089807\DipoleDeriv=-0.1054257,-0.0
 003138,-0.000136,0.0007843,0.0680477,-0.0000301,0.0000766,-0.0000278,0
 .0670411,-1.0883925,-0.0000337,-0.0001138,-0.0000556,-0.9353538,-0.000
 0109,-0.0000235,-0.0000108,-0.9353862,0.1165999,0.0000528,0.0170347,0.
 0003353,0.1114194,0.0001152,-0.0193574,0.0001267,0.0147877,0.1141486,-
 0.014586,-0.0079742,0.0163599,0.0389394,-0.0421304,0.0102456,-0.042058
 2,0.0872448,0.1139719,0.0147339,-0.0078755,-0.0167909,0.0381547,0.0420
 078,0.0107382,0.0419249,0.087462,0.4954428,-0.0008679,-0.0021504,-0.00
 07728,0.0558126,0.0001595,-0.0029362,0.0001577,0.0557349,-0.646345,0.0
 010148,0.0012153,0.0001397,-0.37702,-0.0001112,0.0012567,-0.0001124,-0
 .3768842\Polar=78.2077111,0.0174122,41.6194252,-0.0210294,-0.0011263,4
 1.6319662\Quadrupole=-27.6543636,13.8276515,13.8267121,-0.0031843,-0.0
 036304,0.0005268\PG=C01 [X(C2H3Cl1N1)]\NImag=2\\0.48742123,-0.00040966
 ,0.55746538,0.00002149,0.00055166,0.55670474,-0.00343833,0.00000603,0.
 00001228,0.00434202,0.00000203,-0.00039464,0.00000135,-0.00000187,0.00
 021935,0.00000618,0.00000137,-0.00040097,0.00000886,-0.00000013,0.0002
 1680,-0.07236334,0.00019120,-0.09011107,0.00034266,0.00000198,-0.00096
 689,0.08369410,0.00019914,-0.04128013,0.00046077,0.00000326,-0.0008414
 0,-0.00000239,-0.00021603,0.04312077,-0.08896916,0.00045696,-0.2923931
 1,-0.00103177,-0.00000208,0.00035027,0.09893387,-0.00051209,0.31162115
 ,-0.07148401,0.07713093,0.04485507,0.00032709,0.00082597,0.00048302,0.
 00445737,-0.00984185,-0.00464339,0.08266460,0.07617574,-0.23016378,-0.
 10983936,0.00086930,0.00007016,0.00052109,-0.00093864,0.00062453,0.001
 29662,-0.08467307,0.24502235,0.04430857,-0.10984308,-0.10499575,0.0005
 1347,0.00052061,-0.00051826,0.01066416,-0.02412018,-0.01270472,-0.0492
 5947,0.11744532,0.11123362,-0.07153057,-0.07711447,0.04440683,0.000322
 97,-0.00082698,0.00047883,0.00446449,0.00985493,-0.00460301,0.00439553
 ,0.00879246,-0.00614694,0.08279377,-0.07612888,-0.23058521,0.10885549,
 -0.00087430,0.00007677,-0.00051925,0.00089071,0.00051363,-0.00122902,-
 0.00879242,-0.01922926,0.01269525,0.08471940,0.24550933,0.04386035,0.1
 0886315,-0.10389181,0.00051262,-0.00051906,-0.00052229,0.01069476,0.02
 417022,-0.01262383,-0.00620213,-0.01280810,0.00723752,-0.04881172,-0.1
 1645098,0.11007536,-0.25831819,0.00033127,0.00084325,0.00005053,-0.000
 00117,-0.00000563,-0.02084783,0.00000496,-0.00291224,-0.02062244,0.002
 54983,0.00152116,-0.02065729,-0.00260646,0.00153770,1.55738961,0.00007
 183,-0.07622946,-0.00002042,-0.00000154,0.00096477,-0.00000138,0.00008
 090,-0.00326422,-0.00002059,0.02900901,0.00449573,0.00441776,-0.029096
 55,0.00454055,-0.00436381,0.00147529,0.10820957,0.00060583,-0.00002124
 ,-0.07623997,-0.00002674,-0.00000138,0.00097240,-0.03343381,-0.0000017
 6,0.00725549,0.01688806,0.00450409,-0.00073512,0.01678483,-0.00446878,
 -0.00076653,-0.00309142,-0.00002043,0.10825339,-0.01028678,-0.00013531
 ,-0.00002784,-0.00194694,0.00000004,-0.00000437,0.00025255,-0.00000440
 ,0.00322570,0.00026185,-0.00277562,-0.00160095,0.00021110,0.00279195,-
 0.00159157,-1.23699438,-0.00153895,0.00227325,1.24850259,0.00008980,0.
 02118784,-0.00000949,-0.00000089,-0.00009501,0.00000069,-0.00001011,0.
 00112683,0.00001021,-0.00365858,-0.00081973,-0.00111568,0.00367121,-0.
 00082581,0.00110859,-0.00175372,-0.03871694,0.00000950,0.00166229,0.01
 814284,0.00016674,-0.00000882,0.02121688,0.00001127,0.00000069,-0.0000
 9796,0.00421899,0.00000544,-0.00150525,-0.00212116,-0.00111965,0.00048
 272,-0.00210881,0.00111730,0.00049158,0.00210718,0.00000887,-0.0387396
 6,-0.00227422,-0.00000382,0.01815169\\-0.00263430,0.00044679,0.0003132
 2,-0.00151879,-0.00000239,-0.00000121,0.00307690,-0.00001259,-0.001263
 75,0.00297447,0.00089183,0.00049571,0.00304275,-0.00111952,0.00060360,
 -0.00137023,-0.00032333,-0.00025358,-0.00357081,0.00011921,0.00010602\
 \\@


 LEARN FROM YESTERDAY,
 LIVE FOR TODAY,
 LOOK TO TOMORROW,
 REST THIS AFTERNOON.

           -- SNOOPY
 Job cpu time:       0 days  0 hours  3 minutes 51.4 seconds.
 Elapsed time:       0 days  0 hours  0 minutes 10.0 seconds.
 File lengths (MBytes):  RWF=     88 Int=      0 D2E=      0 Chk=      2 Scr=      2
 Normal termination of Gaussian 16 at Sun Oct 13 09:46:47 2024.
