RxCoord=-9.08643 DE=0.24                                                
Freq      RB3LYP                                                      6-31++G(d,p)        
Number of atoms                            I                7
Info1-9                                    I   N=           9
          16          16           0           0           0         100
           6          18        -502
Full Title                                 C   N=           2
RxCoord=-9.08643 DE=0.24
Route                                      C   N=           6
#p b3lyp 6-31++g(d,p) scf=verytight NoSymm freq=noraman int=
ultrafine   
Charge                                     I               -1
Multiplicity                               I                1
Number of electrons                        I               40
Number of alpha electrons                  I               20
Number of beta electrons                   I               20
Number of basis functions                  I               98
Number of independent functions            I               98
Number of point charges in /Mol/           I                0
Number of translation vectors              I                0
Atomic numbers                             I   N=           7
           6          17           1           1           1           6
           7
Nuclear charges                            R   N=           7
  6.00000000E+00  1.70000000E+01  1.00000000E+00  1.00000000E+00  1.00000000E+00
  6.00000000E+00  7.00000000E+00
Current cartesian coordinates              R   N=          21
  1.69016160E+00  8.25810316E-04  1.17106328E-02 -4.84887283E+00  9.44863062E-06
 -4.44841530E-03  9.67156161E-01  4.51077626E-03 -1.92070629E+00  9.77438161E-01
  1.67423876E+00  9.84375346E-01  9.76926045E-01 -1.67742484E+00  9.77149033E-01
  4.44475490E+00 -2.19208230E-03  1.06580553E-03  6.64112121E+00  1.05068773E-03
 -2.77789740E-03
Number of symbols in /Mol/                 I                0
Force Field                                I                0
Atom Types                                 C   N=           7
                                                            
                        
Int Atom Types                             I   N=           7
           0           0           0           0           0           0
           0
MM charges                                 R   N=           7
  0.00000000E+00  0.00000000E+00  0.00000000E+00  0.00000000E+00  0.00000000E+00
  0.00000000E+00  0.00000000E+00
Integer atomic weights                     I   N=           7
          12          35           1           1           1          12
          14
Real atomic weights                        R   N=           7
  1.20000000E+01  3.49688527E+01  1.00782504E+00  1.00782504E+00  1.00782504E+00
  1.20000000E+01  1.40030740E+01
Atom fragment info                         I   N=           7
           0           0           0           0           0           0
           0
Atom residue num                           I   N=           7
           0           0           0           0           0           0
           0
Nuclear spins                              I   N=           7
           0           3           1           1           1           0
           2
Nuclear ZEff                               R   N=           7
 -3.60000000E+00 -1.42400000E+01 -1.00000000E+00 -1.00000000E+00 -1.00000000E+00
 -3.60000000E+00 -4.55000000E+00
Nuclear ZNuc                               R   N=           7
  6.00000000E+00  1.70000000E+01  1.00000000E+00  1.00000000E+00  1.00000000E+00
  6.00000000E+00  7.00000000E+00
Nuclear QMom                               R   N=           7
  0.00000000E+00 -8.16500000E+00  0.00000000E+00  0.00000000E+00  0.00000000E+00
  0.00000000E+00  2.04400000E+00
Nuclear GFac                               R   N=           7
  0.00000000E+00  8.21874000E-01  2.79284600E+00  2.79284600E+00  2.79284600E+00
  0.00000000E+00  4.03761000E-01
MicOpt                                     I   N=           7
          -1          -1          -1          -1          -1          -1
          -1
Number of residues                         I                0
Number of secondary structures             I                0
Number of contracted shells                I               33
Number of primitive shells                 I               72
Pure/Cartesian d shells                    I                1
Pure/Cartesian f shells                    I                0
Highest angular momentum                   I                2
Largest degree of contraction              I                6
Shell types                                I   N=          33
           0          -1          -1          -1           2           0
          -1          -1          -1          -1           2           0
           0           0           1           0           0           0
           1           0           0           0           1           0
          -1          -1          -1           2           0          -1
          -1          -1           2
Number of primitives per shell             I   N=          33
           6           3           1           1           1           6
           6           3           1           1           1           3
           1           1           1           3           1           1
           1           3           1           1           1           6
           3           1           1           1           6           3
           1           1           1
Shell to atom map                          I   N=          33
           1           1           1           1           1           2
           2           2           2           2           2           3
           3           3           3           4           4           4
           4           5           5           5           5           6
           6           6           6           6           7           7
           7           7           7
Primitive exponents                        R   N=          72
  3.04752488E+03  4.57369518E+02  1.03948685E+02  2.92101553E+01  9.28666296E+00
  3.16392696E+00  7.86827235E+00  1.88128854E+00  5.44249258E-01  1.68714478E-01
  4.38000000E-02  8.00000000E-01  2.51801000E+04  3.78035000E+03  8.60474000E+02
  2.42145000E+02  7.73349000E+01  2.62470000E+01  4.91765000E+02  1.16984000E+02
  3.74153000E+01  1.37834000E+01  5.45215000E+00  2.22588000E+00  3.18649000E+00
  1.14427000E+00  4.20377000E-01  1.42657000E-01  4.83000000E-02  7.50000000E-01
  1.87311370E+01  2.82539436E+00  6.40121692E-01  1.61277759E-01  3.60000000E-02
  1.10000000E+00  1.87311370E+01  2.82539436E+00  6.40121692E-01  1.61277759E-01
  3.60000000E-02  1.10000000E+00  1.87311370E+01  2.82539436E+00  6.40121692E-01
  1.61277759E-01  3.60000000E-02  1.10000000E+00  3.04752488E+03  4.57369518E+02
  1.03948685E+02  2.92101553E+01  9.28666296E+00  3.16392696E+00  7.86827235E+00
  1.88128854E+00  5.44249258E-01  1.68714478E-01  4.38000000E-02  8.00000000E-01
  4.17351146E+03  6.27457911E+02  1.42902093E+02  4.02343293E+01  1.28202129E+01
  4.39043701E+00  1.16263619E+01  2.71627981E+00  7.72218397E-01  2.12031498E-01
  6.39000000E-02  8.00000000E-01
Contraction coefficients                   R   N=          72
  1.83473713E-03  1.40373228E-02  6.88426223E-02  2.32184443E-01  4.67941348E-01
  3.62311985E-01 -1.19332420E-01 -1.60854152E-01  1.14345644E+00  1.00000000E+00
  1.00000000E+00  1.00000000E+00  1.83295985E-03  1.40341988E-02  6.90973943E-02
  2.37451980E-01  4.83033960E-01  3.39855972E-01 -2.29739142E-03 -3.07137189E-02
 -1.12528069E-01  4.50163278E-02  5.89353363E-01  4.65206287E-01 -2.51828028E-01
  6.15892514E-02  1.06018433E+00  1.00000000E+00  1.00000000E+00  1.00000000E+00
  3.34946043E-02  2.34726953E-01  8.13757326E-01  1.00000000E+00  1.00000000E+00
  1.00000000E+00  3.34946043E-02  2.34726953E-01  8.13757326E-01  1.00000000E+00
  1.00000000E+00  1.00000000E+00  3.34946043E-02  2.34726953E-01  8.13757326E-01
  1.00000000E+00  1.00000000E+00  1.00000000E+00  1.83473713E-03  1.40373228E-02
  6.88426223E-02  2.32184443E-01  4.67941348E-01  3.62311985E-01 -1.19332420E-01
 -1.60854152E-01  1.14345644E+00  1.00000000E+00  1.00000000E+00  1.00000000E+00
  1.83477216E-03  1.39946270E-02  6.85865518E-02  2.32240873E-01  4.69069948E-01
  3.60455199E-01 -1.14961182E-01 -1.69117479E-01  1.14585195E+00  1.00000000E+00
  1.00000000E+00  1.00000000E+00
P(S=P) Contraction coefficients            R   N=          72
  0.00000000E+00  0.00000000E+00  0.00000000E+00  0.00000000E+00  0.00000000E+00
  0.00000000E+00  6.89990666E-02  3.16423961E-01  7.44308291E-01  1.00000000E+00
  1.00000000E+00  0.00000000E+00  0.00000000E+00  0.00000000E+00  0.00000000E+00
  0.00000000E+00  0.00000000E+00  0.00000000E+00  3.98940088E-03  3.03177067E-02
  1.29880029E-01  3.27951072E-01  4.53527100E-01  2.52154056E-01 -1.42993147E-02
  3.23572333E-01  7.43507765E-01  1.00000000E+00  1.00000000E+00  0.00000000E+00
  0.00000000E+00  0.00000000E+00  0.00000000E+00  0.00000000E+00  0.00000000E+00
  0.00000000E+00  0.00000000E+00  0.00000000E+00  0.00000000E+00  0.00000000E+00
  0.00000000E+00  0.00000000E+00  0.00000000E+00  0.00000000E+00  0.00000000E+00
  0.00000000E+00  0.00000000E+00  0.00000000E+00  0.00000000E+00  0.00000000E+00
  0.00000000E+00  0.00000000E+00  0.00000000E+00  0.00000000E+00  6.89990666E-02
  3.16423961E-01  7.44308291E-01  1.00000000E+00  1.00000000E+00  0.00000000E+00
  0.00000000E+00  0.00000000E+00  0.00000000E+00  0.00000000E+00  0.00000000E+00
  0.00000000E+00  6.75797439E-02  3.23907296E-01  7.40895140E-01  1.00000000E+00
  1.00000000E+00  0.00000000E+00
Coordinates of each shell                  R   N=          99
  1.69016160E+00  8.25810316E-04  1.17106328E-02  1.69016160E+00  8.25810316E-04
  1.17106328E-02  1.69016160E+00  8.25810316E-04  1.17106328E-02  1.69016160E+00
  8.25810316E-04  1.17106328E-02  1.69016160E+00  8.25810316E-04  1.17106328E-02
 -4.84887283E+00  9.44863062E-06 -4.44841530E-03 -4.84887283E+00  9.44863062E-06
 -4.44841530E-03 -4.84887283E+00  9.44863062E-06 -4.44841530E-03 -4.84887283E+00
  9.44863062E-06 -4.44841530E-03 -4.84887283E+00  9.44863062E-06 -4.44841530E-03
 -4.84887283E+00  9.44863062E-06 -4.44841530E-03  9.67156161E-01  4.51077626E-03
 -1.92070629E+00  9.67156161E-01  4.51077626E-03 -1.92070629E+00  9.67156161E-01
  4.51077626E-03 -1.92070629E+00  9.67156161E-01  4.51077626E-03 -1.92070629E+00
  9.77438161E-01  1.67423876E+00  9.84375346E-01  9.77438161E-01  1.67423876E+00
  9.84375346E-01  9.77438161E-01  1.67423876E+00  9.84375346E-01  9.77438161E-01
  1.67423876E+00  9.84375346E-01  9.76926045E-01 -1.67742484E+00  9.77149033E-01
  9.76926045E-01 -1.67742484E+00  9.77149033E-01  9.76926045E-01 -1.67742484E+00
  9.77149033E-01  9.76926045E-01 -1.67742484E+00  9.77149033E-01  4.44475490E+00
 -2.19208230E-03  1.06580553E-03  4.44475490E+00 -2.19208230E-03  1.06580553E-03
  4.44475490E+00 -2.19208230E-03  1.06580553E-03  4.44475490E+00 -2.19208230E-03
  1.06580553E-03  4.44475490E+00 -2.19208230E-03  1.06580553E-03  6.64112121E+00
  1.05068773E-03 -2.77789740E-03  6.64112121E+00  1.05068773E-03 -2.77789740E-03
  6.64112121E+00  1.05068773E-03 -2.77789740E-03  6.64112121E+00  1.05068773E-03
 -2.77789740E-03  6.64112121E+00  1.05068773E-03 -2.77789740E-03
Num ILSW                                   I              100
ILSW                                       I   N=         100
           0           1           0           0           2           0
           0           0           0           0         402          -1
           5           0           0           0           2           0
           0           0           0           0           1           0
           1           1           0           0           0           0
           0           0      100000           0          -1           0
           0           0           0           0           0           0
           0           0           0           1           0           0
           0 -2000000000           1           0           0           0
           0           0           4          52           0           0
           0           0           5           0           0           0
           0           0           0           7           0           1
           0           0           0           0           0           0
           0           0           0           0           0           0
           0           0           0           0           0           0
           0           0           0           0           0           0
           0           0           0           0
Num RLSW                                   I               52
RLSW                                       R   N=          52
  8.00000000E-01  7.20000000E-01  1.00000000E+00  8.10000000E-01  2.00000000E-01
  0.00000000E+00  0.00000000E+00  1.00000000E+00  0.00000000E+00  0.00000000E+00
  0.00000000E+00  0.00000000E+00  1.00000000E+00  0.00000000E+00  0.00000000E+00
  0.00000000E+00  0.00000000E+00  1.00000000E+00  0.00000000E+00  0.00000000E+00
  0.00000000E+00  0.00000000E+00  1.00000000E+00  0.00000000E+00  0.00000000E+00
  0.00000000E+00  0.00000000E+00  1.00000000E+00  0.00000000E+00  0.00000000E+00
  0.00000000E+00  0.00000000E+00  1.00000000E+00  0.00000000E+00  0.00000000E+00
  0.00000000E+00  0.00000000E+00  0.00000000E+00  1.00000000E+00  1.00000000E+00
  0.00000000E+00  1.00000000E+00  0.00000000E+00  0.00000000E+00  0.00000000E+00
  0.00000000E+00  0.00000000E+00  0.00000000E+00  0.00000000E+00  0.00000000E+00
  0.00000000E+00  0.00000000E+00
MxBond                                     I                4
NBond                                      I   N=           7
           4           0           1           1           1           2
           1
IBond                                      I   N=          28
           3           4           5           6           0           0
           0           0           1           0           0           0
           1           0           0           0           1           0
           0           0           1           7           0           0
           6           0           0           0
RBond                                      R   N=          28
  1.00000000E+00  1.00000000E+00  1.00000000E+00  1.00000000E+00  0.00000000E+00
  0.00000000E+00  0.00000000E+00  0.00000000E+00  1.00000000E+00  0.00000000E+00
  0.00000000E+00  0.00000000E+00  1.00000000E+00  0.00000000E+00  0.00000000E+00
  0.00000000E+00  1.00000000E+00  0.00000000E+00  0.00000000E+00  0.00000000E+00
  1.00000000E+00  3.00000000E+00  0.00000000E+00  0.00000000E+00  3.00000000E+00
  0.00000000E+00  0.00000000E+00  0.00000000E+00
Virial Ratio                               R      2.004733706113566E+00
SCF Energy                                 R     -5.930597947280920E+02
Total Energy                               R     -5.930597947280920E+02
RMS Force                                  R      1.635842226151917E-03
RMS Density                                R      2.151805541759169E-09
NImag                                      I                2
Job Status                                 I                1
Nuclear derivative order                   I                2
External E-field                           R   N=          35
  0.00000000E+00  0.00000000E+00  0.00000000E+00  0.00000000E+00  0.00000000E+00
  0.00000000E+00  0.00000000E+00  0.00000000E+00  0.00000000E+00  0.00000000E+00
  0.00000000E+00  0.00000000E+00  0.00000000E+00  0.00000000E+00  0.00000000E+00
  0.00000000E+00  0.00000000E+00  0.00000000E+00  0.00000000E+00  0.00000000E+00
  0.00000000E+00  0.00000000E+00  0.00000000E+00  0.00000000E+00  0.00000000E+00
  0.00000000E+00  0.00000000E+00  0.00000000E+00  0.00000000E+00  0.00000000E+00
  0.00000000E+00  0.00000000E+00  0.00000000E+00  0.00000000E+00  0.00000000E+00
IOpCl                                      I                0
IROHF                                      I                0
Alpha Orbital Energies                     R   N=          98
 -1.01254075E+02 -1.42338439E+01 -1.01310739E+01 -1.01041576E+01 -9.16737187E+00
 -6.92517909E+00 -6.92517797E+00 -6.92515256E+00 -8.03396866E-01 -6.50270462E-01
 -5.04669959E-01 -3.87892318E-01 -3.34042982E-01 -3.33866336E-01 -2.63773960E-01
 -2.22631866E-01 -2.22568842E-01 -5.21296190E-02 -5.08519475E-02 -5.08473459E-02
  9.78575087E-02  1.31746757E-01  1.31935567E-01  1.41197269E-01  1.43281654E-01
  1.43364052E-01  1.97389938E-01  2.02626725E-01  2.02732527E-01  2.19354098E-01
  2.27441302E-01  2.27777163E-01  2.48550797E-01  2.58336719E-01  2.58448670E-01
  2.85187617E-01  3.24203153E-01  3.31427565E-01  3.31570894E-01  3.37515670E-01
  3.37600557E-01  3.39355249E-01  3.92005451E-01  4.04613188E-01  4.80391979E-01
  6.95737779E-01  7.82095979E-01  7.82196724E-01  8.39233297E-01  8.39564371E-01
  8.48820259E-01  8.50956115E-01  8.51082452E-01  8.81426296E-01  9.83079523E-01
  1.00878719E+00  1.01870413E+00  1.01884678E+00  1.09450145E+00  1.11220775E+00
  1.11239427E+00  1.15476434E+00  1.15477286E+00  1.15959150E+00  1.15963020E+00
  1.19150558E+00  1.23308546E+00  1.26621157E+00  1.44630379E+00  1.44637845E+00
  1.53342469E+00  1.62104013E+00  1.62104957E+00  1.85544040E+00  1.85610602E+00
  1.88362984E+00  2.04753902E+00  2.04799358E+00  2.13932971E+00  2.22662179E+00
  2.22686422E+00  2.29360198E+00  2.39026635E+00  2.39032727E+00  2.74097647E+00
  2.79417864E+00  2.79554673E+00  3.04198625E+00  3.08155572E+00  3.08230139E+00
  3.27589197E+00  3.44318031E+00  3.54121749E+00  3.54183492E+00  4.24054697E+00
  4.42899434E+00  4.56913624E+00  4.80119759E+00
Alpha MO coefficients                      R   N=        9604
 -1.89174905E-07 -5.26890514E-06 -7.88530218E-06  4.94768535E-09  7.93569344E-09
  1.18610266E-04  1.03467171E-04 -1.52892610E-07 -5.09345996E-07  9.23283552E-04
  2.94192741E-04 -2.74148159E-07 -9.28288976E-07  5.03067348E-06  2.08414431E-06
  2.07633850E-06 -1.28013644E-08 -1.36877644E-08 -1.98058442E-09  9.95998031E-01
  1.51388217E-02  5.00484483E-06  1.84363657E-09  9.33290299E-09 -2.10649713E-02
 -1.37897259E-05 -2.36312189E-09 -2.84280140E-08  1.99027144E-03  3.36223716E-05
  1.23211978E-09  5.02719632E-08 -3.34346370E-04 -3.67820516E-05  2.71199628E-08
  1.40599851E-07  7.50248070E-03  7.50154568E-03  7.50154521E-03  1.81254501E-09
  1.13950100E-08 -1.03614643E-10  6.24783066E-06 -1.04619830E-05  5.55713230E-05
 -3.41699116E-06  1.17176112E-08 -1.23936913E-06  6.24354802E-06 -9.91183596E-06
  5.48630706E-05 -3.63373141E-06  9.99739279E-07  6.13626702E-07  6.22913906E-06
 -9.99566805E-06  5.47959504E-05 -3.60962553E-06 -1.00113231E-06  6.19084217E-07
  1.99448091E-06  1.00584437E-05  8.99539194E-07  1.69543250E-08  2.82607881E-08
 -6.04274627E-05  1.33638702E-04 -1.14945706E-07 -5.39278365E-07 -1.11235522E-03
  3.20197506E-04 -6.09470037E-07 -1.72269728E-06 -2.17002881E-06  3.13259980E-06
  3.14091118E-06  8.77176632E-09  3.04688403E-08 -1.17267536E-09  2.14334530E-06
  8.61912971E-06 -1.08457828E-06 -5.86556070E-09  9.49774775E-10 -1.10720423E-04
  3.13406461E-05  1.16562155E-07 -1.15186309E-08  9.30193445E-05 -6.55544460E-05
  1.77583357E-07  5.54159510E-07  3.92229328E-06  4.07000120E-06  4.06870563E-06
 -1.73759052E-08 -1.94274251E-08  4.83794397E-12  9.49533523E-06 -1.87728304E-04
  2.69672643E-04 -3.09051088E-07 -1.05818011E-06  9.56343358E-04  6.17793133E-04
 -2.09241355E-06 -3.66722542E-06  9.42148997E-03  2.36111871E-03 -3.55408125E-06
 -7.86778817E-06  4.70934594E-04  2.68732588E-05  2.69516318E-05 -1.28895302E-06
 -2.55418167E-06 -2.33340971E-08  5.50746767E-08  1.37528539E-06  3.76029816E-06
  1.21263327E-09  1.72373010E-08  5.75504084E-06 -2.01576265E-05 -4.26978601E-09
 -8.68521363E-08 -5.84875864E-05  3.67438319E-05 -3.38650067E-08  1.00543797E-07
  3.07695977E-04  1.01870211E-04  4.03422118E-07  9.92077125E-07  2.54076886E-06
 -1.29246481E-06 -1.28371653E-06  1.84204409E-08  4.84734293E-08 -5.91070135E-10
  1.02475651E-06 -7.75433796E-05 -2.48198551E-04 -1.97706556E-06  9.81367239E-08
 -2.04943878E-06  1.21287169E-06 -7.61287358E-05 -2.46393327E-04 -1.72339688E-06
  1.98745994E-06  1.18441901E-06  1.11227814E-06 -7.74089796E-05 -2.46142908E-04
 -1.94938526E-06 -1.71022238E-06  1.12277052E-06  7.60656801E-05  3.22509762E-04
 -5.61202216E-04 -9.18214243E-07  9.25191217E-07  1.02386427E-05  1.28391405E-03
 -5.35976849E-07 -4.22242282E-06 -6.80438882E-03  3.98682965E-03 -2.08649425E-06
 -1.64186491E-05 -1.44716102E-03  1.70372607E-05  1.70471852E-05 -1.52526416E-06
  3.76543456E-06 -1.07829463E-08  9.92764047E-01  3.47099951E-02 -2.14847314E-03
 -3.94402285E-06  3.22373975E-06  3.61903385E-03  8.08868175E-04  1.97398936E-06
 -1.03313344E-06 -3.37794166E-03 -3.99425641E-04  1.34204479E-06  3.67153328E-06
 -7.31099884E-03 -8.36419910E-03 -8.36418739E-03  1.88699820E-06 -2.05525020E-06
 -7.58219000E-09  6.11619286E-03  1.25126914E-04 -4.34963014E-04  1.08010299E-06
  2.44402090E-06  7.01159076E-03  2.46478754E-03 -6.09509821E-06 -1.45101053E-05
  6.84676569E-02  2.32676741E-02 -2.28499198E-05 -6.16227136E-05 -1.02993796E-03
 -2.06760990E-04 -2.06666329E-04  1.58607441E-06  4.19355351E-06  7.70919716E-08
  2.09980932E-07  4.19715691E-06  2.13332296E-05  2.08947110E-08  1.05721584E-07
  1.84109455E-05 -1.25691349E-04 -1.07424015E-07 -5.70410534E-07 -3.33603408E-04
  3.80080884E-04  8.09441155E-08  8.94070843E-07  3.35172925E-03  1.34341550E-03
  1.70839717E-06  1.12839773E-05  2.95813592E-05 -1.65205651E-05 -1.64526922E-05
  1.07628608E-07  5.37167201E-07 -1.29662296E-08 -1.18330336E-04 -7.86332456E-04
 -1.22022641E-04  4.91093705E-05  2.40172978E-07  1.02208709E-05 -1.17142147E-04
 -7.85370090E-04 -8.32791369E-05  4.71932965E-05 -9.89014542E-06 -5.74710433E-06
 -1.17676526E-04 -7.86512332E-04 -1.01995465E-04  4.88877045E-05  9.49632699E-06
 -5.16836610E-06  9.92758222E-01  5.03510688E-02  2.33601367E-04  2.02505856E-06
  1.33233139E-06 -1.04395022E-02  7.20252276E-03 -3.54927601E-06 -2.41617628E-05
 -7.46162847E-02  2.10372103E-02 -4.19143690E-05 -1.29925801E-04 -7.85653920E-03
 -9.90439341E-03 -9.90435315E-03  1.60723642E-06 -5.63910703E-06 -4.38231444E-08
 -4.74302168E-04  3.21868624E-04  3.30185080E-04  8.93453443E-07  2.46920089E-07
 -7.46466010E-03  3.05082497E-03  7.32970663E-06 -5.59606535E-06  7.78896453E-03
 -5.89609390E-03  9.62021302E-06  4.09337516E-05 -1.80867473E-05  3.23812956E-04
  3.23845117E-04 -2.26573130E-06 -7.12816052E-07 -5.42961717E-09  9.93016399E-01
  5.06317463E-02  7.40934399E-04 -1.34989943E-06 -1.05696623E-06 -2.45481969E-02
 -4.62244494E-03  1.19629792E-05  2.21482338E-05  4.18862733E-02  1.72383960E-02
 -1.21828966E-05 -3.43416849E-05 -8.94449843E-03 -8.85777375E-03 -8.85902737E-03
 -1.44210168E-07  1.27239275E-07  4.44653715E-07  7.39478545E-07  1.31930198E-05
  5.53699774E-06  3.68066347E-09  1.38162915E-07  3.70051875E-05 -3.13917576E-05
 -2.76463796E-08 -7.87439806E-07 -3.45023138E-04  2.10059255E-04  1.29149129E-07
  1.85257830E-06  3.10733024E-03  1.28595492E-03  6.60699264E-07  8.71596898E-06
  2.75328119E-05  2.02463902E-05  2.01643500E-05  5.03224317E-08  5.54386215E-07
 -1.86803559E-09  4.43194234E-06  3.17257079E-03  1.17333196E-04  2.58951755E-05
 -2.89020026E-07 -1.23902520E-04  2.13011295E-06  3.16434658E-03  1.43927712E-04
  2.67000910E-05  1.07672323E-04  6.23249548E-05  4.08825361E-06  3.16855592E-03
  1.33697629E-04  2.57429140E-05 -1.08239871E-04  6.14054173E-05 -6.41876312E-03
 -4.67643391E-04  2.66453567E-04 -2.52485120E-07 -6.57167983E-07  3.58079750E-03
 -9.53841299E-03  2.21885108E-06  2.94059453E-05 -4.84225407E-02  1.23205799E-02
 -2.76305516E-05 -9.23804624E-05 -8.32119974E-04 -4.67406162E-06 -4.67571370E-06
  3.40422405E-07  3.35168680E-06  6.32103733E-08 -1.90453842E-05 -5.57968698E-05
 -2.46838546E-04  9.11130849E-08  1.22598779E-06  5.42023297E-03 -1.79251493E-03
 -1.01093089E-05 -5.23989633E-06  4.75512791E-03 -2.38389061E-03  7.00791223E-06
  2.83401087E-05  1.48113395E-04 -7.66788693E-05 -7.66581371E-05  1.88861817E-06
  7.54612210E-07 -1.54766675E-08  5.02060247E-05  3.05734200E-04  1.31191865E-04
 -1.17314917E-07  2.12089229E-07 -3.69322445E-03 -3.05464741E-03  5.94678308E-06
  1.84352142E-05  1.22892408E-02  5.08703228E-03 -1.66686746E-06  5.92931562E-07
 -1.47702272E-04  1.01535830E-04  1.00595315E-04  4.81654298E-07  9.21078987E-07
  1.34531101E-07 -2.84645343E-01  1.02263088E+00  2.80115045E-04  1.96311926E-07
  3.58819457E-07  7.49284019E-02  3.52629170E-04  2.79815763E-08  6.46940498E-07
 -2.02680580E-02 -1.02835911E-03  5.08021956E-08 -1.33518480E-06  9.77231232E-03
  2.91963458E-03 -2.32530297E-07  1.49197744E-06 -1.56877449E-02 -1.57067185E-02
 -1.57065448E-02  6.48876916E-09 -1.28249674E-07 -2.91219609E-09  2.75651629E-05
 -8.75321176E-04 -2.82906884E-03  1.00358611E-04 -1.64393112E-07 -6.25568052E-05
  3.05106369E-05 -8.96479305E-04 -2.76529556E-03  1.01420069E-04  5.58807908E-05
  3.20411037E-05  3.10775194E-05 -8.93053879E-04 -2.77103098E-03  1.01004012E-04
 -5.60145055E-05  3.14593574E-05 -3.02124282E-05 -2.02235875E-04 -2.22842726E-05
 -8.41599153E-08 -9.36352115E-08 -4.75458014E-04 -5.21400076E-03 -1.10140159E-08
  1.51424377E-05 -4.88056998E-03  9.84928374E-04 -4.52177139E-06 -3.14767182E-05
  8.02337836E-05 -2.13121994E-05 -2.15055966E-05 -3.79506656E-07 -5.73156424E-07
  7.01600531E-09 -1.08653423E-04 -4.31033156E-04  2.26910402E-05  4.77685619E-07
  5.23984673E-07  5.36352918E-03 -1.62479664E-03 -5.72280150E-06 -8.56262122E-07
 -2.08402002E-03  9.40449868E-04  1.54450816E-06  7.01709838E-06 -1.69515090E-04
 -2.20271510E-04 -2.20210895E-04  5.24834950E-07  2.69940655E-07 -1.47571635E-09
 -8.49126993E-07 -5.68951143E-06 -1.75318199E-06 -2.16366459E-08  3.95429757E-06
  7.34127115E-05  3.80940729E-05  5.31245031E-06 -5.27634692E-04  4.73597409E-04
  1.81993625E-04 -2.81775468E-06  3.51283301E-04  2.36708567E-06 -3.53713974E-05
  3.39512170E-05 -3.74509306E-07  3.34410595E-05  1.82636296E-07 -1.18912245E-06
  3.13629417E-06 -1.19906977E-02 -1.08414105E-02  9.90707005E-01 -3.47335501E-06
 -3.62146000E-04 -3.23625078E-04  2.95688015E-02  1.66501344E-05  1.47957139E-04
  1.24196755E-04 -1.13316053E-02 -2.40328528E-06 -5.58109145E-05 -5.20246701E-05
  4.69766383E-03 -1.95294243E-06  9.79424477E-07 -4.55874626E-06 -4.67685617E-07
  4.12700372E-05 -4.46130456E-09  1.13321022E-04 -7.78319462E-04  3.72966770E-03
 -2.42768517E-05  1.07605114E-07 -8.10760879E-05 -5.37947795E-05  3.70748544E-04
 -1.80498966E-03  9.83220463E-06 -3.70142680E-05 -1.45611739E-05 -5.56518909E-05
  3.82206090E-04 -1.86528005E-03  1.01323148E-05  3.81237482E-05 -1.50605390E-05
  9.85327566E-07  5.00017286E-06 -3.32674469E-07 -2.80036671E-07  2.47206113E-05
 -2.23578169E-05  7.31020338E-05  4.27649341E-07 -8.02667189E-06 -5.42776890E-04
  1.49331279E-04 -1.62838842E-05  1.13184555E-03 -4.97138514E-07 -1.52563456E-06
  4.55951715E-06  2.10743177E-07 -1.73423010E-05  5.94843866E-08  7.16657992E-07
  3.41966167E-06 -2.31758694E-07  1.99613588E-07 -7.75667618E-06 -5.33368081E-05
  1.74174974E-05 -1.11427589E-06  4.95266000E-05  1.75467032E-05 -1.74389386E-05
  7.33037008E-06 -4.54466125E-04  8.60682470E-07  3.88131276E-06 -1.65238290E-06
  3.50723733E-08 -2.17445665E-06 -2.60851741E-09  3.35515289E-07  3.54841653E-06
  1.56970549E-06  3.02352026E-06  5.12777842E-08 -6.87138883E-05 -5.48859402E-05
 -5.16534321E-04 -5.72890577E-06 -9.65147769E-04 -3.62480497E-04  3.36626607E-04
  5.67498324E-06 -3.40571025E-06  1.71701054E-08  3.17233979E-07  3.22600005E-05
  3.67068305E-07 -3.91834683E-05  1.16622058E-06 -3.09541985E-06  9.85644491E-03
  9.90729480E-01  1.09609854E-02  3.20724011E-06  2.99464424E-04  2.95681662E-02
  3.27096462E-04 -1.35711404E-05 -1.27399655E-04 -1.13281490E-02 -1.25168801E-04
 -3.17325283E-05  3.18746871E-05  4.68831622E-03  5.10450221E-05  1.45474128E-06
  2.09904112E-06  2.05412468E-06  4.11475908E-05  4.27658953E-07  3.36301301E-06
  5.39205213E-07 -1.26650490E-05  2.98803522E-06  1.66081620E-06  6.37488357E-06
 -1.19603683E-06 -9.77395739E-05  6.54941629E-04 -3.20880871E-03  2.18133203E-05
 -5.77056565E-05 -3.71629153E-05  9.61355706E-05 -6.60108019E-04  3.12324070E-03
 -1.77174480E-05 -5.81502505E-05  3.71625333E-05 -1.52877716E-06 -7.57255891E-06
  2.26021303E-07  2.43302505E-05  2.24937713E-07  1.06940877E-05 -1.06058834E-04
 -7.82726027E-06  6.69484053E-07  1.11244331E-03 -3.28674494E-04  1.11905065E-03
  1.09268111E-05 -6.29845436E-07 -1.99875295E-06 -2.05210333E-06 -1.70038377E-05
 -1.87525442E-07 -3.23551249E-06 -1.49451147E-06 -6.71017288E-06  5.37089157E-07
 -7.50634563E-06  2.55277447E-08  9.30950440E-05 -3.45483003E-05  4.80801729E-05
 -2.18002974E-08 -3.83248591E-05  5.15418884E-05 -4.45874253E-04 -3.31181930E-06
 -9.99696135E-07 -2.83883561E-06 -2.88513273E-06 -2.15170964E-06  1.00075493E-09
  3.18713488E-06  3.34845934E-05  3.52703539E-04  1.65334394E-04 -4.56168452E-07
 -1.49090526E-08 -6.52485415E-03 -5.28941649E-03  1.64851229E-05  2.75666592E-05
 -8.45953587E-02 -3.22008486E-02  1.91009064E-05  7.25304434E-05 -3.35207751E-04
  1.84212968E-05  1.79188766E-05  3.44864437E-07  1.69818846E-06  5.99069777E-07
  1.11130564E-04 -2.88897295E-04  9.90621785E-01 -9.98882074E-03  1.18820233E-02
  3.20912620E-04  3.00743251E-02 -2.97956339E-04  3.56220391E-04 -1.39951473E-03
 -1.27348445E-02  1.14111678E-04 -1.38948802E-04 -2.61611324E-03  3.43515128E-03
 -4.95750337E-05  3.92358478E-05  1.51036736E-04  2.05200681E-04  2.05172946E-04
 -5.22479160E-07 -4.98442839E-07 -2.66496276E-08 -4.58069887E-05 -5.83491116E-04
 -2.65118732E-03  1.85210353E-04 -5.37796343E-07 -4.94540141E-05 -4.34770034E-05
 -6.08471444E-04 -2.67901422E-03  1.89200467E-04  4.54296820E-05  2.55185544E-05
 -4.42019016E-05 -5.89656639E-04 -2.73434683E-03  1.88525839E-04 -4.43627718E-05
  2.39103269E-05 -1.39559246E-04 -6.97647479E-04  2.55089056E-05 -1.69773085E-06