RxCoord=-8.78660 DE=0.35                                                
Freq      RB3LYP                                                      6-31++G(d,p)        
Number of atoms                            I                7
Info1-9                                    I   N=           9
          16          16           0           0           0         100
           6          18        -502
Full Title                                 C   N=           2
RxCoord=-8.78660 DE=0.35
Route                                      C   N=           6
#p b3lyp 6-31++g(d,p) scf=verytight NoSymm freq=noraman int=
ultrafine   
Charge                                     I               -1
Multiplicity                               I                1
Number of electrons                        I               40
Number of alpha electrons                  I               20
Number of beta electrons                   I               20
Number of basis functions                  I               98
Number of independent functions            I               98
Number of point charges in /Mol/           I                0
Number of translation vectors              I                0
Atomic numbers                             I   N=           7
           6          17           1           1           1           6
           7
Nuclear charges                            R   N=           7
  6.00000000E+00  1.70000000E+01  1.00000000E+00  1.00000000E+00  1.00000000E+00
  6.00000000E+00  7.00000000E+00
Current cartesian coordinates              R   N=          21
  1.65902458E+00 -2.24877409E-04  9.36737240E-03 -4.81194380E+00  3.21253441E-05
 -3.85315157E-03  9.36635195E-01  3.83614403E-03 -1.92274153E+00  9.43954104E-01
  1.67281769E+00  9.81907364E-01  9.44290475E-01 -1.67725288E+00  9.74945612E-01
  4.41320025E+00  4.68652079E-04  2.57758643E-03  6.60957979E+00 -2.45664396E-04
 -3.07080495E-03
Number of symbols in /Mol/                 I                0
Force Field                                I                0
Atom Types                                 C   N=           7
                                                            
                        
Int Atom Types                             I   N=           7
           0           0           0           0           0           0
           0
MM charges                                 R   N=           7
  0.00000000E+00  0.00000000E+00  0.00000000E+00  0.00000000E+00  0.00000000E+00
  0.00000000E+00  0.00000000E+00
Integer atomic weights                     I   N=           7
          12          35           1           1           1          12
          14
Real atomic weights                        R   N=           7
  1.20000000E+01  3.49688527E+01  1.00782504E+00  1.00782504E+00  1.00782504E+00
  1.20000000E+01  1.40030740E+01
Atom fragment info                         I   N=           7
           0           0           0           0           0           0
           0
Atom residue num                           I   N=           7
           0           0           0           0           0           0
           0
Nuclear spins                              I   N=           7
           0           3           1           1           1           0
           2
Nuclear ZEff                               R   N=           7
 -3.60000000E+00 -1.42400000E+01 -1.00000000E+00 -1.00000000E+00 -1.00000000E+00
 -3.60000000E+00 -4.55000000E+00
Nuclear ZNuc                               R   N=           7
  6.00000000E+00  1.70000000E+01  1.00000000E+00  1.00000000E+00  1.00000000E+00
  6.00000000E+00  7.00000000E+00
Nuclear QMom                               R   N=           7
  0.00000000E+00 -8.16500000E+00  0.00000000E+00  0.00000000E+00  0.00000000E+00
  0.00000000E+00  2.04400000E+00
Nuclear GFac                               R   N=           7
  0.00000000E+00  8.21874000E-01  2.79284600E+00  2.79284600E+00  2.79284600E+00
  0.00000000E+00  4.03761000E-01
MicOpt                                     I   N=           7
          -1          -1          -1          -1          -1          -1
          -1
Number of residues                         I                0
Number of secondary structures             I                0
Number of contracted shells                I               33
Number of primitive shells                 I               72
Pure/Cartesian d shells                    I                1
Pure/Cartesian f shells                    I                0
Highest angular momentum                   I                2
Largest degree of contraction              I                6
Shell types                                I   N=          33
           0          -1          -1          -1           2           0
          -1          -1          -1          -1           2           0
           0           0           1           0           0           0
           1           0           0           0           1           0
          -1          -1          -1           2           0          -1
          -1          -1           2
Number of primitives per shell             I   N=          33
           6           3           1           1           1           6
           6           3           1           1           1           3
           1           1           1           3           1           1
           1           3           1           1           1           6
           3           1           1           1           6           3
           1           1           1
Shell to atom map                          I   N=          33
           1           1           1           1           1           2
           2           2           2           2           2           3
           3           3           3           4           4           4
           4           5           5           5           5           6
           6           6           6           6           7           7
           7           7           7
Primitive exponents                        R   N=          72
  3.04752488E+03  4.57369518E+02  1.03948685E+02  2.92101553E+01  9.28666296E+00
  3.16392696E+00  7.86827235E+00  1.88128854E+00  5.44249258E-01  1.68714478E-01
  4.38000000E-02  8.00000000E-01  2.51801000E+04  3.78035000E+03  8.60474000E+02
  2.42145000E+02  7.73349000E+01  2.62470000E+01  4.91765000E+02  1.16984000E+02
  3.74153000E+01  1.37834000E+01  5.45215000E+00  2.22588000E+00  3.18649000E+00
  1.14427000E+00  4.20377000E-01  1.42657000E-01  4.83000000E-02  7.50000000E-01
  1.87311370E+01  2.82539436E+00  6.40121692E-01  1.61277759E-01  3.60000000E-02
  1.10000000E+00  1.87311370E+01  2.82539436E+00  6.40121692E-01  1.61277759E-01
  3.60000000E-02  1.10000000E+00  1.87311370E+01  2.82539436E+00  6.40121692E-01
  1.61277759E-01  3.60000000E-02  1.10000000E+00  3.04752488E+03  4.57369518E+02
  1.03948685E+02  2.92101553E+01  9.28666296E+00  3.16392696E+00  7.86827235E+00
  1.88128854E+00  5.44249258E-01  1.68714478E-01  4.38000000E-02  8.00000000E-01
  4.17351146E+03  6.27457911E+02  1.42902093E+02  4.02343293E+01  1.28202129E+01
  4.39043701E+00  1.16263619E+01  2.71627981E+00  7.72218397E-01  2.12031498E-01
  6.39000000E-02  8.00000000E-01
Contraction coefficients                   R   N=          72
  1.83473713E-03  1.40373228E-02  6.88426223E-02  2.32184443E-01  4.67941348E-01
  3.62311985E-01 -1.19332420E-01 -1.60854152E-01  1.14345644E+00  1.00000000E+00
  1.00000000E+00  1.00000000E+00  1.83295985E-03  1.40341988E-02  6.90973943E-02
  2.37451980E-01  4.83033960E-01  3.39855972E-01 -2.29739142E-03 -3.07137189E-02
 -1.12528069E-01  4.50163278E-02  5.89353363E-01  4.65206287E-01 -2.51828028E-01
  6.15892514E-02  1.06018433E+00  1.00000000E+00  1.00000000E+00  1.00000000E+00
  3.34946043E-02  2.34726953E-01  8.13757326E-01  1.00000000E+00  1.00000000E+00
  1.00000000E+00  3.34946043E-02  2.34726953E-01  8.13757326E-01  1.00000000E+00
  1.00000000E+00  1.00000000E+00  3.34946043E-02  2.34726953E-01  8.13757326E-01
  1.00000000E+00  1.00000000E+00  1.00000000E+00  1.83473713E-03  1.40373228E-02
  6.88426223E-02  2.32184443E-01  4.67941348E-01  3.62311985E-01 -1.19332420E-01
 -1.60854152E-01  1.14345644E+00  1.00000000E+00  1.00000000E+00  1.00000000E+00
  1.83477216E-03  1.39946270E-02  6.85865518E-02  2.32240873E-01  4.69069948E-01
  3.60455199E-01 -1.14961182E-01 -1.69117479E-01  1.14585195E+00  1.00000000E+00
  1.00000000E+00  1.00000000E+00
P(S=P) Contraction coefficients            R   N=          72
  0.00000000E+00  0.00000000E+00  0.00000000E+00  0.00000000E+00  0.00000000E+00
  0.00000000E+00  6.89990666E-02  3.16423961E-01  7.44308291E-01  1.00000000E+00
  1.00000000E+00  0.00000000E+00  0.00000000E+00  0.00000000E+00  0.00000000E+00
  0.00000000E+00  0.00000000E+00  0.00000000E+00  3.98940088E-03  3.03177067E-02
  1.29880029E-01  3.27951072E-01  4.53527100E-01  2.52154056E-01 -1.42993147E-02
  3.23572333E-01  7.43507765E-01  1.00000000E+00  1.00000000E+00  0.00000000E+00
  0.00000000E+00  0.00000000E+00  0.00000000E+00  0.00000000E+00  0.00000000E+00
  0.00000000E+00  0.00000000E+00  0.00000000E+00  0.00000000E+00  0.00000000E+00
  0.00000000E+00  0.00000000E+00  0.00000000E+00  0.00000000E+00  0.00000000E+00
  0.00000000E+00  0.00000000E+00  0.00000000E+00  0.00000000E+00  0.00000000E+00
  0.00000000E+00  0.00000000E+00  0.00000000E+00  0.00000000E+00  6.89990666E-02
  3.16423961E-01  7.44308291E-01  1.00000000E+00  1.00000000E+00  0.00000000E+00
  0.00000000E+00  0.00000000E+00  0.00000000E+00  0.00000000E+00  0.00000000E+00
  0.00000000E+00  6.75797439E-02  3.23907296E-01  7.40895140E-01  1.00000000E+00
  1.00000000E+00  0.00000000E+00
Coordinates of each shell                  R   N=          99
  1.65902458E+00 -2.24877409E-04  9.36737240E-03  1.65902458E+00 -2.24877409E-04
  9.36737240E-03  1.65902458E+00 -2.24877409E-04  9.36737240E-03  1.65902458E+00
 -2.24877409E-04  9.36737240E-03  1.65902458E+00 -2.24877409E-04  9.36737240E-03
 -4.81194380E+00  3.21253441E-05 -3.85315157E-03 -4.81194380E+00  3.21253441E-05
 -3.85315157E-03 -4.81194380E+00  3.21253441E-05 -3.85315157E-03 -4.81194380E+00
  3.21253441E-05 -3.85315157E-03 -4.81194380E+00  3.21253441E-05 -3.85315157E-03
 -4.81194380E+00  3.21253441E-05 -3.85315157E-03  9.36635195E-01  3.83614403E-03
 -1.92274153E+00  9.36635195E-01  3.83614403E-03 -1.92274153E+00  9.36635195E-01
  3.83614403E-03 -1.92274153E+00  9.36635195E-01  3.83614403E-03 -1.92274153E+00
  9.43954104E-01  1.67281769E+00  9.81907364E-01  9.43954104E-01  1.67281769E+00
  9.81907364E-01  9.43954104E-01  1.67281769E+00  9.81907364E-01  9.43954104E-01
  1.67281769E+00  9.81907364E-01  9.44290475E-01 -1.67725288E+00  9.74945612E-01
  9.44290475E-01 -1.67725288E+00  9.74945612E-01  9.44290475E-01 -1.67725288E+00
  9.74945612E-01  9.44290475E-01 -1.67725288E+00  9.74945612E-01  4.41320025E+00
  4.68652079E-04  2.57758643E-03  4.41320025E+00  4.68652079E-04  2.57758643E-03
  4.41320025E+00  4.68652079E-04  2.57758643E-03  4.41320025E+00  4.68652079E-04
  2.57758643E-03  4.41320025E+00  4.68652079E-04  2.57758643E-03  6.60957979E+00
 -2.45664396E-04 -3.07080495E-03  6.60957979E+00 -2.45664396E-04 -3.07080495E-03
  6.60957979E+00 -2.45664396E-04 -3.07080495E-03  6.60957979E+00 -2.45664396E-04
 -3.07080495E-03  6.60957979E+00 -2.45664396E-04 -3.07080495E-03
Num ILSW                                   I              100
ILSW                                       I   N=         100
           0           1           0           0           2           0
           0           0           0           0         402          -1
           5           0           0           0           2           0
           0           0           0           0           1           0
           1           1           0           0           0           0
           0           0      100000           0          -1           0
           0           0           0           0           0           0
           0           0           0           1           0           0
           0 -2000000000           1           0           0           0
           0           0           4          52           0           0
           0           0           5           0           0           0
           0           0           0           7           0           1
           0           0           0           0           0           0
           0           0           0           0           0           0
           0           0           0           0           0           0
           0           0           0           0           0           0
           0           0           0           0
Num RLSW                                   I               52
RLSW                                       R   N=          52
  8.00000000E-01  7.20000000E-01  1.00000000E+00  8.10000000E-01  2.00000000E-01
  0.00000000E+00  0.00000000E+00  1.00000000E+00  0.00000000E+00  0.00000000E+00
  0.00000000E+00  0.00000000E+00  1.00000000E+00  0.00000000E+00  0.00000000E+00
  0.00000000E+00  0.00000000E+00  1.00000000E+00  0.00000000E+00  0.00000000E+00
  0.00000000E+00  0.00000000E+00  1.00000000E+00  0.00000000E+00  0.00000000E+00
  0.00000000E+00  0.00000000E+00  1.00000000E+00  0.00000000E+00  0.00000000E+00
  0.00000000E+00  0.00000000E+00  1.00000000E+00  0.00000000E+00  0.00000000E+00
  0.00000000E+00  0.00000000E+00  0.00000000E+00  1.00000000E+00  1.00000000E+00
  0.00000000E+00  1.00000000E+00  0.00000000E+00  0.00000000E+00  0.00000000E+00
  0.00000000E+00  0.00000000E+00  0.00000000E+00  0.00000000E+00  0.00000000E+00
  0.00000000E+00  0.00000000E+00
MxBond                                     I                4
NBond                                      I   N=           7
           4           0           1           1           1           2
           1
IBond                                      I   N=          28
           3           4           5           6           0           0
           0           0           1           0           0           0
           1           0           0           0           1           0
           0           0           1           7           0           0
           6           0           0           0
RBond                                      R   N=          28
  1.00000000E+00  1.00000000E+00  1.00000000E+00  1.00000000E+00  0.00000000E+00
  0.00000000E+00  0.00000000E+00  0.00000000E+00  1.00000000E+00  0.00000000E+00
  0.00000000E+00  0.00000000E+00  1.00000000E+00  0.00000000E+00  0.00000000E+00
  0.00000000E+00  1.00000000E+00  0.00000000E+00  0.00000000E+00  0.00000000E+00
  1.00000000E+00  3.00000000E+00  0.00000000E+00  0.00000000E+00  3.00000000E+00
  0.00000000E+00  0.00000000E+00  0.00000000E+00
Virial Ratio                               R      2.004728481916650E+00
SCF Energy                                 R     -5.930598980712188E+02
Total Energy                               R     -5.930598980712188E+02
RMS Force                                  R      1.628981917327864E-03
RMS Density                                R      2.098573893745675E-09
NImag                                      I                2
Job Status                                 I                1
Nuclear derivative order                   I                2
External E-field                           R   N=          35
  0.00000000E+00  0.00000000E+00  0.00000000E+00  0.00000000E+00  0.00000000E+00
  0.00000000E+00  0.00000000E+00  0.00000000E+00  0.00000000E+00  0.00000000E+00
  0.00000000E+00  0.00000000E+00  0.00000000E+00  0.00000000E+00  0.00000000E+00
  0.00000000E+00  0.00000000E+00  0.00000000E+00  0.00000000E+00  0.00000000E+00
  0.00000000E+00  0.00000000E+00  0.00000000E+00  0.00000000E+00  0.00000000E+00
  0.00000000E+00  0.00000000E+00  0.00000000E+00  0.00000000E+00  0.00000000E+00
  0.00000000E+00  0.00000000E+00  0.00000000E+00  0.00000000E+00  0.00000000E+00
IOpCl                                      I                0
IROHF                                      I                0
Alpha Orbital Energies                     R   N=          98
 -1.01254244E+02 -1.42329535E+01 -1.01301573E+01 -1.01028100E+01 -9.16755931E+00
 -6.92537120E+00 -6.92537018E+00 -6.92532595E+00 -8.02543204E-01 -6.49139766E-01
 -5.04991826E-01 -3.86829394E-01 -3.32774638E-01 -3.32751015E-01 -2.62978719E-01
 -2.21691276E-01 -2.21681980E-01 -5.23684131E-02 -5.11480424E-02 -5.11434725E-02
  9.83952185E-02  1.32511696E-01  1.32620999E-01  1.41527826E-01  1.43943204E-01
  1.43975405E-01  1.97703643E-01  2.03141707E-01  2.03220751E-01  2.19381051E-01
  2.28217111E-01  2.28345204E-01  2.49321730E-01  2.58559965E-01  2.58641933E-01
  2.86489229E-01  3.24759782E-01  3.32244125E-01  3.32276587E-01  3.38499220E-01
  3.38607500E-01  3.41103233E-01  3.92457261E-01  4.05442065E-01  4.81259660E-01
  6.94519082E-01  7.82944704E-01  7.82962456E-01  8.40620858E-01  8.40769396E-01
  8.49870966E-01  8.50563024E-01  8.50703929E-01  8.81698799E-01  9.83973972E-01
  1.01304154E+00  1.01986454E+00  1.01999688E+00  1.09567404E+00  1.11349067E+00
  1.11353288E+00  1.15454770E+00  1.15455694E+00  1.15944086E+00  1.15945694E+00
  1.19438893E+00  1.23497119E+00  1.26737495E+00  1.44744671E+00  1.44746502E+00
  1.53443540E+00  1.62188892E+00  1.62189131E+00  1.85666786E+00  1.85676854E+00
  1.88706371E+00  2.04860590E+00  2.04869211E+00  2.14083355E+00  2.22837754E+00
  2.22847811E+00  2.29588927E+00  2.39128298E+00  2.39139592E+00  2.74624119E+00
  2.79578205E+00  2.79596775E+00  3.04366535E+00  3.08315969E+00  3.08329771E+00
  3.27726510E+00  3.44451882E+00  3.54313614E+00  3.54344511E+00  4.24221799E+00
  4.43117377E+00  4.57058707E+00  4.80250968E+00
Alpha MO coefficients                      R   N=        9604
  4.37887928E-08 -3.05850611E-06 -7.72813587E-06 -1.20410213E-09  6.97904456E-09
  1.00891150E-04  9.23355302E-05  2.94949506E-08 -2.83276150E-07  9.86420726E-04
  3.17963767E-04  6.72167164E-08 -6.27543133E-07  3.43126720E-06  2.48979712E-06
  2.47607368E-06  1.82588985E-09 -9.23327011E-11  1.52459565E-10  9.95998022E-01
  1.51388166E-02  4.97835125E-06 -3.51613719E-10  7.63128702E-09 -2.10650933E-02
 -1.38060515E-05  5.94486715E-10 -2.37183554E-08  1.99085344E-03  3.39050309E-05
 -5.17440885E-10  4.55489563E-08 -3.32251087E-04 -3.60528659E-05 -6.97487135E-09
  1.03277795E-07  7.50246116E-03  7.50149488E-03  7.50149437E-03 -4.52486261E-10
  8.63447815E-09  2.19124099E-11  6.42926341E-06 -1.23255431E-05  5.60190151E-05
 -2.66424334E-06  1.45860453E-09 -1.62300268E-06  6.43195300E-06 -1.19937613E-05
  5.53756285E-05 -2.83003888E-06  1.35018022E-06  8.12989038E-07  6.43412086E-06
 -1.19750847E-05  5.53880977E-05 -2.83755172E-06 -1.35337304E-06  8.05039628E-07
  1.84946362E-06  9.02814044E-06  9.84308967E-07 -3.84269546E-09  1.10440560E-08
 -6.48982271E-05  1.08411087E-04  2.74131649E-08 -3.08579653E-07 -1.18349534E-03
  3.36152781E-04  1.48910607E-07 -1.07806165E-06 -1.62029917E-06  2.98940460E-06
  2.99482598E-06 -1.47373896E-09  1.73423189E-08  2.18297879E-10  1.78025600E-06
  7.03145707E-06 -8.74600000E-07  7.02779908E-10  5.02987941E-09 -8.86070640E-05
  2.31781481E-05 -1.98315521E-08 -7.63990206E-08  1.03496972E-04 -6.88776862E-05
 -4.26469481E-08  3.60690761E-07  3.49106261E-06  3.34734081E-06  3.34619617E-06
  3.40647323E-09 -4.67582297E-09 -1.28795332E-11  9.53307853E-06 -1.87571655E-04
  2.69875141E-04  7.51011991E-08 -6.56255314E-07  9.59338299E-04  6.20678570E-04
  4.69073575E-07 -1.55256969E-06  9.57814960E-03  2.43308146E-03  8.07134485E-07
 -4.01465902E-06  4.71222928E-04  2.69724035E-05  2.69846594E-05  2.89075378E-07
 -1.22586359E-06  8.23260144E-09  4.58051245E-08  1.03040936E-06  3.94787477E-06
 -3.69924080E-10  1.50969786E-08  5.36030317E-06 -2.14190075E-05  1.48137091E-09
 -7.82085902E-08 -5.50844873E-05  4.13001988E-05  6.50560930E-09  1.27514201E-07
  3.21702103E-04  1.04526534E-04 -9.46438218E-08  5.89955127E-07  2.30300791E-06
 -2.28563961E-06 -2.27893890E-06 -4.31457655E-09  3.15038405E-08  1.67896199E-10
  9.40294496E-07 -7.52631102E-05 -2.42837474E-04 -1.96868089E-06 -1.61422751E-08
 -2.14408641E-06  9.65536469E-07 -7.55863005E-05 -2.41085011E-04 -2.02222698E-06
  1.79436736E-06  1.05750496E-06  9.92168913E-07 -7.53073380E-05 -2.41149393E-04
 -1.97243315E-06 -1.85318802E-06  1.05739613E-06  7.62577483E-05  3.23297501E-04
 -5.60615043E-04  2.02100973E-07  1.46482271E-06  8.34104350E-06  1.29073740E-03
  1.29635275E-07 -3.22687487E-06 -6.99971201E-03  4.03938623E-03  5.17980914E-07
 -1.26692256E-05 -1.44664088E-03  1.72790059E-05  1.72690422E-05  3.31627848E-07
  4.31553993E-06  1.79705142E-09  9.92764012E-01  3.47109607E-02 -2.14740677E-03
  8.66447844E-07  5.61773378E-06  3.61245652E-03  8.11052995E-04 -4.35326693E-07
 -2.32500845E-06 -3.36875367E-03 -4.07088566E-04 -3.12118943E-07  2.20431042E-06
 -7.31148267E-03 -8.36411431E-03 -8.36410289E-03 -4.15986829E-07 -3.13450786E-06
  1.70085846E-09  6.02917141E-03  1.20612046E-04 -4.34494926E-04 -2.33975492E-07
  1.29129068E-06  7.02721990E-03  2.47968076E-03  1.36146019E-06 -7.49650508E-06
  7.02880476E-02  2.41082765E-02  5.28542335E-06 -3.55361208E-05 -1.02759262E-03
 -2.05153107E-04 -2.05013828E-04 -3.54964003E-07  2.37310552E-06 -6.11274898E-09
  1.73941780E-07  3.14316676E-06  2.19709878E-05 -5.21534854E-09  8.37002897E-08
  1.61328265E-05 -1.30154586E-04  2.70968561E-08 -4.58337874E-07 -3.23079278E-04
  4.02261938E-04 -2.61101854E-08  8.35017630E-07  3.54584157E-03  1.40450128E-03
 -4.36351605E-07  8.83320245E-06  2.92125365E-05 -1.89929544E-05 -1.89519685E-05
 -2.63897884E-08  4.01351661E-07  3.10738699E-09 -1.18759636E-04 -7.75118747E-04
 -6.49255339E-05  4.74174963E-05 -7.77104105E-08  1.10553380E-05 -1.18526087E-04
 -7.75940515E-04 -5.44331491E-05  4.74508829E-05 -9.81341200E-06 -5.74757693E-06
 -1.18389159E-04 -7.75703733E-04 -5.02199443E-05  4.71471388E-05  9.92446353E-06
 -5.81907190E-06  9.92760435E-01  5.03592771E-02  2.37071267E-04 -4.80671683E-07
 -4.28649056E-07 -1.04589663E-02  7.24422130E-03  8.62098275E-07 -1.82024039E-05
 -7.68407453E-02  2.16391334E-02  9.89605277E-06 -8.23135462E-05 -7.85250068E-03
 -9.90226594E-03 -9.90225492E-03 -3.44407564E-07 -5.94128776E-06  8.20888798E-09
 -4.73594510E-04  3.25091284E-04  3.31052965E-04 -2.01667741E-07 -4.41612139E-07
 -7.50868123E-03  3.07063473E-03 -1.61690550E-06 -1.01908556E-05  7.87967124E-03
 -5.98131820E-03 -2.30841685E-06  2.85073538E-05 -2.00249386E-05  3.25560262E-04
  3.25571560E-04  5.06769223E-07  1.05059363E-06 -9.62599230E-11  9.93016538E-01
  5.06350261E-02  7.43889934E-04  2.49403325E-07  2.67512295E-07 -2.45467383E-02
 -4.61460190E-03 -2.48132981E-06  8.79469164E-06  4.27914977E-02  1.77044358E-02
  2.81655252E-06 -2.21306494E-05 -8.94389773E-03 -8.85981175E-03 -8.86006769E-03
  7.37919148E-09  1.26632428E-07 -9.60787658E-08  7.94189138E-07  1.35905853E-05
  5.53133420E-06 -2.81291532E-09  1.13282550E-07  3.97248374E-05 -3.10707044E-05
  1.74253230E-08 -6.46218347E-07 -3.48687913E-04  2.09177835E-04 -5.35099546E-08
  1.55612025E-06  3.24844798E-03  1.33072279E-03 -1.98448663E-07  7.18151507E-06
  2.58119207E-05  2.13544449E-05  2.12775244E-05 -1.65462143E-08  4.43889370E-07
 -1.59958213E-10  3.31287415E-06  3.17434458E-03  1.43323179E-04  2.62038824E-05
  3.61315656E-07 -1.23382461E-04  3.64491549E-06  3.17346396E-03  1.56059436E-04
  2.60353537E-05  1.07148979E-04  6.21077270E-05  3.26372317E-06  3.17267240E-03
  1.58441836E-04  2.61992880E-05 -1.07350009E-04  6.17483599E-05 -6.33093772E-03
 -4.60235053E-04  2.67002363E-04  4.38452065E-08 -4.31243764E-07  3.56919582E-03
 -9.52298189E-03 -5.12131261E-07  2.39340464E-05 -4.95602289E-02  1.26115601E-02
  6.63593176E-06 -5.82587326E-05 -8.33091668E-04 -4.32943930E-06 -4.30716448E-06
 -8.83227660E-08  2.52566225E-06 -8.30763003E-09 -1.88075630E-05 -5.43425681E-05
 -2.47273949E-04 -2.19039244E-08  1.00872058E-06  5.40496288E-03 -1.78633110E-03
  2.25667264E-06  2.74518869E-06  4.79869265E-03 -2.41918279E-03 -1.74177612E-06
  1.87613710E-05  1.48307780E-04 -7.61943236E-05 -7.61811665E-05 -4.19465445E-07
 -7.17277028E-07  4.35637205E-09  5.13557419E-05  3.16465685E-04  1.41418310E-04
  3.14269837E-08  2.80129180E-07 -3.91266651E-03 -3.23443822E-03 -1.53170018E-06
  1.18756844E-05  1.22172092E-02  5.28146109E-03  4.08252313E-07  4.01276967E-06
 -1.55337129E-04  1.01180645E-04  1.00568138E-04 -1.11597867E-07  4.25176385E-07
 -3.53640004E-08 -2.84644857E-01  1.02263444E+00  2.74628344E-04 -3.13889619E-08
  2.66201035E-07  7.49426434E-02  3.64232274E-04 -9.26812792E-09  6.02174769E-07
 -2.03514599E-02 -1.05910239E-03 -6.19353880E-09 -1.36526148E-06  9.98536924E-03
  3.01654827E-03  7.08537164E-08  1.85812499E-06 -1.56822313E-02 -1.56975082E-02
 -1.56973581E-02  1.11082980E-09 -1.15748687E-07  1.54791152E-09  2.06480857E-05
 -8.60411238E-04 -2.81757090E-03  1.05054133E-04  2.01779644E-07 -6.22924858E-05
  2.36946617E-05 -8.75054584E-04 -2.77239548E-03  1.05592565E-04  5.52273276E-05
  3.17283801E-05  2.36177154E-05 -8.76057874E-04 -2.77053560E-03  1.05688205E-04
 -5.53746041E-05  3.15900553E-05 -3.25959351E-05 -2.15814722E-04 -2.22384745E-05
  2.42612502E-08  1.86609184E-08 -4.11213780E-04 -5.47337315E-03 -5.35503058E-08
  1.32500474E-05 -5.04179491E-03  9.77256778E-04  1.05666803E-06 -2.48214023E-05
  8.34618229E-05 -2.45526039E-05 -2.47023680E-05  8.86949308E-08 -2.23416392E-07
 -3.44717935E-09 -1.11170677E-04 -4.42728554E-04  2.36847838E-05 -1.12167054E-07
  9.54050771E-08  5.54906103E-03 -1.68650041E-03  1.33584939E-06  3.67195568E-06
 -2.04008848E-03  9.40234257E-04 -3.39244290E-07  5.27049060E-06 -1.72875891E-04
 -2.24425241E-04 -2.24370312E-04 -1.24012660E-07 -1.74981796E-07  6.92840155E-10
 -6.63237920E-07 -4.41398668E-06 -1.41937239E-06  1.07011033E-08  1.74835569E-06
  5.83426011E-05  2.95193092E-05 -4.05324131E-06 -5.40422410E-04  3.91571113E-04
  1.47217859E-04  2.51371220E-06  3.57973511E-04  1.77438464E-06 -3.59833903E-05
  3.49443546E-05  2.64555756E-07  3.42207771E-05 -5.68896143E-07 -9.10418085E-07
  2.39496983E-06 -9.28110074E-03  7.57370984E-03  9.90765402E-01 -2.71504291E-06
 -2.80413264E-04  2.26090929E-04  2.95750009E-02  1.26837187E-05  1.14690157E-04
 -8.67291057E-05 -1.13403285E-02 -6.40140778E-07 -4.29062912E-05  3.61895512E-05
  4.71707268E-03 -1.49640148E-06  1.46348159E-06 -4.20554460E-06  3.20830946E-07
  4.15590046E-05  4.47764765E-08  1.19354623E-04 -8.14087056E-04  3.78260411E-03
 -2.12475957E-05  2.49453114E-07 -8.52962142E-05 -5.90406477E-05  4.01700589E-04
 -1.90265894E-03  9.21266189E-06 -4.01691313E-05 -1.60108035E-05 -5.70185039E-05
  3.88158976E-04 -1.83841429E-03  8.88052291E-06  3.90289595E-05 -1.50682730E-05
  7.83234667E-07  3.95502148E-06 -2.26761958E-07  2.02304497E-07  2.64038331E-05
 -1.84214627E-05  5.63523904E-05 -1.52279385E-07 -1.21964313E-05 -4.40906112E-04
  1.21164977E-04  9.44154321E-06  1.12799461E-03 -3.44529266E-07 -2.11939773E-06
  4.53320370E-06 -1.38144848E-07 -1.74451019E-05 -6.17783445E-08  5.35306347E-07
  2.56758590E-06 -1.83418781E-07 -8.50181721E-08 -7.84968727E-06 -4.05611843E-05
  1.33748891E-05  5.06995196E-07  5.01509391E-05  1.46797210E-05 -1.41503897E-05
 -3.92460924E-06 -4.46367366E-04  5.99973921E-07  3.66980786E-06 -2.00000896E-06
 -2.18424152E-08 -2.66656972E-06  4.26819427E-08 -2.12690811E-08 -3.06381582E-07
 -1.58223241E-07  8.95162793E-07 -9.29852436E-09  7.10914538E-06  6.11302167E-06
 -5.30318535E-04  4.09636034E-06  1.15674302E-04  4.32964739E-05  3.43042850E-04
 -2.93284865E-06  3.65981641E-07  4.85916264E-07 -4.81427639E-07  3.31957704E-05
 -2.52649422E-07 -4.02387645E-05 -1.16208853E-07  3.05759271E-07 -9.44917508E-04
  9.90808574E-01 -7.58289659E-03 -3.20502457E-07 -2.87832064E-05  2.95752056E-02
 -2.26337334E-04  1.29901472E-06  1.24475895E-05 -1.13378410E-02  8.67345988E-05
  4.49392993E-06 -2.50039519E-06  4.71005063E-03 -3.58954819E-05 -1.36268224E-07
 -2.64576324E-07 -1.81275072E-07  4.14904450E-05 -3.13241515E-07  3.42532798E-06
 -1.11083623E-06  8.59866157E-06 -3.28996344E-05 -1.50688336E-09  6.93339794E-06
  8.96466499E-07 -1.01969062E-04  6.87057661E-04 -3.20544545E-03  1.71573342E-05
 -6.07148945E-05 -3.93432096E-05  1.03148034E-04 -6.93133042E-04  3.24714259E-03
 -1.77707383E-05 -6.15197710E-05  3.93269321E-05  1.74264437E-07  8.57238917E-07
 -1.71255566E-08  2.60998967E-05 -1.96757754E-07 -9.04114206E-07  1.18008052E-05
 -1.26665863E-05 -2.03406433E-09 -1.32910909E-04  3.93680446E-05  1.12106337E-03
 -7.97779261E-06  1.01389022E-07  2.62754205E-07  1.89306276E-07 -1.71562028E-05
  1.27998109E-07 -3.66911074E-06  1.73299243E-07  7.72709721E-07 -6.31307798E-08
 -7.80927351E-06  3.52515296E-08 -1.06031234E-05  4.01376021E-06  4.99221635E-05
 -2.62912168E-07  4.70513154E-06 -6.28967505E-06 -4.41954055E-04  2.93261915E-06
  9.94431471E-08  2.98889372E-07  3.81953305E-07 -2.68643375E-06  1.83609072E-08
  3.25120786E-06  3.20716465E-05  3.51742252E-04  1.79383646E-04  9.22058648E-08
  2.47001181E-07 -6.70757371E-03 -5.48979739E-03 -3.22199904E-06  1.60352286E-05
 -8.70009954E-02 -3.31675816E-02 -4.94340243E-06  4.59444712E-05 -3.41691270E-04
  1.20144303E-05  1.18148211E-05 -1.16724795E-07  9.29025992E-07 -9.17602959E-08
  1.10574059E-04 -2.82665893E-04  9.90695156E-01  1.01600005E-03  9.27398647E-03
  3.29568748E-04  3.01002019E-02  3.02801706E-05  2.78186093E-04 -1.43656692E-03
 -1.28007320E-02 -1.15753819E-05 -1.08981312E-04 -2.86206176E-03  3.36507832E-03
  5.43615845E-06  3.08802932E-05  1.54733216E-04  2.14999833E-04  2.14988873E-04
  7.41182596E-08 -4.02645215E-07  2.20032367E-09 -6.02992184E-05 -5.33492773E-04
 -2.61960656E-03  1.88560931E-04  2.36344407E-07 -4.65192541E-05 -5.81283396E-05
 -5.42940081E-04 -2.66094371E-03  1.91106127E-04  4.16409077E-05  2.34196998E-05
 -5.80986493E-05 -5.45853799E-04 -2.65604443E-03  1.91318203E-04 -4.18881699E-05
  2.34929546E-05 -1.43253823E-04 -7.16256341E-04  2.55258585E-05  3.64044992E-07