 Entering Gaussian System, Link 0=g16
 Initial command:
 /usr/local/g16_AVX//g16/l1.exe "/scratch/alanqf/0013-54455.ixchel.mda.cinvestav.mx/Gau-13495.inp" -scrdir="/scratch/alanqf/0013-54455.ixchel.mda.cinvestav.mx/"
 Entering Link 1 = /usr/local/g16_AVX//g16/l1.exe PID=     13496.
  
 Copyright (c) 1988-2017, Gaussian, Inc.  All Rights Reserved.
  
 This is part of the Gaussian(R) 16 program.  It is based on
 the Gaussian(R) 09 system (copyright 2009, Gaussian, Inc.),
 the Gaussian(R) 03 system (copyright 2003, Gaussian, Inc.),
 the Gaussian(R) 98 system (copyright 1998, Gaussian, Inc.),
 the Gaussian(R) 94 system (copyright 1995, Gaussian, Inc.),
 the Gaussian 92(TM) system (copyright 1992, Gaussian, Inc.),
 the Gaussian 90(TM) system (copyright 1990, Gaussian, Inc.),
 the Gaussian 88(TM) system (copyright 1988, Gaussian, Inc.),
 the Gaussian 86(TM) system (copyright 1986, Carnegie Mellon
 University), and the Gaussian 82(TM) system (copyright 1983,
 Carnegie Mellon University). Gaussian is a federally registered
 trademark of Gaussian, Inc.
  
 This software contains proprietary and confidential information,
 including trade secrets, belonging to Gaussian, Inc.
  
 This software is provided under written license and may be
 used, copied, transmitted, or stored only in accord with that
 written license.
  
 The following legend is applicable only to US Government
 contracts under FAR:
  
                    RESTRICTED RIGHTS LEGEND
  
 Use, reproduction and disclosure by the US Government is
 subject to restrictions as set forth in subparagraphs (a)
 and (c) of the Commercial Computer Software - Restricted
 Rights clause in FAR 52.227-19.
  
 Gaussian, Inc.
 340 Quinnipiac St., Bldg. 40, Wallingford CT 06492
  
  
 ---------------------------------------------------------------
 Warning -- This program may not be used in any manner that
 competes with the business of Gaussian, Inc. or will provide
 assistance to any competitor of Gaussian, Inc.  The licensee
 of this program is prohibited from giving any competitor of
 Gaussian, Inc. access to this program.  By using this program,
 the user acknowledges that Gaussian, Inc. is engaged in the
 business of creating and licensing software in the field of
 computational chemistry and represents and warrants to the
 licensee that it is not a competitor of Gaussian, Inc. and that
 it will not use this program in any manner prohibited above.
 ---------------------------------------------------------------
  

 Cite this work as:
 Gaussian 16, Revision B.01,
 M. J. Frisch, G. W. Trucks, H. B. Schlegel, G. E. Scuseria, 
 M. A. Robb, J. R. Cheeseman, G. Scalmani, V. Barone, 
 G. A. Petersson, H. Nakatsuji, X. Li, M. Caricato, A. V. Marenich, 
 J. Bloino, B. G. Janesko, R. Gomperts, B. Mennucci, H. P. Hratchian, 
 J. V. Ortiz, A. F. Izmaylov, J. L. Sonnenberg, D. Williams-Young, 
 F. Ding, F. Lipparini, F. Egidi, J. Goings, B. Peng, A. Petrone, 
 T. Henderson, D. Ranasinghe, V. G. Zakrzewski, J. Gao, N. Rega, 
 G. Zheng, W. Liang, M. Hada, M. Ehara, K. Toyota, R. Fukuda, 
 J. Hasegawa, M. Ishida, T. Nakajima, Y. Honda, O. Kitao, H. Nakai, 
 T. Vreven, K. Throssell, J. A. Montgomery, Jr., J. E. Peralta, 
 F. Ogliaro, M. J. Bearpark, J. J. Heyd, E. N. Brothers, K. N. Kudin, 
 V. N. Staroverov, T. A. Keith, R. Kobayashi, J. Normand, 
 K. Raghavachari, A. P. Rendell, J. C. Burant, S. S. Iyengar, 
 J. Tomasi, M. Cossi, J. M. Millam, M. Klene, C. Adamo, R. Cammi, 
 J. W. Ochterski, R. L. Martin, K. Morokuma, O. Farkas, 
 J. B. Foresman, and D. J. Fox, Gaussian, Inc., Wallingford CT, 2016.
 
 ******************************************
 Gaussian 16:  ES64L-G16RevB.01 20-Dec-2017
                13-Oct-2024 
 ******************************************
 %NProcShared=26
 Will use up to   26 processors via shared memory.
 %MEM=20GB
 %chk=CHKfiles/0013.chk
 ---------------------------------------------------------------------
 #p b3lyp 6-31++g(d,p) scf=verytight NoSymm freq=noraman int=ultrafine
 ---------------------------------------------------------------------
 1/10=4,30=1,38=1/1,3;
 2/12=2,15=1,17=6,18=5,40=1/2;
 3/5=1,6=6,7=1111,11=2,25=1,30=1,71=2,74=-5,75=-5,140=1/1,2,3;
 4//1;
 5/5=2,17=3,38=5,98=1/2;
 8/6=4,10=90,11=11/1;
 11/6=1,8=1,9=11,15=111,16=1,31=1/1,2,10;
 10/6=1,31=1/2;
 6/7=2,8=2,9=2,10=2,28=1/1;
 7/8=1,10=1,25=1,30=1/1,2,3,16;
 1/10=4,30=1/3;
 99//99;
 Leave Link    1 at Sun Oct 13 09:46:48 2024, MaxMem=  2684354560 cpu:               1.5 elap:               0.1
 (Enter /usr/local/g16_AVX//g16/l101.exe)
 ------------------------
 RxCoord=-8.78660 DE=0.35
 ------------------------
 Symbolic Z-matrix:
 Charge = -1 Multiplicity = 1
 C                     0.87792  -0.00012   0.00496 
 Cl                   -2.54637   0.00002  -0.00204 
 H                     0.49565   0.00203  -1.01747 
 H                     0.49952   0.88522   0.5196 
 H                     0.4997   -0.88756   0.51592 
 C                     2.33537   0.00025   0.00136 
 N                     3.49764  -0.00013  -0.00163 
 
 ITRead=  0  0  0  0  0  0  0
 MicOpt= -1 -1 -1 -1 -1 -1 -1
 NAtoms=      7 NQM=        7 NQMF=       0 NMMI=      0 NMMIF=      0
                NMic=       0 NMicF=      0.
                    Isotopes and Nuclear Properties:
 (Nuclear quadrupole moments (NQMom) in fm**2, nuclear magnetic moments (NMagM)
  in nuclear magnetons)

  Atom         1           2           3           4           5           6           7
 IAtWgt=          12          35           1           1           1          12          14
 AtmWgt=  12.0000000  34.9688527   1.0078250   1.0078250   1.0078250  12.0000000  14.0030740
 NucSpn=           0           3           1           1           1           0           2
 AtZEff=  -0.0000000  -0.0000000  -0.0000000  -0.0000000  -0.0000000  -0.0000000  -0.0000000
 NQMom=    0.0000000  -8.1650000   0.0000000   0.0000000   0.0000000   0.0000000   2.0440000
 NMagM=    0.0000000   0.8218740   2.7928460   2.7928460   2.7928460   0.0000000   0.4037610
 AtZNuc=   6.0000000  17.0000000   1.0000000   1.0000000   1.0000000   6.0000000   7.0000000
 Leave Link  101 at Sun Oct 13 09:46:48 2024, MaxMem=  2684354560 cpu:               2.8 elap:               0.1
 (Enter /usr/local/g16_AVX//g16/l103.exe)

 GradGradGradGradGradGradGradGradGradGradGradGradGradGradGradGradGradGrad
 Berny optimization.
 Initialization pass.
 Trust Radius=3.00D-01 FncErr=1.00D-07 GrdErr=1.00D-07 EigMax=2.50D+02 EigMin=1.00D-04
 Number of steps in this run=      2 maximum allowed number of steps=      2.
 GradGradGradGradGradGradGradGradGradGradGradGradGradGradGradGradGradGrad

 Leave Link  103 at Sun Oct 13 09:46:48 2024, MaxMem=  2684354560 cpu:               0.5 elap:               0.0
 (Enter /usr/local/g16_AVX//g16/l202.exe)
                          Input orientation:                          
 ---------------------------------------------------------------------
 Center     Atomic      Atomic             Coordinates (Angstroms)
 Number     Number       Type             X           Y           Z
 ---------------------------------------------------------------------
      1          6           0        0.877918   -0.000119    0.004957
      2         17           0       -2.546371    0.000017   -0.002039
      3          1           0        0.495646    0.002030   -1.017471
      4          1           0        0.499519    0.885217    0.519603
      5          1           0        0.499697   -0.887564    0.515919
      6          6           0        2.335365    0.000248    0.001364
      7          7           0        3.497639   -0.000130   -0.001625
 ---------------------------------------------------------------------
                    Distance matrix (angstroms):
                    1          2          3          4          5
     1  C    0.000000
     2  Cl   3.424296   0.000000
     3  H    1.091556   3.207019   0.000000
     4  H    1.091726   3.214519   1.772747   0.000000
     5  H    1.091646   3.214749   1.772760   1.772785   0.000000
     6  C    1.457451   4.881737   2.102996   2.102872   2.103011
     7  N    2.619729   6.044010   3.169213   3.169265   3.169077
                    6          7
     6  C    0.000000
     7  N    1.162278   0.000000
 Symmetry turned off by external request.
 This structure is nearly, but not quite of a higher symmetry.
 Consider Symm=Loose if the higher symmetry is desired.
 Stoichiometry    C2H3ClN(1-)
 Framework group  C1[X(C2H3ClN)]
 Deg. of freedom    15
 Full point group                 C1      NOp   1
 Rotational constants (GHZ):         159.5365950           1.0637877           1.0637868
 Leave Link  202 at Sun Oct 13 09:46:48 2024, MaxMem=  2684354560 cpu:               0.2 elap:               0.0
 (Enter /usr/local/g16_AVX//g16/l301.exe)
 Standard basis: 6-31++G(d,p) (6D, 7F)
 Ernie: Thresh=  0.10000D-02 Tol=  0.10000D-05 Strict=F.
    98 basis functions,   176 primitive gaussians,    98 cartesian basis functions
    20 alpha electrons       20 beta electrons
       nuclear repulsion energy       103.9745346040 Hartrees.
 IExCor=  402 DFT=T Ex+Corr=B3LYP ExCW=0 ScaHFX=  0.200000
 ScaDFX=  0.800000  0.720000  1.000000  0.810000 ScalE2=  1.000000  1.000000
 IRadAn=      5 IRanWt=     -1 IRanGd=            0 ICorTp=0 IEmpDi=  4
 NAtoms=    7 NActive=    7 NUniq=    7 SFac= 1.00D+00 NAtFMM=   60 NAOKFM=F Big=F
 Integral buffers will be    131072 words long.
 Raffenetti 2 integral format.
 Two-electron integral symmetry is turned off.
 Leave Link  301 at Sun Oct 13 09:46:48 2024, MaxMem=  2684354560 cpu:               1.3 elap:               0.1
 (Enter /usr/local/g16_AVX//g16/l302.exe)
 NPDir=0 NMtPBC=     1 NCelOv=     1 NCel=       1 NClECP=     1 NCelD=      1
         NCelK=      1 NCelE2=     1 NClLst=     1 CellRange=     0.0.
 One-electron integrals computed using PRISM.
 NBasis=    98 RedAO= T EigKep=  1.66D-05  NBF=    98
 NBsUse=    98 1.00D-06 EigRej= -1.00D+00 NBFU=    98
 Precomputing XC quadrature grid using
 IXCGrd= 4 IRadAn=           5 IRanWt=          -1 IRanGd=           0 AccXCQ= 0.00D+00.
 Generated NRdTot=       0 NPtTot=           0 NUsed=           0 NTot=          32
 NSgBfM=    98    98    98    98    98 MxSgAt=     7 MxSgA2=     7.
 Leave Link  302 at Sun Oct 13 09:46:48 2024, MaxMem=  2684354560 cpu:               3.9 elap:               0.2
 (Enter /usr/local/g16_AVX//g16/l303.exe)
 DipDrv:  MaxL=1.
 Leave Link  303 at Sun Oct 13 09:46:49 2024, MaxMem=  2684354560 cpu:               0.8 elap:               0.1
 (Enter /usr/local/g16_AVX//g16/l401.exe)
 ExpMin= 3.60D-02 ExpMax= 2.52D+04 ExpMxC= 3.78D+03 IAcc=3 IRadAn=         5 AccDes= 0.00D+00
 Harris functional with IExCor=  402 and IRadAn=       5 diagonalized for initial guess.
 HarFok:  IExCor=  402 AccDes= 0.00D+00 IRadAn=         5 IDoV= 1 UseB2=F ITyADJ=14
 ICtDFT=  3500011 ScaDFX=  1.000000  1.000000  1.000000  1.000000
 FoFCou: FMM=F IPFlag=           0 FMFlag=      100000 FMFlg1=           0
         NFxFlg=           0 DoJE=T BraDBF=F KetDBF=T FulRan=T
         wScrn=  0.000000 ICntrl=       500 IOpCl=  0 I1Cent=   200000004 NGrid=           0
         NMat0=    1 NMatS0=      1 NMatT0=    0 NMatD0=    1 NMtDS0=    0 NMtDT0=    0
 Symmetry not used in FoFCou.
 Harris En= -593.114144992356    
 JPrj=0 DoOrth=F DoCkMO=F.
 Leave Link  401 at Sun Oct 13 09:46:49 2024, MaxMem=  2684354560 cpu:               5.9 elap:               0.3
 (Enter /usr/local/g16_AVX//g16/l502.exe)
 Keep R1 ints in memory in canonical form, NReq=35752935.
 FoFCou: FMM=F IPFlag=           0 FMFlag=           0 FMFlg1=           0
         NFxFlg=           0 DoJE=F BraDBF=F KetDBF=F FulRan=T
         wScrn=  0.000000 ICntrl=       600 IOpCl=  0 I1Cent=           0 NGrid=           0
         NMat0=    1 NMatS0=   4851 NMatT0=    0 NMatD0=    1 NMtDS0=    0 NMtDT0=    0
 Symmetry not used in FoFCou.
 Two-electron integral symmetry not used.
 Closed shell SCF:
 Using DIIS extrapolation, IDIIS=  1040.
 NGot=  2684354560 LenX=  2672563405 LenY=  2672553360
 Requested convergence on RMS density matrix=1.00D-08 within 128 cycles.
 Requested convergence on MAX density matrix=1.00D-06.
 Requested convergence on             energy=1.00D-06.
 No special actions if energy rises.

 Cycle   1  Pass 1  IDiag  1:
 E= -592.950380585352    
 DIIS: error= 2.73D-02 at cycle   1 NSaved=   1.
 NSaved= 1 IEnMin= 1 EnMin= -592.950380585352     IErMin= 1 ErrMin= 2.73D-02
 ErrMax= 2.73D-02  0.00D+00 EMaxC= 1.00D-01 BMatC= 1.04D-01 BMatP= 1.04D-01
 IDIUse=3 WtCom= 7.27D-01 WtEn= 2.73D-01
 Coeff-Com:  0.100D+01
 Coeff-En:   0.100D+01
 Coeff:      0.100D+01
 Gap=     0.161 Goal=   None    Shift=    0.000
 GapD=    0.161 DampG=1.000 DampE=0.500 DampFc=0.5000 IDamp=-1.
 Damping current iteration by 5.00D-01
 RMSDP=1.09D-02 MaxDP=1.87D-01              OVMax= 1.79D-01

 Cycle   2  Pass 1  IDiag  1:
 E= -592.989542811848     Delta-E=       -0.039162226496 Rises=F Damp=T
 DIIS: error= 1.70D-02 at cycle   2 NSaved=   2.
 NSaved= 2 IEnMin= 2 EnMin= -592.989542811848     IErMin= 2 ErrMin= 1.70D-02
 ErrMax= 1.70D-02  0.00D+00 EMaxC= 1.00D-01 BMatC= 1.48D-02 BMatP= 1.04D-01
 IDIUse=3 WtCom= 8.30D-01 WtEn= 1.70D-01
 Coeff-Com:  0.162D+00 0.838D+00
 Coeff-En:   0.247D+00 0.753D+00
 Coeff:      0.177D+00 0.823D+00
 Gap=     0.145 Goal=   None    Shift=    0.000
 RMSDP=4.63D-03 MaxDP=1.52D-01 DE=-3.92D-02 OVMax= 1.43D-01

 Cycle   3  Pass 1  IDiag  1:
 E= -593.041938497667     Delta-E=       -0.052395685819 Rises=F Damp=F
 DIIS: error= 1.43D-02 at cycle   3 NSaved=   3.
 NSaved= 3 IEnMin= 3 EnMin= -593.041938497667     IErMin= 3 ErrMin= 1.43D-02
 ErrMax= 1.43D-02  0.00D+00 EMaxC= 1.00D-01 BMatC= 1.94D-02 BMatP= 1.48D-02
 IDIUse=2 WtCom= 0.00D+00 WtEn= 1.00D+00
 Coeff-En:   0.000D+00 0.000D+00 0.100D+01
 Coeff:      0.000D+00 0.000D+00 0.100D+01
 Gap=     0.150 Goal=   None    Shift=    0.000
 RMSDP=7.14D-03 MaxDP=2.61D-01 DE=-5.24D-02 OVMax= 1.63D-01

 Cycle   4  Pass 1  IDiag  1:
 E= -592.947516556610     Delta-E=        0.094421941057 Rises=F Damp=F
 DIIS: error= 3.26D-02 at cycle   4 NSaved=   4.
 NSaved= 4 IEnMin= 3 EnMin= -593.041938497667     IErMin= 3 ErrMin= 1.43D-02
 ErrMax= 3.26D-02  0.00D+00 EMaxC= 1.00D-01 BMatC= 1.25D-01 BMatP= 1.48D-02
 IDIUse=2 WtCom= 0.00D+00 WtEn= 1.00D+00
 Coeff-En:   0.000D+00 0.000D+00 0.803D+00 0.197D+00
 Coeff:      0.000D+00 0.000D+00 0.803D+00 0.197D+00
 Gap=     0.149 Goal=   None    Shift=    0.000
 RMSDP=3.23D-03 MaxDP=1.14D-01 DE= 9.44D-02 OVMax= 8.36D-02

 Cycle   5  Pass 1  IDiag  1:
 E= -593.050539723388     Delta-E=       -0.103023166777 Rises=F Damp=F
 DIIS: error= 9.39D-03 at cycle   5 NSaved=   5.
 NSaved= 5 IEnMin= 5 EnMin= -593.050539723388     IErMin= 5 ErrMin= 9.39D-03
 ErrMax= 9.39D-03  0.00D+00 EMaxC= 1.00D-01 BMatC= 1.04D-02 BMatP= 1.48D-02
 IDIUse=3 WtCom= 9.06D-01 WtEn= 9.39D-02
 Coeff-Com: -0.968D-03 0.196D-01 0.325D+00-0.955D-01 0.752D+00
 Coeff-En:   0.000D+00 0.000D+00 0.384D+00 0.000D+00 0.616D+00
 Coeff:     -0.877D-03 0.178D-01 0.330D+00-0.865D-01 0.739D+00
 Gap=     0.150 Goal=   None    Shift=    0.000
 RMSDP=1.41D-03 MaxDP=4.97D-02 DE=-1.03D-01 OVMax= 3.26D-02

 Cycle   6  Pass 1  IDiag  1:
 E= -593.059892490182     Delta-E=       -0.009352766795 Rises=F Damp=F
 DIIS: error= 1.71D-04 at cycle   6 NSaved=   6.
 NSaved= 6 IEnMin= 6 EnMin= -593.059892490182     IErMin= 6 ErrMin= 1.71D-04
 ErrMax= 1.71D-04  0.00D+00 EMaxC= 1.00D-01 BMatC= 5.44D-06 BMatP= 1.04D-02
 IDIUse=3 WtCom= 9.98D-01 WtEn= 1.71D-03
 Coeff-Com: -0.199D-02 0.807D-02 0.118D+00-0.478D-01 0.321D+00 0.603D+00
 Coeff-En:   0.000D+00 0.000D+00 0.000D+00 0.000D+00 0.000D+00 0.100D+01
 Coeff:     -0.199D-02 0.806D-02 0.118D+00-0.478D-01 0.321D+00 0.603D+00
 Gap=     0.150 Goal=   None    Shift=    0.000
 RMSDP=3.58D-05 MaxDP=6.68D-04 DE=-9.35D-03 OVMax= 6.16D-04

 Cycle   7  Pass 1  IDiag  1:
 E= -593.059897554647     Delta-E=       -0.000005064464 Rises=F Damp=F
 DIIS: error= 7.04D-05 at cycle   7 NSaved=   7.
 NSaved= 7 IEnMin= 7 EnMin= -593.059897554647     IErMin= 7 ErrMin= 7.04D-05
 ErrMax= 7.04D-05  0.00D+00 EMaxC= 1.00D-01 BMatC= 5.24D-07 BMatP= 5.44D-06
 IDIUse=1 WtCom= 1.00D+00 WtEn= 0.00D+00
 Coeff-Com: -0.378D-03 0.130D-02 0.200D-01-0.106D-01 0.593D-01 0.190D+00
 Coeff-Com:  0.741D+00
 Coeff:     -0.378D-03 0.130D-02 0.200D-01-0.106D-01 0.593D-01 0.190D+00
 Coeff:      0.741D+00
 Gap=     0.149 Goal=   None    Shift=    0.000
 RMSDP=1.21D-05 MaxDP=3.32D-04 DE=-5.06D-06 OVMax= 2.50D-04

 Cycle   8  Pass 1  IDiag  1:
 E= -593.059898053297     Delta-E=       -0.000000498650 Rises=F Damp=F
 DIIS: error= 1.22D-05 at cycle   8 NSaved=   8.
 NSaved= 8 IEnMin= 8 EnMin= -593.059898053297     IErMin= 8 ErrMin= 1.22D-05
 ErrMax= 1.22D-05  0.00D+00 EMaxC= 1.00D-01 BMatC= 1.56D-08 BMatP= 5.24D-07
 IDIUse=1 WtCom= 1.00D+00 WtEn= 0.00D+00
 Coeff-Com:  0.170D-04-0.894D-04 0.385D-02-0.198D-02 0.105D-01 0.481D-01
 Coeff-Com:  0.264D+00 0.675D+00
 Coeff:      0.170D-04-0.894D-04 0.385D-02-0.198D-02 0.105D-01 0.481D-01
 Coeff:      0.264D+00 0.675D+00
 Gap=     0.150 Goal=   None    Shift=    0.000
 RMSDP=6.60D-06 MaxDP=2.11D-04 DE=-4.99D-07 OVMax= 3.90D-05

 Cycle   9  Pass 1  IDiag  1:
 E= -593.059898070625     Delta-E=       -0.000000017329 Rises=F Damp=F
 DIIS: error= 2.08D-06 at cycle   9 NSaved=   9.
 NSaved= 9 IEnMin= 9 EnMin= -593.059898070625     IErMin= 9 ErrMin= 2.08D-06
 ErrMax= 2.08D-06  0.00D+00 EMaxC= 1.00D-01 BMatC= 5.60D-10 BMatP= 1.56D-08
 IDIUse=1 WtCom= 1.00D+00 WtEn= 0.00D+00
 Coeff-Com:  0.309D-04-0.704D-04-0.584D-03 0.870D-04-0.127D-02-0.884D-03
 Coeff-Com:  0.131D-01 0.174D+00 0.816D+00
 Coeff:      0.309D-04-0.704D-04-0.584D-03 0.870D-04-0.127D-02-0.884D-03
 Coeff:      0.131D-01 0.174D+00 0.816D+00
 Gap=     0.150 Goal=   None    Shift=    0.000
 RMSDP=9.64D-07 MaxDP=3.46D-05 DE=-1.73D-08 OVMax= 6.72D-06

 Cycle  10  Pass 1  IDiag  1:
 E= -593.059898071207     Delta-E=       -0.000000000581 Rises=F Damp=F
 DIIS: error= 2.65D-07 at cycle  10 NSaved=  10.
 NSaved=10 IEnMin=10 EnMin= -593.059898071207     IErMin=10 ErrMin= 2.65D-07
 ErrMax= 2.65D-07  0.00D+00 EMaxC= 1.00D-01 BMatC= 1.20D-11 BMatP= 5.60D-10
 IDIUse=1 WtCom= 1.00D+00 WtEn= 0.00D+00
 Coeff-Com:  0.716D-05-0.191D-04-0.107D-03 0.527D-04-0.299D-03-0.312D-03
 Coeff-Com: -0.282D-02 0.197D-01 0.151D+00 0.832D+00
 Coeff:      0.716D-05-0.191D-04-0.107D-03 0.527D-04-0.299D-03-0.312D-03
 Coeff:     -0.282D-02 0.197D-01 0.151D+00 0.832D+00
 Gap=     0.150 Goal=   None    Shift=    0.000
 RMSDP=6.68D-08 MaxDP=1.37D-06 DE=-5.81D-10 OVMax= 1.18D-06

 Cycle  11  Pass 1  IDiag  1:
 E= -593.059898071217     Delta-E=       -0.000000000010 Rises=F Damp=F
 DIIS: error= 6.35D-08 at cycle  11 NSaved=  11.
 NSaved=11 IEnMin=11 EnMin= -593.059898071217     IErMin=11 ErrMin= 6.35D-08
 ErrMax= 6.35D-08  0.00D+00 EMaxC= 1.00D-01 BMatC= 3.79D-13 BMatP= 1.20D-11
 IDIUse=1 WtCom= 1.00D+00 WtEn= 0.00D+00
 Coeff-Com: -0.897D-06 0.189D-05-0.756D-05 0.257D-05-0.941D-05-0.298D-04
 Coeff-Com: -0.728D-03-0.246D-02-0.368D-02 0.352D-01 0.972D+00
 Coeff:     -0.897D-06 0.189D-05-0.756D-05 0.257D-05-0.941D-05-0.298D-04
 Coeff:     -0.728D-03-0.246D-02-0.368D-02 0.352D-01 0.972D+00
 Gap=     0.150 Goal=   None    Shift=    0.000
 RMSDP=6.48D-08 MaxDP=2.52D-06 DE=-9.78D-12 OVMax= 1.96D-07

 Cycle  12  Pass 1  IDiag  1:
 E= -593.059898071219     Delta-E=       -0.000000000003 Rises=F Damp=F
 DIIS: error= 1.18D-08 at cycle  12 NSaved=  12.
 NSaved=12 IEnMin=12 EnMin= -593.059898071219     IErMin=12 ErrMin= 1.18D-08
 ErrMax= 1.18D-08  0.00D+00 EMaxC= 1.00D-01 BMatC= 4.20D-15 BMatP= 3.79D-13
 IDIUse=1 WtCom= 1.00D+00 WtEn= 0.00D+00
 Coeff-Com: -0.415D-06 0.887D-06-0.628D-06-0.372D-07 0.181D-05-0.652D-05
 Coeff-Com: -0.170D-03-0.971D-03-0.327D-02 0.318D-02 0.293D+00 0.708D+00
 Coeff:     -0.415D-06 0.887D-06-0.628D-06-0.372D-07 0.181D-05-0.652D-05
 Coeff:     -0.170D-03-0.971D-03-0.327D-02 0.318D-02 0.293D+00 0.708D+00
 Gap=     0.150 Goal=   None    Shift=    0.000
 RMSDP=1.61D-08 MaxDP=6.49D-07 DE=-2.50D-12 OVMax= 2.42D-08

 Cycle  13  Pass 1  IDiag  1:
 E= -593.059898071219     Delta-E=        0.000000000000 Rises=F Damp=F
 DIIS: error= 1.28D-09 at cycle  13 NSaved=  13.
 NSaved=13 IEnMin=12 EnMin= -593.059898071219     IErMin=13 ErrMin= 1.28D-09
 ErrMax= 1.28D-09  0.00D+00 EMaxC= 1.00D-01 BMatC= 1.81D-16 BMatP= 4.20D-15
 IDIUse=1 WtCom= 1.00D+00 WtEn= 0.00D+00
 Coeff-Com: -0.184D-07 0.288D-07 0.280D-06-0.686D-07 0.498D-06-0.234D-05
 Coeff-Com:  0.760D-05-0.160D-04-0.357D-03 0.897D-03-0.112D-01 0.778D-01
 Coeff-Com:  0.933D+00
 Coeff:     -0.184D-07 0.288D-07 0.280D-06-0.686D-07 0.498D-06-0.234D-05
 Coeff:      0.760D-05-0.160D-04-0.357D-03 0.897D-03-0.112D-01 0.778D-01
 Coeff:      0.933D+00
 Gap=     0.150 Goal=   None    Shift=    0.000
 RMSDP=2.10D-09 MaxDP=7.95D-08 DE= 3.41D-13 OVMax= 6.49D-09

 SCF Done:  E(RB3LYP) =  -593.059898071     A.U. after   13 cycles
            NFock= 13  Conv=0.21D-08     -V/T= 2.0047
 KE= 5.902688226175D+02 PE=-1.618061774901D+03 EE= 3.307585196079D+02
 Leave Link  502 at Sun Oct 13 09:46:51 2024, MaxMem=  2684354560 cpu:              39.4 elap:               1.8
 (Enter /usr/local/g16_AVX//g16/l801.exe)
 DoSCS=F DFT=T ScalE2(SS,OS)=  1.000000  1.000000
 Range of M.O.s used for correlation:     1    98
 NBasis=    98 NAE=    20 NBE=    20 NFC=     0 NFV=     0
 NROrb=     98 NOA=    20 NOB=    20 NVA=    78 NVB=    78

 **** Warning!!: The largest alpha MO coefficient is  0.12357719D+03

 Leave Link  801 at Sun Oct 13 09:46:51 2024, MaxMem=  2684354560 cpu:               0.7 elap:               0.1
 (Enter /usr/local/g16_AVX//g16/l1101.exe)
 Using compressed storage, NAtomX=     7.
 Will process      8 centers per pass.
 Leave Link 1101 at Sun Oct 13 09:46:51 2024, MaxMem=  2684354560 cpu:               3.5 elap:               0.2
 (Enter /usr/local/g16_AVX//g16/l1102.exe)
 Symmetrizing basis deriv contribution to polar:
 IMax=3 JMax=2 DiffMx= 0.00D+00
 Leave Link 1102 at Sun Oct 13 09:46:51 2024, MaxMem=  2684354560 cpu:               0.7 elap:               0.1
 (Enter /usr/local/g16_AVX//g16/l1110.exe)
 Forming Gx(P) for the SCF density, NAtomX=     7.
 Integral derivatives from FoFJK, PRISM(SPDF).
 Do as many integral derivatives as possible in FoFJK.
 G2DrvN: MDV=    2684353864.
 G2DrvN: will do     8 centers at a time, making    1 passes.
 Calling FoFCou, ICntrl=  3107 FMM=F I1Cent=   0 AccDes= 0.00D+00.
 FoFJK:  IHMeth= 1 ICntrl=    3107 DoSepK=F KAlg= 0 I1Cent=           0 FoldK=F
 IRaf=         0 NMat=       1 IRICut=       1 DoRegI=T DoRafI=F ISym2E= 0 IDoP0=0 IntGTp=1.
 FoFCou: FMM=F IPFlag=           0 FMFlag=      100000 FMFlg1=           0
         NFxFlg=           0 DoJE=F BraDBF=F KetDBF=F FulRan=T
         wScrn=  0.000000 ICntrl=      3107 IOpCl=  0 I1Cent=           0 NGrid=           0
         NMat0=    1 NMatS0=      1 NMatT0=    0 NMatD0=    1 NMtDS0=    0 NMtDT0=    0
 Symmetry not used in FoFCou.
 End of G2Drv F.D. properties file   721 does not exist.
 End of G2Drv F.D. properties file   722 does not exist.
 End of G2Drv F.D. properties file   788 does not exist.
 Leave Link 1110 at Sun Oct 13 09:46:53 2024, MaxMem=  2684354560 cpu:              39.4 elap:               1.6
 (Enter /usr/local/g16_AVX//g16/l1002.exe)
 Minotr:  Closed shell wavefunction.
          IDoAtm=1111111
          Direct CPHF calculation.
          Differentiating once with respect to electric field.
                with respect to dipole field.
          Differentiating once with respect to nuclear coordinates.
          Requested convergence is 1.0D-08 RMS, and 1.0D-07 maximum.
          Secondary convergence is 1.0D-12 RMS, and 1.0D-12 maximum.
          NewPWx=T KeepS1=F KeepF1=F KeepIn=T MapXYZ=F SortEE=F KeepMc=T.
         2136 words used for storage of precomputed grid.
 Keep R1 ints in memory in canonical form, NReq=35668397.
 FoFCou: FMM=F IPFlag=           0 FMFlag=           0 FMFlg1=           0
         NFxFlg=           0 DoJE=F BraDBF=F KetDBF=F FulRan=T
         wScrn=  0.000000 ICntrl=       600 IOpCl=  0 I1Cent=           0 NGrid=           0
         NMat0=    1 NMatS0=   4851 NMatT0=    0 NMatD0=    1 NMtDS0=    0 NMtDT0=    0
 Symmetry not used in FoFCou.
 Two-electron integral symmetry not used.
          MDV=    2684354560 using IRadAn=       1.
          Solving linear equations simultaneously, MaxMat=       0.
          There are    24 degrees of freedom in the 1st order CPHF.  IDoFFX=6 NUNeed=     3.
     21 vectors produced by pass  0 Test12= 6.50D-15 4.17D-09 XBig12= 6.89D+01 2.83D+00.
 AX will form    21 AO Fock derivatives at one time.
     21 vectors produced by pass  1 Test12= 6.50D-15 4.17D-09 XBig12= 4.89D+01 1.97D+00.
     21 vectors produced by pass  2 Test12= 6.50D-15 4.17D-09 XBig12= 1.89D+00 4.54D-01.
     21 vectors produced by pass  3 Test12= 6.50D-15 4.17D-09 XBig12= 8.53D-03 1.71D-02.
     21 vectors produced by pass  4 Test12= 6.50D-15 4.17D-09 XBig12= 1.01D-05 5.48D-04.
     18 vectors produced by pass  5 Test12= 6.50D-15 4.17D-09 XBig12= 1.59D-08 2.82D-05.
      5 vectors produced by pass  6 Test12= 6.50D-15 4.17D-09 XBig12= 3.47D-11 1.38D-06.
      3 vectors produced by pass  7 Test12= 6.50D-15 4.17D-09 XBig12= 6.11D-14 6.96D-08.
 InvSVY:  IOpt=1 It=  1 EMax= 3.55D-15
 Solved reduced A of dimension   131 with    24 vectors.
 FullF1:  Do perturbations      1 to       3.
 Isotropic polarizability for W=    0.000000       53.85 Bohr**3.
 End of Minotr F.D. properties file   721 does not exist.
 End of Minotr F.D. properties file   722 does not exist.
 End of Minotr F.D. properties file   788 does not exist.
 Leave Link 1002 at Sun Oct 13 09:46:55 2024, MaxMem=  2684354560 cpu:              54.5 elap:               2.1
 (Enter /usr/local/g16_AVX//g16/l601.exe)
 Copying SCF densities to generalized density rwf, IOpCl= 0 IROHF=0.

 **********************************************************************

            Population analysis using the SCF Density.

 **********************************************************************

 Alpha  occ. eigenvalues -- -101.25424 -14.23295 -10.13016 -10.10281  -9.16756
 Alpha  occ. eigenvalues --   -6.92537  -6.92537  -6.92533  -0.80254  -0.64914
 Alpha  occ. eigenvalues --   -0.50499  -0.38683  -0.33277  -0.33275  -0.26298
 Alpha  occ. eigenvalues --   -0.22169  -0.22168  -0.05237  -0.05115  -0.05114
 Alpha virt. eigenvalues --    0.09840   0.13251   0.13262   0.14153   0.14394
 Alpha virt. eigenvalues --    0.14398   0.19770   0.20314   0.20322   0.21938
 Alpha virt. eigenvalues --    0.22822   0.22835   0.24932   0.25856   0.25864
 Alpha virt. eigenvalues --    0.28649   0.32476   0.33224   0.33228   0.33850
 Alpha virt. eigenvalues --    0.33861   0.34110   0.39246   0.40544   0.48126
 Alpha virt. eigenvalues --    0.69452   0.78294   0.78296   0.84062   0.84077
 Alpha virt. eigenvalues --    0.84987   0.85056   0.85070   0.88170   0.98397
 Alpha virt. eigenvalues --    1.01304   1.01986   1.02000   1.09567   1.11349
 Alpha virt. eigenvalues --    1.11353   1.15455   1.15456   1.15944   1.15946
 Alpha virt. eigenvalues --    1.19439   1.23497   1.26737   1.44745   1.44747
 Alpha virt. eigenvalues --    1.53444   1.62189   1.62189   1.85667   1.85677
 Alpha virt. eigenvalues --    1.88706   2.04861   2.04869   2.14083   2.22838
 Alpha virt. eigenvalues --    2.22848   2.29589   2.39128   2.39140   2.74624
 Alpha virt. eigenvalues --    2.79578   2.79597   3.04367   3.08316   3.08330
 Alpha virt. eigenvalues --    3.27727   3.44452   3.54314   3.54345   4.24222
 Alpha virt. eigenvalues --    4.43117   4.57059   4.80251
          Condensed to atoms (all electrons):
               1          2          3          4          5          6
     1  C    5.841676  -0.091244   0.416538   0.419752   0.420049  -0.909997
     2  Cl  -0.091244  17.926627  -0.004461  -0.004424  -0.004425   0.114219
     3  H    0.416538  -0.004461   0.484953  -0.023559  -0.023557  -0.060095
     4  H    0.419752  -0.004424  -0.023559   0.486207  -0.023683  -0.063980
     5  H    0.420049  -0.004425  -0.023557  -0.023683   0.486110  -0.064202
     6  C   -0.909997   0.114219  -0.060095  -0.063980  -0.064202   6.613486
     7  N   -0.017731   0.000029  -0.004643  -0.004493  -0.004518   0.424746
               7
     1  C   -0.017731
     2  Cl   0.000029
     3  H   -0.004643
     4  H   -0.004493
     5  H   -0.004518
     6  C    0.424746
     7  N    7.180298
 Mulliken charges:
               1
     1  C   -0.079042
     2  Cl  -0.936322
     3  H    0.214824
     4  H    0.214180
     5  H    0.214226
     6  C   -0.054178
     7  N   -0.573688
 Sum of Mulliken charges =  -1.00000
 Mulliken charges with hydrogens summed into heavy atoms:
               1
     1  C    0.564188
     2  Cl  -0.936322
     6  C   -0.054178
     7  N   -0.573688
 APT charges:
               1
     1  C    0.008464
     2  Cl  -0.985607
     3  H    0.081485
     4  H    0.080561
     5  H    0.080587
     6  C    0.204010
     7  N   -0.469500
 Sum of APT charges =  -1.00000
 APT charges with hydrogens summed into heavy atoms:
               1
     1  C    0.251096
     2  Cl  -0.985607
     6  C    0.204010
     7  N   -0.469500
 Electronic spatial extent (au):  <R**2>=            966.8451
 Charge=             -1.0000 electrons
 Dipole moment (field-independent basis, Debye):
    X=              6.5670    Y=              0.0001    Z=              0.0192  Tot=              6.5670
 Quadrupole moment (field-independent basis, Debye-Ang):
   XX=            -90.6923   YY=            -35.4584   ZZ=            -35.4570
   XY=              0.0011   XZ=             -0.0019   YZ=             -0.0001
 Traceless Quadrupole moment (field-independent basis, Debye-Ang):
   XX=            -36.8230   YY=             18.4108   ZZ=             18.4122
   XY=              0.0011   XZ=             -0.0019   YZ=             -0.0001
 Octapole moment (field-independent basis, Debye-Ang**2):
  XXX=             -7.4238  YYY=             -0.0061  ZZZ=             -0.8439  XYY=              4.6434
  XXY=              0.0026  XXZ=              0.1226  XZZ=              4.6391  YZZ=              0.0051
  YYZ=              0.8627  XYZ=             -0.0002
 Hexadecapole moment (field-independent basis, Debye-Ang**3):
 XXXX=          -1960.6578 YYYY=            -58.2758 ZZZZ=            -58.2954 XXXY=              0.0137
 XXXZ=             -0.2157 YYYX=             -0.0001 YYYZ=             -0.0006 ZZZX=             -0.6670
 ZZZY=             -0.0001 XXYY=           -244.1170 XXZZ=           -244.1210 YYZZ=            -19.4147
 XXYZ=             -0.0003 YYXZ=              0.2733 ZZXY=              0.0031
 N-N= 1.039745346040D+02 E-N=-1.618061774666D+03  KE= 5.902688226175D+02
  Exact polarizability:  78.294  -0.004  41.617  -0.031   0.000  41.627
 Approx polarizability:  96.697  -0.011  49.810  -0.073   0.001  49.823
 No NMR shielding tensors so no spin-rotation constants.
 Leave Link  601 at Sun Oct 13 09:46:55 2024, MaxMem=  2684354560 cpu:               2.7 elap:               0.1
 (Enter /usr/local/g16_AVX//g16/l701.exe)
 ... and contract with generalized density number  0.
 Compute integral second derivatives.
 Leave Link  701 at Sun Oct 13 09:46:55 2024, MaxMem=  2684354560 cpu:               4.7 elap:               0.2
 (Enter /usr/local/g16_AVX//g16/l702.exe)
 L702 exits ... SP integral derivatives will be done elsewhere.
 Leave Link  702 at Sun Oct 13 09:46:55 2024, MaxMem=  2684354560 cpu:               0.6 elap:               0.1
 (Enter /usr/local/g16_AVX//g16/l703.exe)
 Integral derivatives from FoFJK, PRISM(SPDF).
 Compute integral second derivatives, UseDBF=F ICtDFT=           0.
 Calling FoFJK, ICntrl=    100127 FMM=F ISym2X=0 I1Cent= 0 IOpClX= 0 NMat=1 NMatS=1 NMatT=0.
 FoFJK:  IHMeth= 1 ICntrl=  100127 DoSepK=F KAlg= 0 I1Cent=           0 FoldK=F
 IRaf=         0 NMat=       1 IRICut=       1 DoRegI=T DoRafI=F ISym2E= 0 IDoP0=0 IntGTp=1.
 FoFCou: FMM=F IPFlag=           0 FMFlag=      100000 FMFlg1=         800
         NFxFlg=           0 DoJE=F BraDBF=F KetDBF=F FulRan=T
         wScrn=  0.000000 ICntrl=    100127 IOpCl=  0 I1Cent=           0 NGrid=           0
         NMat0=    1 NMatS0=      1 NMatT0=    0 NMatD0=    1 NMtDS0=    0 NMtDT0=    0
 Symmetry not used in FoFCou.
 Leave Link  703 at Sun Oct 13 09:46:58 2024, MaxMem=  2684354560 cpu:              66.2 elap:               2.6
 (Enter /usr/local/g16_AVX//g16/l716.exe)
 Dipole        = 2.58365448D+00 4.27407051D-05 7.55310669D-03
 Polarizability= 7.82938015D+01-3.80635962D-03 4.16165365D+01
                -3.11865729D-02 2.99499623D-04 4.16271335D+01
 Full mass-weighted force constant matrix:
 Low frequencies ---  -61.9833  -61.2976   -0.0049    0.0008    0.0015   13.5376
 Low frequencies ---   13.6624   83.5045  125.7495
 ******    2 imaginary frequencies (negative Signs) ****** 
 Diagonal vibrational polarizability:
       80.5104051     169.9896937     165.5284724
 Harmonic frequencies (cm**-1), IR intensities (KM/Mole), Raman scattering
 activities (A**4/AMU), depolarization ratios for plane and unpolarized
 incident light, reduced masses (AMU), force constants (mDyne/A),
 and normal coordinates:
                      1                      2                      3
                      A                      A                      A
 Frequencies --    -58.1447               -57.3599                83.5044
 Red. masses --      3.5514                 3.5561                11.9428
 Frc consts  --      0.0071                 0.0069                 0.0491
 IR Inten    --     20.7332                20.7280                20.5938
  Atom  AN      X      Y      Z        X      Y      Z        X      Y      Z
     1   6     0.00  -0.02   0.37    -0.00   0.37   0.02    -0.36  -0.00  -0.00
     2  17     0.00   0.01  -0.08     0.00  -0.08  -0.01     0.43   0.00   0.00
     3   1    -0.28  -0.03   0.48    -0.02   0.48   0.03    -0.37  -0.00   0.00
     4   1     0.12  -0.03   0.47     0.25   0.47   0.05    -0.37  -0.00  -0.01
     5   1     0.16  -0.04   0.47    -0.23   0.47   0.01    -0.37   0.00  -0.01
     6   6    -0.00  -0.00   0.02    -0.00   0.02   0.00    -0.37  -0.00  -0.00
     7   7    -0.00   0.02  -0.24    -0.00  -0.24  -0.02    -0.37   0.00   0.00
                      4                      5                      6
                      A                      A                      A
 Frequencies --    371.7230               371.9895               921.6420
 Red. masses --      3.5477                 3.5485                 4.7427
 Frc consts  --      0.2888                 0.2893                 2.3735
 IR Inten    --      1.3662                 1.3588                 9.8552
  Atom  AN      X      Y      Z        X      Y      Z        X      Y      Z
     1   6    -0.00   0.01  -0.06     0.00  -0.06  -0.01     0.44  -0.00  -0.00
     2  17     0.00   0.00  -0.00     0.00  -0.00  -0.00    -0.00   0.00   0.00
     3   1     0.59   0.04  -0.29     0.08  -0.28  -0.04     0.48   0.00  -0.01
     4   1    -0.23   0.04  -0.28    -0.55  -0.28  -0.04     0.48   0.01   0.00
     5   1    -0.36   0.04  -0.28     0.47  -0.28  -0.04     0.47  -0.01   0.00
     6   6     0.00  -0.05   0.40     0.00   0.40   0.05    -0.20  -0.00   0.00
     7   7    -0.00   0.03  -0.23    -0.00  -0.23  -0.03    -0.30   0.00   0.00
                      7                      8                      9
                      A                      A                      A
 Frequencies --   1021.6234              1022.1020              1365.2966
 Red. masses --      1.5095                 1.5083                 1.2238
 Frc consts  --      0.9282                 0.9284                 1.3440
 IR Inten    --      1.3332                 1.3260                34.2229
  Atom  AN      X      Y      Z        X      Y      Z        X      Y      Z
     1   6     0.00  -0.01   0.16     0.00  -0.16  -0.01    -0.14  -0.00   0.00
     2  17     0.00   0.00  -0.00    -0.00   0.00   0.00     0.00  -0.00  -0.00
     3   1     0.71   0.02  -0.12    -0.03   0.33   0.01     0.52   0.00  -0.24
     4   1    -0.33   0.10  -0.28     0.64   0.17  -0.08     0.52   0.20   0.12
     5   1    -0.39  -0.08  -0.27    -0.60   0.17   0.11     0.52  -0.20   0.12
     6   6    -0.00   0.01  -0.13     0.00   0.13   0.01     0.00   0.00  -0.00
     7   7     0.00  -0.00   0.02    -0.00  -0.02  -0.00     0.01   0.00   0.00
                     10                     11                     12
                      A                      A                      A
 Frequencies --   1449.8734              1449.9759              2348.7419
 Red. masses --      1.0400                 1.0401                12.5176
 Frc consts  --      1.2881                 1.2884                40.6857
 IR Inten    --     13.3095                13.3113                45.4743
  Atom  AN      X      Y      Z        X      Y      Z        X      Y      Z
     1   6     0.00  -0.04  -0.02     0.00   0.02  -0.04    -0.09  -0.00   0.00
     2  17     0.00  -0.00  -0.00     0.00   0.00  -0.00     0.00  -0.00  -0.00
     3   1     0.14   0.66  -0.06     0.33  -0.28  -0.15    -0.07  -0.00   0.02
     4   1    -0.36  -0.09  -0.16    -0.05  -0.37   0.60    -0.07  -0.02  -0.01
     5   1     0.22   0.20   0.54    -0.29   0.33   0.31    -0.07   0.02  -0.01
     6   6    -0.00  -0.02  -0.01    -0.00   0.01  -0.02     0.79  -0.00  -0.00
     7   7     0.00   0.00   0.00    -0.00  -0.00   0.00    -0.59   0.00   0.00
                     13                     14                     15
                      A                      A                      A
 Frequencies --   3082.8517              3165.1095              3166.1443
 Red. masses --      1.0337                 1.1031                 1.1032
 Frc consts  --      5.7880                 6.5111                 6.5155
 IR Inten    --      1.3565                 0.1782                 0.1979
  Atom  AN      X      Y      Z        X      Y      Z        X      Y      Z
     1   6    -0.05   0.00   0.00    -0.00  -0.09  -0.02    -0.00   0.02  -0.09
     2  17    -0.00  -0.00  -0.00    -0.00   0.00   0.00    -0.00  -0.00   0.00
     3   1     0.19  -0.00   0.54     0.07  -0.02   0.18     0.28   0.00   0.74
     4   1     0.19  -0.47  -0.28    -0.27   0.63   0.37    -0.08   0.19   0.09
     5   1     0.19   0.47  -0.27     0.21   0.47  -0.29    -0.19  -0.46   0.25
     6   6    -0.00   0.00   0.00    -0.00   0.00   0.00    -0.00  -0.00   0.00
     7   7     0.00   0.00  -0.00     0.00  -0.00  -0.00     0.00   0.00  -0.00

 -------------------
 - Thermochemistry -
 -------------------
 Temperature   298.150 Kelvin.  Pressure   1.00000 Atm.
 Atom     1 has atomic number  6 and mass  12.00000
 Atom     2 has atomic number 17 and mass  34.96885
 Atom     3 has atomic number  1 and mass   1.00783
 Atom     4 has atomic number  1 and mass   1.00783
 Atom     5 has atomic number  1 and mass   1.00783
 Atom     6 has atomic number  6 and mass  12.00000
 Atom     7 has atomic number  7 and mass  14.00307
 Molecular mass:    75.99540 amu.
 Principal axes and moments of inertia in atomic units:
                           1         2         3
     Eigenvalues --    11.312401696.523791696.52534
           X            1.00000  -0.00044  -0.00001
           Y           -0.00001  -0.03571   0.99936
           Z            0.00044   0.99936   0.03571
 This molecule is an asymmetric top.
 Rotational symmetry number  1.
 Rotational temperatures (Kelvin)      7.65655     0.05105     0.05105
 Rotational constants (GHZ):         159.53659     1.06379     1.06379
    2 imaginary frequencies ignored.
 Zero-point vibrational energy     118553.4 (Joules/Mol)
                                   28.33494 (Kcal/Mol)
 Warning -- explicit consideration of   3 degrees of freedom as
           vibrations may cause significant error
 Vibrational temperatures:    120.14   534.83   535.21  1326.04  1469.89
          (Kelvin)           1470.58  1964.36  2086.04  2086.19  3379.32
                             4435.54  4553.89  4555.38
 
 Zero-point correction=                           0.045155 (Hartree/Particle)
 Thermal correction to Energy=                    0.049568
 Thermal correction to Enthalpy=                  0.050512
 Thermal correction to Gibbs Free Energy=         0.017162
 Sum of electronic and zero-point Energies=           -593.014743
 Sum of electronic and thermal Energies=              -593.010330
 Sum of electronic and thermal Enthalpies=            -593.009386
 Sum of electronic and thermal Free Energies=         -593.042736
 
                     E (Thermal)             CV                S
                      KCal/Mol        Cal/Mol-Kelvin    Cal/Mol-Kelvin
 Total                   31.104             12.462             70.191
 Electronic               0.000              0.000              0.000
 Translational            0.889              2.981             38.900
 Rotational               0.889              2.981             24.991
 Vibrational             29.327              6.500              6.301
 Vibration     1          0.600              1.961              3.807
 Vibration     2          0.743              1.530              1.073
 Vibration     3          0.744              1.530              1.072
                       Q            Log10(Q)             Ln(Q)
 Total Bot       0.127692D-07         -7.893838        -18.176233
 Total V=0       0.751307D+13         12.875818         29.647666
 Vib (Bot)       0.759180D-20        -20.119655        -46.327219
 Vib (Bot)    1  0.246489D+01          0.391798          0.902147
 Vib (Bot)    2  0.489193D+00         -0.310520         -0.714998
 Vib (Bot)    3  0.488753D+00         -0.310910         -0.715897
 Vib (V=0)       0.446683D+01          0.650000          1.496680
 Vib (V=0)    1  0.301509D+01          0.479301          1.103630
 Vib (V=0)    2  0.119951D+01          0.079003          0.181911
 Vib (V=0)    3  0.119920D+01          0.078891          0.181654
 Electronic      0.100000D+01          0.000000          0.000000
 Translational   0.260396D+08          7.415635         17.075130
 Rotational      0.645926D+05          4.810183         11.075856
 
                                                       RxCoord=-8.78660 DE=0.35
                                                             IR Spectrum
 
     33  3                            2                                   1   1             1                                        
     11  0                            3                                   4   3             0   9                     3              
     66  8                            4                                   5   6             2   2                     7          8   
     65  3                            9                                   0   5             2   2                     2          4   
 
     XX  X                            X                                   X   X             X   X                     X          X   
                                      X                                   X   X                 X                                X   
                                      X                                   X   X                 X                                X   
                                      X                                   X   X                 X                                X   
                                      X                                   X   X                                                  X   
                                      X                                   X   X                                                  X   
                                      X                                   X   X                                                  X   
                                      X                                   X   X                                                  X   
                                      X                                   X   X                                                  X   
                                      X                                   X   X                                                      
                                      X                                   X   X                                                      
                                      X                                   X   X                                                      
                                      X                                       X                                                      
                                      X                                       X                                                      
                                      X                                       X                                                      
                                      X                                                                                              
                                      X                                                                                              
                                      X                                                                                              
                                      X                                                                                              
                                      X                                                                                              
 
 -------------------------------------------------------------------
 Center     Atomic                   Forces (Hartrees/Bohr)
 Number     Number              X              Y              Z
 -------------------------------------------------------------------
      1        6           0.002683236    0.000090351    0.000083335
      2       17           0.001202559   -0.000000379   -0.000000618
      3        1          -0.003050035   -0.000005174    0.001136951
      4        1          -0.002997151   -0.001041161   -0.000622961
      5        1          -0.002988234    0.000996296   -0.000594637
      6        6           0.001462684   -0.000065876    0.000004319
      7        7           0.003686942    0.000025943   -0.000006389
 -------------------------------------------------------------------
 Cartesian Forces:  Max     0.003686942 RMS     0.001628982
 Z-matrix is all fixed cartesians, so copy forces.
 Force constants in Cartesian coordinates: 
                1             2             3             4             5 
      1  0.487378D+00
      2  0.686256D-04  0.556896D+00
      3  0.256999D-03 -0.112113D-03  0.557258D+00
      4 -0.378407D-02 -0.154155D-05  0.582826D-05  0.502242D-02
      5  0.000000D+00 -0.389100D-03  0.000000D+00  0.000000D+00  0.178150D-03
      6  0.286461D-05  0.000000D+00 -0.392788D-03  0.151900D-04  0.000000D+00
      7 -0.721374D-01  0.185677D-03 -0.902685D-01  0.266494D-03  0.207848D-05
      8  0.180922D-03 -0.411185D-01  0.533060D-03  0.194249D-05 -0.867371D-03
      9 -0.891130D-01  0.534314D-03 -0.292978D+00 -0.106823D-02 -0.270579D-05
     10 -0.714980D-01  0.772029D-01  0.448833D-01  0.257681D-03  0.842948D-03
     11  0.762096D-01 -0.229637D+00 -0.109542D+00  0.907351D-03  0.803032D-04
     12  0.443104D-01 -0.109545D+00 -0.104830D+00  0.531694D-03  0.541033D-03
     13 -0.714690D-01 -0.774124D-01  0.445724D-01  0.258252D-03 -0.844906D-03
     14 -0.764226D-01 -0.230674D+00  0.109117D+00 -0.908646D-03  0.846219D-04
     15  0.440042D-01  0.109119D+00 -0.103955D+00  0.527127D-03 -0.538197D-03
     16 -0.258118D+00 -0.718773D-04  0.474101D-03 -0.646561D-05  0.000000D+00
     17 -0.149013D-04 -0.763401D-01  0.249992D-05  0.000000D+00  0.102226D-02
     18  0.465180D-03  0.261012D-05 -0.763774D-01 -0.223377D-04  0.000000D+00
     19 -0.103714D-01  0.286588D-04  0.758299D-04 -0.201432D-02  0.000000D+00
     20 -0.211303D-04  0.212621D-01  0.225592D-05  0.000000D+00 -0.108863D-03
     21  0.733963D-04  0.212389D-05  0.212750D-01  0.107321D-04  0.000000D+00
                6             7             8             9            10 
      6  0.176038D-03
      7 -0.987219D-03  0.835415D-01
      8 -0.265511D-05 -0.202484D-03  0.430304D-01
      9  0.372093D-03  0.990632D-01 -0.566042D-03  0.312182D+00
     10  0.490363D-03  0.444898D-02 -0.978428D-02 -0.463394D-02  0.828499D-01
     11  0.541626D-03 -0.920129D-03  0.601922D-03  0.129134D-02 -0.847824D-01
     12 -0.533826D-03  0.106786D-01 -0.241202D-01 -0.127228D-01 -0.493100D-01
     13  0.486977D-03  0.444639D-02  0.980570D-02 -0.459264D-02  0.439900D-02
     14 -0.538843D-03  0.876680D-03  0.510847D-03 -0.123922D-02 -0.877931D-02
     15 -0.538115D-03  0.106745D-01  0.241779D-01 -0.126240D-01 -0.615609D-02
     16 -0.418106D-05 -0.208558D-01  0.534423D-05 -0.288716D-02 -0.207020D-01
     17  0.000000D+00  0.666297D-04 -0.328693D-02 -0.221141D-04  0.289472D-01
     18  0.102706D-02 -0.333643D-01 -0.277464D-04  0.728770D-02  0.168403D-01
     19 -0.399466D-05  0.289931D-03 -0.715111D-05  0.323181D-02  0.244423D-03
     20  0.000000D+00 -0.845166D-05  0.112960D-02  0.442660D-05 -0.364709D-02
     21 -0.110459D-03  0.420364D-02  0.571775D-05 -0.151732D-02 -0.211394D-02
               11            12            13            14            15 
     11  0.244532D+00
     12  0.117106D+00  0.111108D+00
     13  0.881304D-02 -0.612468D-02  0.828051D-01
     14 -0.192830D-01  0.126850D-01  0.850012D-01  0.245633D+00
     15 -0.127962D-01  0.720437D-02 -0.489607D-01 -0.116641D+00  0.110167D+00
     16  0.256341D-02  0.152774D-02 -0.206941D-01 -0.256297D-02  0.151237D-02
     17  0.453673D-02  0.446126D-02 -0.290185D-01  0.456870D-02 -0.444417D-02
     18  0.452930D-02 -0.705842D-03  0.167171D-01 -0.450656D-02 -0.744242D-03
     19 -0.279090D-02 -0.161373D-02  0.254295D-03  0.279565D-02 -0.160148D-02
     20 -0.831119D-03 -0.112808D-02  0.365592D-02 -0.840658D-03  0.112262D-02
     21 -0.113019D-02  0.480087D-03 -0.209843D-02  0.112345D-02  0.489631D-03
               16            17            18            19            20 
     16  0.155721D+01
     17 -0.321291D-03  0.108216D+00
     18 -0.370403D-02  0.409699D-05  0.108248D+00
     19 -0.123683D+01  0.340209D-03  0.306812D-02  0.124843D+01
     20  0.387070D-03 -0.387169D-01 -0.203816D-05 -0.366467D-03  0.181058D-01
     21  0.308117D-02 -0.191815D-05 -0.387357D-01 -0.315657D-02  0.000000D+00
               21 
     21  0.181187D-01
 Leave Link  716 at Sun Oct 13 09:46:58 2024, MaxMem=  2684354560 cpu:               0.9 elap:               0.1
 (Enter /usr/local/g16_AVX//g16/l103.exe)

 GradGradGradGradGradGradGradGradGradGradGradGradGradGradGradGradGradGrad
 Berny optimization.
 Search for a local minimum.
 Step number   1 out of a maximum of    2
 All quantities printed in internal units (Hartrees-Bohrs-Radians)
 Second derivative matrix not updated -- analytic derivatives used.
 ITU=  0
     Eigenvalues ---   -0.00054  -0.00053   0.00493   0.02466   0.02469
     Eigenvalues ---    0.09655   0.09657   0.09760   0.16274   0.16275
     Eigenvalues ---    0.28086   0.64865   0.81992   0.82054   2.66463
 Eigenvalue     1 is  -5.40D-04 should be greater than     0.000000 Eigenvector:
                          Z3        Z5        Z4        Z7        Z1
   1                    0.44222   0.42909   0.42784  -0.35390   0.33025
                          X3        Z2        X5        X4        Z6
   1                   -0.29638  -0.25383   0.16407   0.13275  -0.05110
 Eigenvalue     2 is  -5.25D-04 should be greater than     0.000000 Eigenvector:
                          Y4        Y5        Y3        Y7        Y1
   1                    0.43504   0.43417   0.42995  -0.35423   0.33050
                          X4        Y2        X5        Y6        Z4
   1                    0.26532  -0.25389  -0.24743  -0.05090   0.03833
 Quadratic step=3.021D-01 exceeds max=3.000D-01 adjusted using Lamda=-3.583D-05.
 Angle between NR and scaled steps=   0.14 degrees.
 Angle between quadratic step and forces=  67.02 degrees.
 Linear search not attempted -- first point.
 B after Tr=     0.047704   -0.000079   -0.001571
         Rot=    1.000000    0.000000    0.000112   -0.000007 Ang=   0.01 deg.
 Variable       Old X    -DE/DX   Delta X   Delta X   Delta X     New X
                                 (Linear)    (Quad)   (Total)
    X1        1.65902   0.00268   0.00000  -0.06655  -0.01885   1.64018
    Y1       -0.00022   0.00009   0.00000   0.00020   0.00015  -0.00008
    Z1        0.00937   0.00008   0.00000   0.00298   0.00176   0.01113
    X2       -4.81194   0.00120   0.00000   0.19434   0.24205  -4.56990
    Y2        0.00003  -0.00000   0.00000  -0.00008  -0.00023  -0.00020
    Z2       -0.00385  -0.00000   0.00000  -0.00213  -0.00474  -0.00859
    X3        0.93664  -0.00305   0.00000  -0.11914  -0.07101   0.86563
    Y3        0.00384  -0.00001   0.00000   0.00016   0.00009   0.00393
    Z3       -1.92274   0.00114   0.00000   0.02225   0.02087  -1.90187
    X4        0.94395  -0.00300   0.00000  -0.11389  -0.06643   0.87753
    Y4        1.67282  -0.00104   0.00000  -0.01517  -0.01523   1.65759
    Z4        0.98191  -0.00062   0.00000  -0.00527  -0.00666   0.97525
    X5        0.94429  -0.00299   0.00000  -0.11439  -0.06688   0.87741
    Y5       -1.67725   0.00100   0.00000   0.01562   0.01555  -1.66170
    Z5        0.97495  -0.00059   0.00000  -0.00522  -0.00661   0.96834
    X6        4.41320   0.00146   0.00000  -0.05874  -0.01103   4.40217
    Y6        0.00047  -0.00007   0.00000  -0.00054  -0.00056  -0.00009
    Z6        0.00258   0.00000   0.00000  -0.00070  -0.00130   0.00128
    X7        6.60958   0.00369   0.00000  -0.05555  -0.00785   6.60173
    Y7       -0.00025   0.00003   0.00000   0.00021   0.00023  -0.00001
    Z7       -0.00307  -0.00001   0.00000  -0.00323  -0.00333  -0.00640
         Item               Value     Threshold  Converged?
 Maximum Force            0.003687     0.000450     NO 
 RMS     Force            0.001629     0.000300     NO 
 Maximum Displacement     0.242045     0.001800     NO 
 RMS     Displacement     0.059397     0.001200     NO 
 Predicted change in Energy=-4.388217D-04
 GradGradGradGradGradGradGradGradGradGradGradGradGradGradGradGradGradGrad

 Leave Link  103 at Sun Oct 13 09:46:58 2024, MaxMem=  2684354560 cpu:               0.6 elap:               0.1
 (Enter /usr/local/g16_AVX//g16/l9999.exe)

 ----------------------------------------------------------------------

 Electric dipole moment (input orientation):
 (Debye = 10**-18 statcoulomb cm , SI units = C m)
                  (au)            (Debye)         (10**-30 SI)
   Tot        0.258367D+01      0.656702D+01      0.219052D+02
   x          0.258365D+01      0.656699D+01      0.219051D+02
   y          0.427407D-04      0.108636D-03      0.362371D-03
   z          0.755311D-02      0.191981D-01      0.640379D-01

 Dipole polarizability, Alpha (input orientation).
 (esu units = cm**3 , SI units = C**2 m**2 J**-1)
 Alpha(0;0):
               (au)            (10**-24 esu)      (10**-40 SI)
   iso        0.538458D+02      0.797913D+01      0.887798D+01
   aniso      0.366720D+02      0.543423D+01      0.604640D+01
   xx         0.782938D+02      0.116019D+02      0.129089D+02
   yx        -0.380636D-02     -0.564044D-03     -0.627584D-03
   yy         0.416165D+02      0.616693D+01      0.686164D+01
   zx        -0.311866D-01     -0.462137D-02     -0.514197D-02
   zy         0.299500D-03      0.443813D-04      0.493808D-04
   zz         0.416271D+02      0.616850D+01      0.686339D+01

 ----------------------------------------------------------------------

 Dipole orientation:
     6         -0.00451732         -0.00025240          1.65904487
    17         -0.01021414          0.00011156         -4.81193450
     1          1.92547142          0.00385250          0.93101030
     1         -0.97917120          1.67278588          0.94684826
     1         -0.97215324         -1.67728458          0.94710886
     6          0.01032400          0.00039582          4.41318894
     7          0.02239329         -0.00035463          6.60954257

 Electric dipole moment (dipole orientation):
 (Debye = 10**-18 statcoulomb cm , SI units = C m)
                  (au)            (Debye)         (10**-30 SI)
   Tot        0.258367D+01      0.656702D+01      0.219052D+02
   x          0.000000D+00      0.000000D+00      0.000000D+00
   y          0.000000D+00      0.000000D+00      0.000000D+00
   z          0.258367D+01      0.656702D+01      0.219052D+02

 Dipole polarizability, Alpha (dipole orientation).
 (esu units = cm**3 , SI units = C**2 m**2 J**-1)
 Alpha(0;0):
               (au)            (10**-24 esu)      (10**-40 SI)
   iso        0.538458D+02      0.797913D+01      0.887798D+01
   aniso      0.366720D+02      0.543423D+01      0.604640D+01
   xx         0.416276D+02      0.616858D+01      0.686347D+01
   yx        -0.312732D-03     -0.463421D-04     -0.515625D-04
   yy         0.416165D+02      0.616693D+01      0.686164D+01
   zx         0.138377D+00      0.205054D-01      0.228153D-01
   zy        -0.440992D-02     -0.653482D-03     -0.727097D-03
   zz         0.782933D+02      0.116019D+02      0.129088D+02

 ----------------------------------------------------------------------
 1\1\GINC-NODO7\Freq\RB3LYP\6-31++G(d,p)\C2H3Cl1N1(1-)\ALANQF\13-Oct-20
 24\0\\#p b3lyp 6-31++g(d,p) scf=verytight NoSymm freq=noraman int=ultr
 afine\\RxCoord=-8.78660 DE=0.35\\-1,1\C,0.877918,-0.000119,0.004957\Cl
 ,-2.546371,0.000017,-0.002039\H,0.495646,0.00203,-1.017471\H,0.499519,
 0.885217,0.519603\H,0.499697,-0.887564,0.515919\C,2.335365,0.000248,0.
 001364\N,3.497639,-0.00013,-0.001625\\Version=ES64L-G16RevB.01\HF=-593
 .0598981\RMSD=2.099e-09\RMSF=1.629e-03\ZeroPoint=0.0451546\Thermal=0.0
 495676\Dipole=2.6790966,0.0000348,0.0080347\DipoleDeriv=-0.1077183,0.0
 000588,0.0001181,-0.0001813,0.0670219,0.0000109,-0.0004296,0.0000104,0
 .0660887,-1.0882483,0.0000081,-0.0000731,0.0000079,-0.9342617,0.000001
 9,0.0000031,0.0000019,-0.9343099,0.1178529,-0.0000549,0.0168328,-0.000
 0248,0.1112496,0.0002169,-0.0190315,0.0002139,0.015351,0.1157764,-0.01
 44549,-0.0080025,0.0168042,0.0389149,-0.0419481,0.0103053,-0.0419116,0
 .0869905,0.1157552,0.0144683,-0.0079535,-0.0167667,0.0386421,0.0417314
 ,0.0101144,0.0416978,0.0873632,0.4993095,0.0002069,-0.001214,0.0001887
 ,0.0563037,-0.0000372,-0.0019839,-0.0000369,0.0564181,-0.6527273,-0.00
 02323,0.0002921,-0.0000281,-0.3778706,0.0000243,0.0010223,0.0000246,-0
 .3779016\Polar=78.2938015,-0.0038064,41.6165365,-0.0311866,0.0002995,4
 1.6271335\Quadrupole=-27.3770282,13.6879861,13.6890421,0.0008029,-0.00
 14365,-0.0001009\PG=C01 [X(C2H3Cl1N1)]\NImag=2\\0.48737772,0.00006863,
 0.55689571,0.00025700,-0.00011211,0.55725830,-0.00378407,-0.00000154,0
 .00000583,0.00502242,-0.00000059,-0.00038910,-0.00000034,0.00000014,0.
 00017815,0.00000286,-0.00000033,-0.00039279,0.00001519,0.00000003,0.00
 017604,-0.07213745,0.00018568,-0.09026847,0.00026649,0.00000208,-0.000
 98722,0.08354148,0.00018092,-0.04111850,0.00053306,0.00000194,-0.00086
 737,-0.00000266,-0.00020248,0.04303043,-0.08911300,0.00053431,-0.29297
 801,-0.00106823,-0.00000271,0.00037209,0.09906317,-0.00056604,0.312182
 36,-0.07149797,0.07720289,0.04488334,0.00025768,0.00084295,0.00049036,
 0.00444898,-0.00978428,-0.00463394,0.08284991,0.07620963,-0.22963663,-
 0.10954224,0.00090735,0.00008030,0.00054163,-0.00092013,0.00060192,0.0
 0129134,-0.08478239,0.24453179,0.04431035,-0.10954544,-0.10483030,0.00
 053169,0.00054103,-0.00053383,0.01067861,-0.02412020,-0.01272280,-0.04
 930999,0.11710638,0.11110830,-0.07146895,-0.07741243,0.04457237,0.0002
 5825,-0.00084491,0.00048698,0.00444639,0.00980570,-0.00459264,0.004399
 00,0.00881304,-0.00612468,0.08280514,-0.07642256,-0.23067353,0.1091168
 7,-0.00090865,0.00008462,-0.00053884,0.00087668,0.00051085,-0.00123922
 ,-0.00877931,-0.01928300,0.01268503,0.08500116,0.24563301,0.04400421,0
 .10911884,-0.10395480,0.00052713,-0.00053820,-0.00053811,0.01067454,0.
 02417786,-0.01262403,-0.00615609,-0.01279621,0.00720437,-0.04896067,-0
 .11664073,0.11016718,-0.25811790,-0.00007188,0.00047410,-0.00000647,0.
 00000032,-0.00000418,-0.02085582,0.00000534,-0.00288716,-0.02070202,0.
 00256341,0.00152774,-0.02069413,-0.00256297,0.00151237,1.55721050,-0.0
 0001490,-0.07634010,0.00000250,0.00000060,0.00102226,0.00000034,0.0000
 6663,-0.00328693,-0.00002211,0.02894723,0.00453673,0.00446126,-0.02901
 848,0.00456870,-0.00444417,-0.00032129,0.10821627,0.00046518,0.0000026
 1,-0.07637744,-0.00002234,0.00000034,0.00102706,-0.03336427,-0.0000277
 5,0.00728770,0.01684025,0.00452930,-0.00070584,0.01671708,-0.00450656,
 -0.00074424,-0.00370403,0.00000410,0.10824848,-0.01037139,0.00002866,0
 .00007583,-0.00201432,0.,-0.00000399,0.00028993,-0.00000715,0.00323181
 ,0.00024442,-0.00279090,-0.00161373,0.00025430,0.00279565,-0.00160148,
 -1.23683417,0.00034021,0.00306812,1.24843123,-0.00002113,0.02126215,0.
 00000226,0.00000015,-0.00010886,-0.00000016,-0.00000845,0.00112960,0.0
 0000443,-0.00364709,-0.00083112,-0.00112808,0.00365592,-0.00084066,0.0
 0112262,0.00038707,-0.03871694,-0.00000204,-0.00036647,0.01810583,0.00
 007340,0.00000212,0.02127503,0.00001073,-0.00000016,-0.00011046,0.0042
 0364,0.00000572,-0.00151732,-0.00211394,-0.00113019,0.00048009,-0.0020
 9843,0.00112345,0.00048963,0.00308117,-0.00000192,-0.03873572,-0.00315
 657,0.00000098,0.01811874\\-0.00268324,-0.00009035,-0.00008333,-0.0012
 0256,0.00000038,0.00000062,0.00305004,0.00000517,-0.00113695,0.0029971
 5,0.00104116,0.00062296,0.00298823,-0.00099630,0.00059464,-0.00146268,
 0.00006588,-0.00000432,-0.00368694,-0.00002594,0.00000639\\\@


            THE IRISH PIG
 'TWAS AN EVENING IN NOVEMBER,
 AS I VERY WELL REMEMBER
 I WAS STROLLING DOWN THE STREET IN DRUNKEN PRIDE,
 BUT MY KNEES WERE ALL A'FLUTTER
 SO I LANDED IN THE GUTTER,
 AND A PIG CAME UP AND LAY DOWN BY MY SIDE.

 YES, I LAY THERE IN THE GUTTER
 THINKING THOUGHTS I COULD NOT UTTER
 WHEN A COLLEEN PASSING BY DID SOFTLY SAY,
 'YE CAN TELL A MAN THAT BOOZES
 BY THE COMPANY THAT HE CHOOSES.' -
 AT THAT, THE PIG GOT UP AND WALKED AWAY!
     -- THE ECONOMIST, AUGUST 23, 1986
 Job cpu time:       0 days  0 hours  3 minutes 51.9 seconds.
 Elapsed time:       0 days  0 hours  0 minutes  9.9 seconds.
 File lengths (MBytes):  RWF=     88 Int=      0 D2E=      0 Chk=      2 Scr=      2
 Normal termination of Gaussian 16 at Sun Oct 13 09:46:58 2024.
