RxCoord=-8.68662 DE=0.39                                                
Freq      RB3LYP                                                      6-31++G(d,p)        
Number of atoms                            I                7
Info1-9                                    I   N=           9
          16          16           0           0           0         100
           6          18        -502
Full Title                                 C   N=           2
RxCoord=-8.68662 DE=0.39
Route                                      C   N=           6
#p b3lyp 6-31++g(d,p) scf=verytight NoSymm freq=noraman int=
ultrafine   
Charge                                     I               -1
Multiplicity                               I                1
Number of electrons                        I               40
Number of alpha electrons                  I               20
Number of beta electrons                   I               20
Number of basis functions                  I               98
Number of independent functions            I               98
Number of point charges in /Mol/           I                0
Number of translation vectors              I                0
Atomic numbers                             I   N=           7
           6          17           1           1           1           6
           7
Nuclear charges                            R   N=           7
  6.00000000E+00  1.70000000E+01  1.00000000E+00  1.00000000E+00  1.00000000E+00
  6.00000000E+00  7.00000000E+00
Current cartesian coordinates              R   N=          21
  1.64856117E+00  1.02045211E-04  8.96108128E-03 -4.79953397E+00  2.26767135E-05
 -3.60181799E-03  9.26130207E-01  4.05724199E-03 -1.92317428E+00  9.33335733E-01
  1.67285549E+00  9.81393358E-01  9.33348961E-01 -1.67679556E+00  9.74424048E-01
  4.40259322E+00 -2.66451384E-04  1.91240284E-03  6.59895764E+00  7.36993189E-05
 -2.67018301E-03
Number of symbols in /Mol/                 I                0
Force Field                                I                0
Atom Types                                 C   N=           7
                                                            
                        
Int Atom Types                             I   N=           7
           0           0           0           0           0           0
           0
MM charges                                 R   N=           7
  0.00000000E+00  0.00000000E+00  0.00000000E+00  0.00000000E+00  0.00000000E+00
  0.00000000E+00  0.00000000E+00
Integer atomic weights                     I   N=           7
          12          35           1           1           1          12
          14
Real atomic weights                        R   N=           7
  1.20000000E+01  3.49688527E+01  1.00782504E+00  1.00782504E+00  1.00782504E+00
  1.20000000E+01  1.40030740E+01
Atom fragment info                         I   N=           7
           0           0           0           0           0           0
           0
Atom residue num                           I   N=           7
           0           0           0           0           0           0
           0
Nuclear spins                              I   N=           7
           0           3           1           1           1           0
           2
Nuclear ZEff                               R   N=           7
 -3.60000000E+00 -1.42400000E+01 -1.00000000E+00 -1.00000000E+00 -1.00000000E+00
 -3.60000000E+00 -4.55000000E+00
Nuclear ZNuc                               R   N=           7
  6.00000000E+00  1.70000000E+01  1.00000000E+00  1.00000000E+00  1.00000000E+00
  6.00000000E+00  7.00000000E+00
Nuclear QMom                               R   N=           7
  0.00000000E+00 -8.16500000E+00  0.00000000E+00  0.00000000E+00  0.00000000E+00
  0.00000000E+00  2.04400000E+00
Nuclear GFac                               R   N=           7
  0.00000000E+00  8.21874000E-01  2.79284600E+00  2.79284600E+00  2.79284600E+00
  0.00000000E+00  4.03761000E-01
MicOpt                                     I   N=           7
          -1          -1          -1          -1          -1          -1
          -1
Number of residues                         I                0
Number of secondary structures             I                0
Number of contracted shells                I               33
Number of primitive shells                 I               72
Pure/Cartesian d shells                    I                1
Pure/Cartesian f shells                    I                0
Highest angular momentum                   I                2
Largest degree of contraction              I                6
Shell types                                I   N=          33
           0          -1          -1          -1           2           0
          -1          -1          -1          -1           2           0
           0           0           1           0           0           0
           1           0           0           0           1           0
          -1          -1          -1           2           0          -1
          -1          -1           2
Number of primitives per shell             I   N=          33
           6           3           1           1           1           6
           6           3           1           1           1           3
           1           1           1           3           1           1
           1           3           1           1           1           6
           3           1           1           1           6           3
           1           1           1
Shell to atom map                          I   N=          33
           1           1           1           1           1           2
           2           2           2           2           2           3
           3           3           3           4           4           4
           4           5           5           5           5           6
           6           6           6           6           7           7
           7           7           7
Primitive exponents                        R   N=          72
  3.04752488E+03  4.57369518E+02  1.03948685E+02  2.92101553E+01  9.28666296E+00
  3.16392696E+00  7.86827235E+00  1.88128854E+00  5.44249258E-01  1.68714478E-01
  4.38000000E-02  8.00000000E-01  2.51801000E+04  3.78035000E+03  8.60474000E+02
  2.42145000E+02  7.73349000E+01  2.62470000E+01  4.91765000E+02  1.16984000E+02
  3.74153000E+01  1.37834000E+01  5.45215000E+00  2.22588000E+00  3.18649000E+00
  1.14427000E+00  4.20377000E-01  1.42657000E-01  4.83000000E-02  7.50000000E-01
  1.87311370E+01  2.82539436E+00  6.40121692E-01  1.61277759E-01  3.60000000E-02
  1.10000000E+00  1.87311370E+01  2.82539436E+00  6.40121692E-01  1.61277759E-01
  3.60000000E-02  1.10000000E+00  1.87311370E+01  2.82539436E+00  6.40121692E-01
  1.61277759E-01  3.60000000E-02  1.10000000E+00  3.04752488E+03  4.57369518E+02
  1.03948685E+02  2.92101553E+01  9.28666296E+00  3.16392696E+00  7.86827235E+00
  1.88128854E+00  5.44249258E-01  1.68714478E-01  4.38000000E-02  8.00000000E-01
  4.17351146E+03  6.27457911E+02  1.42902093E+02  4.02343293E+01  1.28202129E+01
  4.39043701E+00  1.16263619E+01  2.71627981E+00  7.72218397E-01  2.12031498E-01
  6.39000000E-02  8.00000000E-01
Contraction coefficients                   R   N=          72
  1.83473713E-03  1.40373228E-02  6.88426223E-02  2.32184443E-01  4.67941348E-01
  3.62311985E-01 -1.19332420E-01 -1.60854152E-01  1.14345644E+00  1.00000000E+00
  1.00000000E+00  1.00000000E+00  1.83295985E-03  1.40341988E-02  6.90973943E-02
  2.37451980E-01  4.83033960E-01  3.39855972E-01 -2.29739142E-03 -3.07137189E-02
 -1.12528069E-01  4.50163278E-02  5.89353363E-01  4.65206287E-01 -2.51828028E-01
  6.15892514E-02  1.06018433E+00  1.00000000E+00  1.00000000E+00  1.00000000E+00
  3.34946043E-02  2.34726953E-01  8.13757326E-01  1.00000000E+00  1.00000000E+00
  1.00000000E+00  3.34946043E-02  2.34726953E-01  8.13757326E-01  1.00000000E+00
  1.00000000E+00  1.00000000E+00  3.34946043E-02  2.34726953E-01  8.13757326E-01
  1.00000000E+00  1.00000000E+00  1.00000000E+00  1.83473713E-03  1.40373228E-02
  6.88426223E-02  2.32184443E-01  4.67941348E-01  3.62311985E-01 -1.19332420E-01
 -1.60854152E-01  1.14345644E+00  1.00000000E+00  1.00000000E+00  1.00000000E+00
  1.83477216E-03  1.39946270E-02  6.85865518E-02  2.32240873E-01  4.69069948E-01
  3.60455199E-01 -1.14961182E-01 -1.69117479E-01  1.14585195E+00  1.00000000E+00
  1.00000000E+00  1.00000000E+00
P(S=P) Contraction coefficients            R   N=          72
  0.00000000E+00  0.00000000E+00  0.00000000E+00  0.00000000E+00  0.00000000E+00
  0.00000000E+00  6.89990666E-02  3.16423961E-01  7.44308291E-01  1.00000000E+00
  1.00000000E+00  0.00000000E+00  0.00000000E+00  0.00000000E+00  0.00000000E+00
  0.00000000E+00  0.00000000E+00  0.00000000E+00  3.98940088E-03  3.03177067E-02
  1.29880029E-01  3.27951072E-01  4.53527100E-01  2.52154056E-01 -1.42993147E-02
  3.23572333E-01  7.43507765E-01  1.00000000E+00  1.00000000E+00  0.00000000E+00
  0.00000000E+00  0.00000000E+00  0.00000000E+00  0.00000000E+00  0.00000000E+00
  0.00000000E+00  0.00000000E+00  0.00000000E+00  0.00000000E+00  0.00000000E+00
  0.00000000E+00  0.00000000E+00  0.00000000E+00  0.00000000E+00  0.00000000E+00
  0.00000000E+00  0.00000000E+00  0.00000000E+00  0.00000000E+00  0.00000000E+00
  0.00000000E+00  0.00000000E+00  0.00000000E+00  0.00000000E+00  6.89990666E-02
  3.16423961E-01  7.44308291E-01  1.00000000E+00  1.00000000E+00  0.00000000E+00
  0.00000000E+00  0.00000000E+00  0.00000000E+00  0.00000000E+00  0.00000000E+00
  0.00000000E+00  6.75797439E-02  3.23907296E-01  7.40895140E-01  1.00000000E+00
  1.00000000E+00  0.00000000E+00
Coordinates of each shell                  R   N=          99
  1.64856117E+00  1.02045211E-04  8.96108128E-03  1.64856117E+00  1.02045211E-04
  8.96108128E-03  1.64856117E+00  1.02045211E-04  8.96108128E-03  1.64856117E+00
  1.02045211E-04  8.96108128E-03  1.64856117E+00  1.02045211E-04  8.96108128E-03
 -4.79953397E+00  2.26767135E-05 -3.60181799E-03 -4.79953397E+00  2.26767135E-05
 -3.60181799E-03 -4.79953397E+00  2.26767135E-05 -3.60181799E-03 -4.79953397E+00
  2.26767135E-05 -3.60181799E-03 -4.79953397E+00  2.26767135E-05 -3.60181799E-03
 -4.79953397E+00  2.26767135E-05 -3.60181799E-03  9.26130207E-01  4.05724199E-03
 -1.92317428E+00  9.26130207E-01  4.05724199E-03 -1.92317428E+00  9.26130207E-01
  4.05724199E-03 -1.92317428E+00  9.26130207E-01  4.05724199E-03 -1.92317428E+00
  9.33335733E-01  1.67285549E+00  9.81393358E-01  9.33335733E-01  1.67285549E+00
  9.81393358E-01  9.33335733E-01  1.67285549E+00  9.81393358E-01  9.33335733E-01
  1.67285549E+00  9.81393358E-01  9.33348961E-01 -1.67679556E+00  9.74424048E-01
  9.33348961E-01 -1.67679556E+00  9.74424048E-01  9.33348961E-01 -1.67679556E+00
  9.74424048E-01  9.33348961E-01 -1.67679556E+00  9.74424048E-01  4.40259322E+00
 -2.66451384E-04  1.91240284E-03  4.40259322E+00 -2.66451384E-04  1.91240284E-03
  4.40259322E+00 -2.66451384E-04  1.91240284E-03  4.40259322E+00 -2.66451384E-04
  1.91240284E-03  4.40259322E+00 -2.66451384E-04  1.91240284E-03  6.59895764E+00
  7.36993189E-05 -2.67018301E-03  6.59895764E+00  7.36993189E-05 -2.67018301E-03
  6.59895764E+00  7.36993189E-05 -2.67018301E-03  6.59895764E+00  7.36993189E-05
 -2.67018301E-03  6.59895764E+00  7.36993189E-05 -2.67018301E-03
Num ILSW                                   I              100
ILSW                                       I   N=         100
           0           1           0           0           2           0
           0           0           0           0         402          -1
           5           0           0           0           2           0
           0           0           0           0           1           0
           1           1           0           0           0           0
           0           0      100000           0          -1           0
           0           0           0           0           0           0
           0           0           0           1           0           0
           0 -2000000000           1           0           0           0
           0           0           4          52           0           0
           0           0           5           0           0           0
           0           0           0           7           0           1
           0           0           0           0           0           0
           0           0           0           0           0           0
           0           0           0           0           0           0
           0           0           0           0           0           0
           0           0           0           0
Num RLSW                                   I               52
RLSW                                       R   N=          52
  8.00000000E-01  7.20000000E-01  1.00000000E+00  8.10000000E-01  2.00000000E-01
  0.00000000E+00  0.00000000E+00  1.00000000E+00  0.00000000E+00  0.00000000E+00
  0.00000000E+00  0.00000000E+00  1.00000000E+00  0.00000000E+00  0.00000000E+00
  0.00000000E+00  0.00000000E+00  1.00000000E+00  0.00000000E+00  0.00000000E+00
  0.00000000E+00  0.00000000E+00  1.00000000E+00  0.00000000E+00  0.00000000E+00
  0.00000000E+00  0.00000000E+00  1.00000000E+00  0.00000000E+00  0.00000000E+00
  0.00000000E+00  0.00000000E+00  1.00000000E+00  0.00000000E+00  0.00000000E+00
  0.00000000E+00  0.00000000E+00  0.00000000E+00  1.00000000E+00  1.00000000E+00
  0.00000000E+00  1.00000000E+00  0.00000000E+00  0.00000000E+00  0.00000000E+00
  0.00000000E+00  0.00000000E+00  0.00000000E+00  0.00000000E+00  0.00000000E+00
  0.00000000E+00  0.00000000E+00
MxBond                                     I                4
NBond                                      I   N=           7
           4           0           1           1           1           2
           1
IBond                                      I   N=          28
           3           4           5           6           0           0
           0           0           1           0           0           0
           1           0           0           0           1           0
           0           0           1           7           0           0
           6           0           0           0
RBond                                      R   N=          28
  1.00000000E+00  1.00000000E+00  1.00000000E+00  1.00000000E+00  0.00000000E+00
  0.00000000E+00  0.00000000E+00  0.00000000E+00  1.00000000E+00  0.00000000E+00
  0.00000000E+00  0.00000000E+00  1.00000000E+00  0.00000000E+00  0.00000000E+00
  0.00000000E+00  1.00000000E+00  0.00000000E+00  0.00000000E+00  0.00000000E+00
  1.00000000E+00  3.00000000E+00  0.00000000E+00  0.00000000E+00  3.00000000E+00
  0.00000000E+00  0.00000000E+00  0.00000000E+00
Virial Ratio                               R      2.004726447287819E+00
SCF Energy                                 R     -5.930599259800830E+02
Total Energy                               R     -5.930599259800830E+02
RMS Force                                  R      1.636029112018872E-03
RMS Density                                R      2.016644776159405E-09
NImag                                      I                2
Job Status                                 I                1
Nuclear derivative order                   I                2
External E-field                           R   N=          35
  0.00000000E+00  0.00000000E+00  0.00000000E+00  0.00000000E+00  0.00000000E+00
  0.00000000E+00  0.00000000E+00  0.00000000E+00  0.00000000E+00  0.00000000E+00
  0.00000000E+00  0.00000000E+00  0.00000000E+00  0.00000000E+00  0.00000000E+00
  0.00000000E+00  0.00000000E+00  0.00000000E+00  0.00000000E+00  0.00000000E+00
  0.00000000E+00  0.00000000E+00  0.00000000E+00  0.00000000E+00  0.00000000E+00
  0.00000000E+00  0.00000000E+00  0.00000000E+00  0.00000000E+00  0.00000000E+00
  0.00000000E+00  0.00000000E+00  0.00000000E+00  0.00000000E+00  0.00000000E+00
IOpCl                                      I                0
IROHF                                      I                0
Alpha Orbital Energies                     R   N=          98
 -1.01254296E+02 -1.42326469E+01 -1.01298401E+01 -1.01023543E+01 -9.16761883E+00
 -6.92543235E+00 -6.92543134E+00 -6.92538045E+00 -8.02256952E-01 -6.48761271E-01
 -5.05099364E-01 -3.86456694E-01 -3.32375880E-01 -3.32362192E-01 -2.62706572E-01
 -2.21383765E-01 -2.21374479E-01 -5.24445292E-02 -5.12463952E-02 -5.12418789E-02
  9.85741918E-02  1.32754610E-01  1.32871863E-01  1.41638874E-01  1.44160919E-01
  1.44195514E-01  1.97805547E-01  2.03309445E-01  2.03389044E-01  2.19390978E-01
  2.28431507E-01  2.28578289E-01  2.49578753E-01  2.58630293E-01  2.58711188E-01
  2.86927185E-01  3.24945355E-01  3.32506358E-01  3.32520730E-01  3.38841459E-01
  3.38936807E-01  3.41706620E-01  3.92598118E-01  4.05723131E-01  4.81541186E-01
  6.94132237E-01  7.83222380E-01  7.83232538E-01  8.41049310E-01  8.41210405E-01
  8.50239105E-01  8.50435784E-01  8.50575973E-01  8.81856418E-01  9.84217201E-01
  1.01445136E+00  1.02025995E+00  1.02038556E+00  1.09600414E+00  1.11391397E+00
  1.11393756E+00  1.15447877E+00  1.15448789E+00  1.15939300E+00  1.15940669E+00
  1.19543247E+00  1.23567333E+00  1.26778645E+00  1.44782890E+00  1.44784173E+00
  1.53479041E+00  1.62217334E+00  1.62217804E+00  1.85701476E+00  1.85711823E+00
  1.88822302E+00  2.04892181E+00  2.04898781E+00  2.14132049E+00  2.22895468E+00
  2.22899789E+00  2.29671261E+00  2.39164850E+00  2.39178960E+00  2.74796531E+00
  2.79616748E+00  2.79634994E+00  3.04424036E+00  3.08361359E+00  3.08377410E+00
  3.27773847E+00  3.44502508E+00  3.54379493E+00  3.54393337E+00  4.24280186E+00
  4.43190968E+00  4.57109579E+00  4.80296171E+00
Alpha MO coefficients                      R   N=        9604
  1.20535963E-07 -2.27136233E-06 -7.65024663E-06  3.53888726E-10  9.22171226E-09
  9.45305249E-05  8.82170489E-05 -1.30179118E-08 -2.80418042E-07  1.00828383E-03
  3.26471507E-04 -3.83065492E-08 -6.70791156E-07  2.83425289E-06  2.61284041E-06
  2.59843292E-06 -1.33798823E-09 -8.00824235E-10 -1.65389601E-10  9.95998019E-01
  1.51388199E-02  4.96368478E-06  2.89425491E-10  7.70972898E-09 -2.10651337E-02
 -1.37916203E-05 -3.27007714E-10 -2.29076868E-08  1.99100063E-03  3.39573837E-05
  2.73651472E-10  4.37329413E-08 -3.31396478E-04 -3.57300914E-05  3.25871098E-09
  1.05448768E-07  7.50246196E-03  7.50149104E-03  7.50149062E-03  2.41403401E-10
  8.57825886E-09 -1.77986082E-11  6.46697975E-06 -1.29738331E-05  5.62227450E-05
 -2.37750449E-06  4.43902602E-09 -1.75861473E-06  6.47976403E-06 -1.26472171E-05
  5.56552259E-05 -2.54783329E-06  1.47018448E-06  8.81919565E-07  6.47849373E-06
 -1.26546162E-05  5.56418342E-05 -2.54581075E-06 -1.47363292E-06  8.76576766E-07
  1.79661029E-06  8.64969699E-06  1.01254265E-06  2.08171450E-09  1.39364133E-08
 -6.63351132E-05  9.93452280E-05 -1.55865494E-08 -2.94768405E-07 -1.20858768E-03
  3.41707076E-04 -7.77414918E-08 -1.18328069E-06 -1.41047890E-06  2.93527329E-06
  2.94060822E-06  5.52209090E-10  1.68058646E-08 -1.35146072E-10  1.65176141E-06
  6.46653117E-06 -7.95842822E-07 -2.85870116E-10  4.19168300E-09 -8.07396984E-05
  2.02801108E-05  9.16884224E-09 -4.76879027E-08  1.07257114E-04 -7.00474013E-05
  2.19631062E-08  3.87683883E-07  3.33466373E-06  3.09396252E-06  3.09287720E-06
 -1.75179349E-09 -7.86399898E-09  5.94019125E-12  9.54250699E-06 -1.87533963E-04
  2.69939636E-04 -3.53936782E-08 -6.87716111E-07  9.60530913E-04  6.21815981E-04
 -2.44606379E-07 -1.91298627E-06  9.63080315E-03  2.45758011E-03 -4.33725439E-07
 -4.55511860E-06  4.71325295E-04  2.69795063E-05  2.70057313E-05 -1.52137010E-07
 -1.43787352E-06 -1.57335801E-09  4.27716537E-08  9.09695118E-07  4.00758688E-06
  2.35023480E-10  1.48434964E-08  5.22132094E-06 -2.18307380E-05 -1.00618482E-09
 -7.66652651E-08 -5.38776922E-05  4.28552085E-05 -2.65228729E-09  1.17859550E-07
  3.26565584E-04  1.05445198E-04  4.79537335E-08  6.58156407E-07  2.22713375E-06
 -2.62934086E-06 -2.62258846E-06  2.28504472E-09  3.48917104E-08 -9.56331536E-11
  8.81805821E-07 -7.48545836E-05 -2.40904465E-04 -2.03750220E-06  1.51136154E-08
 -2.09718771E-06  9.42360995E-07 -7.47276076E-05 -2.39396266E-04 -2.01033455E-06
  1.83441443E-06  1.08248673E-06  9.33198460E-07 -7.48745521E-05 -2.39378544E-04
 -2.03573880E-06 -1.80233972E-06  1.06630687E-06  7.63282783E-05  3.23522237E-04
 -5.60487458E-04 -9.63180381E-08  1.17313560E-06  7.57491642E-06  1.29322277E-03
 -7.59616901E-08 -3.16746406E-06 -7.06567572E-03  4.05702626E-03 -3.00423626E-07
 -1.24741256E-05 -1.44651557E-03  1.73692116E-05  1.73666709E-05 -1.52546624E-07
  3.71419740E-06 -1.34592706E-09  9.92763989E-01  3.47113956E-02 -2.14711912E-03
 -4.22033089E-07  4.39851100E-06  3.61018647E-03  8.11777051E-04  2.14877181E-07
 -1.74454351E-06 -3.36567751E-03 -4.09622469E-04  1.61482060E-07  2.39890379E-06
 -7.31161183E-03 -8.36412174E-03 -8.36411220E-03  1.98175857E-07 -2.52420039E-06
 -1.07018910E-09  6.00191444E-03  1.19151819E-04 -4.34373313E-04  1.33261563E-07
  1.43767429E-06  7.03324907E-03  2.48558230E-03 -7.33042622E-07 -8.24516404E-06
  7.09065993E-02  2.43965567E-02 -2.87740055E-06 -3.87470191E-05 -1.02676271E-03
 -2.04645465E-04 -2.04530400E-04  1.91932867E-07  2.56709282E-06  1.46712822E-08
  1.61482718E-07  2.78388297E-06  2.21764731E-05  3.04914642E-09  8.62821487E-08
  1.53377848E-05 -1.31612940E-04 -1.59552972E-08 -4.71756924E-07 -3.19399949E-04
  4.09769180E-04  1.72009665E-08  8.50865714E-07  3.61386683E-03  1.42578030E-03
  2.11892598E-07  8.82279290E-06  2.91010332E-05 -1.98284690E-05 -1.97837992E-05
  1.39570636E-08  4.08068884E-07 -1.65715672E-09 -1.19057151E-04 -7.71555789E-04
 -5.09026816E-05  4.72881952E-05  8.78451891E-09  1.11638401E-05 -1.18669068E-04
 -7.72052870E-04 -3.44443011E-05  4.67480936E-05 -1.00812145E-05 -5.89959693E-06
 -1.18720900E-04 -7.72191437E-04 -3.66778854E-05  4.69830836E-05  1.00523053E-05
 -5.79064483E-06  9.92761144E-01  5.03623556E-02  2.38355490E-04  2.17975037E-07
  6.67485971E-08 -1.04657590E-02  7.25939219E-03 -4.90257856E-07 -1.80297914E-05
 -7.75995408E-02  2.18437163E-02 -5.19667331E-06 -8.79307241E-05 -7.85118675E-03
 -9.90162864E-03 -9.90160257E-03  1.58113182E-07 -5.21887016E-06 -5.77642375E-09
 -4.73407531E-04  3.26212674E-04  3.31335608E-04  9.94672341E-08 -2.11736225E-07
 -7.52443839E-03  3.07762205E-03  7.87729996E-07 -7.95093613E-06  7.91053823E-03
 -6.01008072E-03  1.22971369E-06  2.92703108E-05 -2.06496233E-05  3.26146771E-04
  3.26160561E-04 -2.53454910E-07  4.76028267E-07 -2.17948533E-10  9.93016572E-01
  5.06362218E-02  7.44915881E-04 -1.77943908E-07  9.10486874E-08 -2.45466181E-02
 -4.61249497E-03  1.47681939E-06  1.01323000E-05  4.30861547E-02  1.78585827E-02
 -1.58536399E-06 -2.43719060E-05 -8.94378699E-03 -8.86025669E-03 -8.86057937E-03
 -2.99315752E-08  9.35449921E-08  5.08510500E-08  8.13677014E-07  1.37225453E-05
  5.52877498E-06 -4.00409517E-10  1.08918237E-07  4.06921824E-05 -3.09704028E-05
  1.32883632E-09 -6.24477861E-07 -3.49960508E-04  2.08747907E-04  6.79052848E-09
  1.54076155E-06  3.29678705E-03  1.34584576E-03  8.03307878E-08  6.97396341E-06
  2.52146121E-05  2.17064684E-05  2.16322819E-05  4.82011292E-09  4.35725477E-07
 -2.92455899E-10  3.47754455E-06  3.17594938E-03  1.48895380E-04  2.60626433E-05
  1.84349081E-07 -1.23236570E-04  3.18560126E-06  3.17443524E-03  1.65505400E-04
  2.62520844E-05  1.06976254E-04  6.20163933E-05  3.43548850E-06  3.17495076E-03
  1.64236938E-04  2.61151015E-05 -1.07272694E-04  6.15111358E-05 -6.30342294E-03
 -4.57891081E-04  2.67153427E-04 -3.55440445E-08 -4.62257512E-07  3.56547547E-03
 -9.51832709E-03  3.72795061E-07  2.31461701E-05 -4.99332951E-02  1.27064252E-02
 -3.31906643E-06 -6.12511399E-05 -8.33370205E-04 -4.18276082E-06 -4.18909832E-06
  4.60487647E-08  2.43402122E-06  1.01576952E-08 -1.87343560E-05 -5.38834659E-05
 -2.47408162E-04  1.57892432E-08  9.77062844E-07  5.40036116E-03 -1.78441741E-03
 -1.12828947E-06  2.50170136E-07  4.81301603E-03 -2.43055795E-03  8.23526083E-07
  1.92726917E-05  1.48349809E-04 -7.60546294E-05 -7.60369109E-05  2.10376642E-07
 -2.44146241E-07 -2.16293797E-09  5.17008921E-05  3.19756063E-04  1.44846497E-04
 -1.21752500E-08  2.29252226E-07 -3.98411473E-03 -3.29373397E-03  7.10561909E-07
  1.29186614E-05  1.21908193E-02  5.34901446E-03 -1.57531083E-07  3.98320936E-06
 -1.57695962E-04  1.01064838E-04  1.00426315E-04  6.10210016E-08  5.07491266E-07
  1.58454463E-08 -2.84644687E-01  1.02263567E+00  2.72488037E-04  3.29288093E-08
  3.05309513E-07  7.49476439E-02  3.68191200E-04  4.60573906E-09  5.90179019E-07
 -2.03803915E-02 -1.06982175E-03  3.96044954E-09 -1.31552509E-06  1.00597012E-02
  3.05022798E-03 -2.08403503E-08  1.74385789E-06 -1.56803921E-02 -1.56942971E-02
 -1.56941503E-02  1.38136146E-09 -1.10923438E-07 -2.66364829E-10  1.84375031E-05
 -8.53916053E-04 -2.81559369E-03  1.06395872E-04  9.27226765E-08 -6.20888446E-05
  2.11279316E-05 -8.69498034E-04 -2.77094681E-03  1.07095479E-04  5.50653678E-05
  3.16328287E-05  2.12135976E-05 -8.69111044E-04 -2.77154102E-03  1.07039462E-04
 -5.52001378E-05  3.13638831E-05 -3.33766281E-05 -2.20246695E-04 -2.22416853E-05
 -7.38047418E-09  2.27535646E-09 -3.88728246E-04 -5.55722714E-03  6.34100223E-08
  1.26008334E-05 -5.09667773E-03  9.75021496E-04 -6.34382131E-07 -2.46763469E-05
  8.45124193E-05 -2.56156016E-05 -2.57614044E-05 -4.72600623E-08 -3.03856518E-07
  3.63784167E-10 -1.11967261E-04 -4.46438213E-04  2.39979444E-05  5.66441715E-08
  2.03527600E-07  5.60839504E-03 -1.70604293E-03 -6.62588548E-07  2.14732075E-06
 -2.02653441E-03  9.40368133E-04  1.98775828E-07  5.38843419E-06 -1.73966269E-04
 -2.25721559E-04 -2.25669524E-04  6.09379170E-08 -4.35650656E-08 -4.06132251E-10
 -5.52791790E-07 -3.37413205E-06 -9.92566379E-07  1.90648158E-09  9.86084840E-07
  3.93797351E-05  1.52205775E-05  8.71379441E-07 -5.44450244E-04  1.42505148E-04
  5.30866988E-05 -4.72309576E-07  3.59590640E-04  9.05498687E-07 -3.61874330E-05
  3.52652295E-05 -5.90529775E-08  3.44678474E-05 -1.86722039E-07 -5.95291183E-07
  1.56146984E-06 -6.56408182E-03 -1.70069898E-03  9.90814232E-01 -1.84838372E-06
 -1.97916687E-04 -5.07757691E-05  2.95780785E-02  8.90386158E-06  7.97343181E-05
  1.94954246E-05 -1.13438329E-02 -8.65823913E-06 -3.37510315E-05 -8.18943709E-06
  4.72422077E-03 -1.08211406E-06  2.04083071E-06 -3.66296588E-06 -7.37034186E-08
  4.16470171E-05  1.67359627E-08  1.21314364E-04 -8.27287193E-04  3.79690142E-03
 -1.97441787E-05  1.82757334E-07 -8.68279726E-05 -5.92518879E-05  4.00356170E-04
 -1.88945552E-03  9.06108583E-06 -4.01979985E-05 -1.58181455E-05 -5.91951687E-05
  3.99792932E-04 -1.88752696E-03  9.04127789E-06  4.02184958E-05 -1.56193109E-05
  3.84116330E-07  1.97902014E-06 -1.60873082E-07 -4.93167224E-08  2.69987899E-05
 -1.49265103E-05  2.87466665E-05  7.78885482E-08 -1.38883414E-05 -1.53927242E-04
  3.70766630E-05 -2.40052126E-06  1.12900540E-03 -4.84101845E-07 -2.77507603E-06
  4.11160415E-06  3.15788456E-08 -1.74864344E-05 -1.22494471E-08  1.59416928E-07
  8.71587099E-07 -5.04098364E-08  2.80858338E-08 -7.95797872E-06 -1.67794330E-05
  4.63154803E-06 -1.64849835E-07  5.08211619E-05  4.77344103E-06 -1.26100404E-06
  1.04280376E-06 -4.45003143E-04  3.39132743E-07  2.97744489E-06 -2.72874922E-06
  7.61021637E-09 -2.85514757E-06  1.61099775E-08  2.91402679E-08  2.94081520E-07
  1.24146463E-07  1.47307101E-07  3.79181386E-09 -5.86640314E-06 -4.49390364E-06
 -5.34697659E-04 -9.60123620E-07 -8.27825941E-05 -3.08291932E-05  3.45331893E-04
  7.88830571E-07 -2.64010153E-07  1.69618707E-07 -1.48123499E-07  3.34628754E-05
  5.85718170E-08 -4.05651503E-05  9.34732318E-08 -2.48613374E-07  7.48754087E-04
  9.90835903E-01  1.70569931E-03  2.55346980E-07  2.27857194E-05  2.95776387E-02
  5.09123533E-05 -1.05520281E-06 -9.77705808E-06 -1.13410775E-02 -1.95016022E-05
 -2.94649346E-06  2.24125800E-06  4.71705655E-03  8.02719448E-06  1.12024253E-07
  1.57074343E-07  1.80457556E-07  4.15787038E-05  6.86623713E-08  3.44781186E-06
 -9.27162137E-08 -3.03182027E-08 -3.64795236E-06  1.50578770E-07  7.12909535E-06
  1.38066690E-08 -1.04397905E-04  7.00533899E-04 -3.24648622E-03  1.67636910E-05
 -6.20449862E-05 -4.01627687E-05  1.04378536E-04 -7.01417864E-04  3.24400374E-03
 -1.64652861E-05 -6.22981518E-05  3.99481855E-05 -1.29392964E-07 -6.36620075E-07
  1.59280598E-08  2.66997145E-05  4.16324417E-08  9.21409078E-07 -8.79209570E-06
 -1.42898930E-05  5.48843687E-08  9.42272341E-05 -2.79495620E-05  1.12036192E-03
  1.59297133E-06 -6.60210677E-08 -1.51012538E-07 -1.90787104E-07 -1.71943627E-05
 -2.87764020E-08 -3.79398984E-06 -1.21637271E-07 -5.48481955E-07  4.44596760E-08
 -7.86658458E-06  4.74063927E-10  7.66771731E-06 -2.88918445E-06  5.03008205E-05
  1.44353844E-08 -2.99006512E-06  4.32334533E-06 -4.39603841E-04 -5.14351548E-07
 -7.06765267E-08 -2.46081890E-07 -2.22525980E-07 -2.86854645E-06 -2.01943861E-09
  3.27940932E-06  3.14718343E-05  3.50477035E-04  1.83883523E-04 -5.19311872E-08
  1.20997863E-07 -6.75887632E-03 -5.55125368E-03  1.76663852E-06  1.90307403E-05
 -8.78332264E-02 -3.35071221E-02  2.62097640E-06  4.82841015E-05 -3.43278610E-04
  9.86377320E-06  9.44323389E-06  5.75711796E-08  9.46114779E-07  5.53484730E-08
  1.10305212E-04 -2.80220679E-04  9.90715599E-01 -7.60123472E-04  6.56290584E-03
  3.32549408E-04  3.01088492E-02 -2.26693341E-05  1.97263421E-04 -1.44945372E-03
 -1.28234513E-02  8.68358797E-06 -7.79342822E-05 -2.94966519E-03  3.34014295E-03
 -3.89640602E-06  1.81710251E-05  1.55941497E-04  2.18426224E-04  2.18424513E-04
 -4.40485530E-08 -5.03244653E-07 -1.57110112E-09 -6.50506927E-05 -5.13159063E-04
 -2.61423085E-03  1.89097293E-04  1.73952346E-08 -4.51616656E-05 -6.28837003E-05
 -5.28278320E-04 -2.63908271E-03  1.91865775E-04  4.08749788E-05  2.29761787E-05
 -6.28669560E-05 -5.26554909E-04 -2.64295284E-03  1.91753908E-04 -4.08797072E-05
  2.26660651E-05 -1.44406218E-04 -7.21975718E-04  2.54734341E-05 -1.89676968E-07