RxCoord=-8.38668 DE=0.52                                                
Freq      RB3LYP                                                      6-31++G(d,p)        
Number of atoms                            I                7
Info1-9                                    I   N=           9
          16          16           0           0           0         100
           6          18        -502
Full Title                                 C   N=           2
RxCoord=-8.38668 DE=0.52
Route                                      C   N=           6
#p b3lyp 6-31++g(d,p) scf=verytight NoSymm freq=noraman int=
ultrafine   
Charge                                     I               -1
Multiplicity                               I                1
Number of electrons                        I               40
Number of alpha electrons                  I               20
Number of beta electrons                   I               20
Number of basis functions                  I               98
Number of independent functions            I               98
Number of point charges in /Mol/           I                0
Number of translation vectors              I                0
Atomic numbers                             I   N=           7
           6          17           1           1           1           6
           7
Nuclear charges                            R   N=           7
  6.00000000E+00  1.70000000E+01  1.00000000E+00  1.00000000E+00  1.00000000E+00
  6.00000000E+00  7.00000000E+00
Current cartesian coordinates              R   N=          21
  1.61718037E+00 -1.13383567E-05  7.06001680E-03 -4.76228747E+00  2.26767135E-05
 -2.85915563E-03  8.95244523E-01  4.01755774E-03 -1.92507156E+00  9.00840002E-01
  1.67227723E+00  9.79172930E-01  9.00862679E-01 -1.67631746E+00  9.72184723E-01
  4.37071732E+00  6.42506882E-05  1.72909940E-03  6.56705340E+00 -1.00155485E-04
 -2.28656861E-03
Number of symbols in /Mol/                 I                0
Force Field                                I                0
Atom Types                                 C   N=           7
                                                            
                        
Int Atom Types                             I   N=           7
           0           0           0           0           0           0
           0
MM charges                                 R   N=           7
  0.00000000E+00  0.00000000E+00  0.00000000E+00  0.00000000E+00  0.00000000E+00
  0.00000000E+00  0.00000000E+00
Integer atomic weights                     I   N=           7
          12          35           1           1           1          12
          14
Real atomic weights                        R   N=           7
  1.20000000E+01  3.49688527E+01  1.00782504E+00  1.00782504E+00  1.00782504E+00
  1.20000000E+01  1.40030740E+01
Atom fragment info                         I   N=           7
           0           0           0           0           0           0
           0
Atom residue num                           I   N=           7
           0           0           0           0           0           0
           0
Nuclear spins                              I   N=           7
           0           3           1           1           1           0
           2
Nuclear ZEff                               R   N=           7
 -3.60000000E+00 -1.42400000E+01 -1.00000000E+00 -1.00000000E+00 -1.00000000E+00
 -3.60000000E+00 -4.55000000E+00
Nuclear ZNuc                               R   N=           7
  6.00000000E+00  1.70000000E+01  1.00000000E+00  1.00000000E+00  1.00000000E+00
  6.00000000E+00  7.00000000E+00
Nuclear QMom                               R   N=           7
  0.00000000E+00 -8.16500000E+00  0.00000000E+00  0.00000000E+00  0.00000000E+00
  0.00000000E+00  2.04400000E+00
Nuclear GFac                               R   N=           7
  0.00000000E+00  8.21874000E-01  2.79284600E+00  2.79284600E+00  2.79284600E+00
  0.00000000E+00  4.03761000E-01
MicOpt                                     I   N=           7
          -1          -1          -1          -1          -1          -1
          -1
Number of residues                         I                0
Number of secondary structures             I                0
Number of contracted shells                I               33
Number of primitive shells                 I               72
Pure/Cartesian d shells                    I                1
Pure/Cartesian f shells                    I                0
Highest angular momentum                   I                2
Largest degree of contraction              I                6
Shell types                                I   N=          33
           0          -1          -1          -1           2           0
          -1          -1          -1          -1           2           0
           0           0           1           0           0           0
           1           0           0           0           1           0
          -1          -1          -1           2           0          -1
          -1          -1           2
Number of primitives per shell             I   N=          33
           6           3           1           1           1           6
           6           3           1           1           1           3
           1           1           1           3           1           1
           1           3           1           1           1           6
           3           1           1           1           6           3
           1           1           1
Shell to atom map                          I   N=          33
           1           1           1           1           1           2
           2           2           2           2           2           3
           3           3           3           4           4           4
           4           5           5           5           5           6
           6           6           6           6           7           7
           7           7           7
Primitive exponents                        R   N=          72
  3.04752488E+03  4.57369518E+02  1.03948685E+02  2.92101553E+01  9.28666296E+00
  3.16392696E+00  7.86827235E+00  1.88128854E+00  5.44249258E-01  1.68714478E-01
  4.38000000E-02  8.00000000E-01  2.51801000E+04  3.78035000E+03  8.60474000E+02
  2.42145000E+02  7.73349000E+01  2.62470000E+01  4.91765000E+02  1.16984000E+02
  3.74153000E+01  1.37834000E+01  5.45215000E+00  2.22588000E+00  3.18649000E+00
  1.14427000E+00  4.20377000E-01  1.42657000E-01  4.83000000E-02  7.50000000E-01
  1.87311370E+01  2.82539436E+00  6.40121692E-01  1.61277759E-01  3.60000000E-02
  1.10000000E+00  1.87311370E+01  2.82539436E+00  6.40121692E-01  1.61277759E-01
  3.60000000E-02  1.10000000E+00  1.87311370E+01  2.82539436E+00  6.40121692E-01
  1.61277759E-01  3.60000000E-02  1.10000000E+00  3.04752488E+03  4.57369518E+02
  1.03948685E+02  2.92101553E+01  9.28666296E+00  3.16392696E+00  7.86827235E+00
  1.88128854E+00  5.44249258E-01  1.68714478E-01  4.38000000E-02  8.00000000E-01
  4.17351146E+03  6.27457911E+02  1.42902093E+02  4.02343293E+01  1.28202129E+01
  4.39043701E+00  1.16263619E+01  2.71627981E+00  7.72218397E-01  2.12031498E-01
  6.39000000E-02  8.00000000E-01
Contraction coefficients                   R   N=          72
  1.83473713E-03  1.40373228E-02  6.88426223E-02  2.32184443E-01  4.67941348E-01
  3.62311985E-01 -1.19332420E-01 -1.60854152E-01  1.14345644E+00  1.00000000E+00
  1.00000000E+00  1.00000000E+00  1.83295985E-03  1.40341988E-02  6.90973943E-02
  2.37451980E-01  4.83033960E-01  3.39855972E-01 -2.29739142E-03 -3.07137189E-02
 -1.12528069E-01  4.50163278E-02  5.89353363E-01  4.65206287E-01 -2.51828028E-01
  6.15892514E-02  1.06018433E+00  1.00000000E+00  1.00000000E+00  1.00000000E+00
  3.34946043E-02  2.34726953E-01  8.13757326E-01  1.00000000E+00  1.00000000E+00
  1.00000000E+00  3.34946043E-02  2.34726953E-01  8.13757326E-01  1.00000000E+00
  1.00000000E+00  1.00000000E+00  3.34946043E-02  2.34726953E-01  8.13757326E-01
  1.00000000E+00  1.00000000E+00  1.00000000E+00  1.83473713E-03  1.40373228E-02
  6.88426223E-02  2.32184443E-01  4.67941348E-01  3.62311985E-01 -1.19332420E-01
 -1.60854152E-01  1.14345644E+00  1.00000000E+00  1.00000000E+00  1.00000000E+00
  1.83477216E-03  1.39946270E-02  6.85865518E-02  2.32240873E-01  4.69069948E-01
  3.60455199E-01 -1.14961182E-01 -1.69117479E-01  1.14585195E+00  1.00000000E+00
  1.00000000E+00  1.00000000E+00
P(S=P) Contraction coefficients            R   N=          72
  0.00000000E+00  0.00000000E+00  0.00000000E+00  0.00000000E+00  0.00000000E+00
  0.00000000E+00  6.89990666E-02  3.16423961E-01  7.44308291E-01  1.00000000E+00
  1.00000000E+00  0.00000000E+00  0.00000000E+00  0.00000000E+00  0.00000000E+00
  0.00000000E+00  0.00000000E+00  0.00000000E+00  3.98940088E-03  3.03177067E-02
  1.29880029E-01  3.27951072E-01  4.53527100E-01  2.52154056E-01 -1.42993147E-02
  3.23572333E-01  7.43507765E-01  1.00000000E+00  1.00000000E+00  0.00000000E+00
  0.00000000E+00  0.00000000E+00  0.00000000E+00  0.00000000E+00  0.00000000E+00
  0.00000000E+00  0.00000000E+00  0.00000000E+00  0.00000000E+00  0.00000000E+00
  0.00000000E+00  0.00000000E+00  0.00000000E+00  0.00000000E+00  0.00000000E+00
  0.00000000E+00  0.00000000E+00  0.00000000E+00  0.00000000E+00  0.00000000E+00
  0.00000000E+00  0.00000000E+00  0.00000000E+00  0.00000000E+00  6.89990666E-02
  3.16423961E-01  7.44308291E-01  1.00000000E+00  1.00000000E+00  0.00000000E+00
  0.00000000E+00  0.00000000E+00  0.00000000E+00  0.00000000E+00  0.00000000E+00
  0.00000000E+00  6.75797439E-02  3.23907296E-01  7.40895140E-01  1.00000000E+00
  1.00000000E+00  0.00000000E+00
Coordinates of each shell                  R   N=          99
  1.61718037E+00 -1.13383567E-05  7.06001680E-03  1.61718037E+00 -1.13383567E-05
  7.06001680E-03  1.61718037E+00 -1.13383567E-05  7.06001680E-03  1.61718037E+00
 -1.13383567E-05  7.06001680E-03  1.61718037E+00 -1.13383567E-05  7.06001680E-03
 -4.76228747E+00  2.26767135E-05 -2.85915563E-03 -4.76228747E+00  2.26767135E-05
 -2.85915563E-03 -4.76228747E+00  2.26767135E-05 -2.85915563E-03 -4.76228747E+00
  2.26767135E-05 -2.85915563E-03 -4.76228747E+00  2.26767135E-05 -2.85915563E-03
 -4.76228747E+00  2.26767135E-05 -2.85915563E-03  8.95244523E-01  4.01755774E-03
 -1.92507156E+00  8.95244523E-01  4.01755774E-03 -1.92507156E+00  8.95244523E-01
  4.01755774E-03 -1.92507156E+00  8.95244523E-01  4.01755774E-03 -1.92507156E+00
  9.00840002E-01  1.67227723E+00  9.79172930E-01  9.00840002E-01  1.67227723E+00
  9.79172930E-01  9.00840002E-01  1.67227723E+00  9.79172930E-01  9.00840002E-01
  1.67227723E+00  9.79172930E-01  9.00862679E-01 -1.67631746E+00  9.72184723E-01
  9.00862679E-01 -1.67631746E+00  9.72184723E-01  9.00862679E-01 -1.67631746E+00
  9.72184723E-01  9.00862679E-01 -1.67631746E+00  9.72184723E-01  4.37071732E+00
  6.42506882E-05  1.72909940E-03  4.37071732E+00  6.42506882E-05  1.72909940E-03
  4.37071732E+00  6.42506882E-05  1.72909940E-03  4.37071732E+00  6.42506882E-05
  1.72909940E-03  4.37071732E+00  6.42506882E-05  1.72909940E-03  6.56705340E+00
 -1.00155485E-04 -2.28656861E-03  6.56705340E+00 -1.00155485E-04 -2.28656861E-03
  6.56705340E+00 -1.00155485E-04 -2.28656861E-03  6.56705340E+00 -1.00155485E-04
 -2.28656861E-03  6.56705340E+00 -1.00155485E-04 -2.28656861E-03
Num ILSW                                   I              100
ILSW                                       I   N=         100
           0           1           0           0           2           0
           0           0           0           0         402          -1
           5           0           0           0           2           0
           0           0           0           0           1           0
           1           1           0           0           0           0
           0           0      100000           0          -1           0
           0           0           0           0           0           0
           0           0           0           1           0           0
           0 -2000000000           1           0           0           0
           0           0           4          52           0           0
           0           0           5           0           0           0
           0           0           0           7           0           1
           0           0           0           0           0           0
           0           0           0           0           0           0
           0           0           0           0           0           0
           0           0           0           0           0           0
           0           0           0           0
Num RLSW                                   I               52
RLSW                                       R   N=          52
  8.00000000E-01  7.20000000E-01  1.00000000E+00  8.10000000E-01  2.00000000E-01
  0.00000000E+00  0.00000000E+00  1.00000000E+00  0.00000000E+00  0.00000000E+00
  0.00000000E+00  0.00000000E+00  1.00000000E+00  0.00000000E+00  0.00000000E+00
  0.00000000E+00  0.00000000E+00  1.00000000E+00  0.00000000E+00  0.00000000E+00
  0.00000000E+00  0.00000000E+00  1.00000000E+00  0.00000000E+00  0.00000000E+00
  0.00000000E+00  0.00000000E+00  1.00000000E+00  0.00000000E+00  0.00000000E+00
  0.00000000E+00  0.00000000E+00  1.00000000E+00  0.00000000E+00  0.00000000E+00
  0.00000000E+00  0.00000000E+00  0.00000000E+00  1.00000000E+00  1.00000000E+00
  0.00000000E+00  1.00000000E+00  0.00000000E+00  0.00000000E+00  0.00000000E+00
  0.00000000E+00  0.00000000E+00  0.00000000E+00  0.00000000E+00  0.00000000E+00
  0.00000000E+00  0.00000000E+00
MxBond                                     I                4
NBond                                      I   N=           7
           4           0           1           1           1           2
           1
IBond                                      I   N=          28
           3           4           5           6           0           0
           0           0           1           0           0           0
           1           0           0           0           1           0
           0           0           1           7           0           0
           6           0           0           0
RBond                                      R   N=          28
  1.00000000E+00  1.00000000E+00  1.00000000E+00  1.00000000E+00  0.00000000E+00
  0.00000000E+00  0.00000000E+00  0.00000000E+00  1.00000000E+00  0.00000000E+00
  0.00000000E+00  0.00000000E+00  1.00000000E+00  0.00000000E+00  0.00000000E+00
  0.00000000E+00  1.00000000E+00  0.00000000E+00  0.00000000E+00  0.00000000E+00
  1.00000000E+00  3.00000000E+00  0.00000000E+00  0.00000000E+00  3.00000000E+00
  0.00000000E+00  0.00000000E+00  0.00000000E+00
Virial Ratio                               R      2.004719936722970E+00
SCF Energy                                 R     -5.930599912829224E+02
Total Energy                               R     -5.930599912829224E+02
RMS Force                                  R      1.662213709923058E-03
RMS Density                                R      2.003239381058357E-09
NImag                                      I                2
Job Status                                 I                1
Nuclear derivative order                   I                2
External E-field                           R   N=          35
  0.00000000E+00  0.00000000E+00  0.00000000E+00  0.00000000E+00  0.00000000E+00
  0.00000000E+00  0.00000000E+00  0.00000000E+00  0.00000000E+00  0.00000000E+00
  0.00000000E+00  0.00000000E+00  0.00000000E+00  0.00000000E+00  0.00000000E+00
  0.00000000E+00  0.00000000E+00  0.00000000E+00  0.00000000E+00  0.00000000E+00
  0.00000000E+00  0.00000000E+00  0.00000000E+00  0.00000000E+00  0.00000000E+00
  0.00000000E+00  0.00000000E+00  0.00000000E+00  0.00000000E+00  0.00000000E+00
  0.00000000E+00  0.00000000E+00  0.00000000E+00  0.00000000E+00  0.00000000E+00
IOpCl                                      I                0
IROHF                                      I                0
Alpha Orbital Energies                     R   N=          98
 -1.01254445E+02 -1.42317170E+01 -1.01288760E+01 -1.01009739E+01 -9.16779081E+00
 -6.92560932E+00 -6.92560842E+00 -6.92553647E+00 -8.01383804E-01 -6.47628330E-01
 -5.05424850E-01 -3.85324864E-01 -3.31206721E-01 -3.31173282E-01 -2.61880714E-01
 -2.20446212E-01 -2.20440740E-01 -5.26645280E-02 -5.15420669E-02 -5.15379276E-02
  9.91090225E-02  1.33507286E-01  1.33595430E-01  1.41970340E-01  1.44834552E-01
  1.44853811E-01  1.98113108E-01  2.03820226E-01  2.03884120E-01  2.19412891E-01
  2.29130135E-01  2.29221701E-01  2.50341497E-01  2.58847020E-01  2.58909892E-01
  2.88248352E-01  3.25501136E-01  3.33258059E-01  3.33282285E-01  3.39857043E-01
  3.39953747E-01  3.43563033E-01  3.92999861E-01  4.06583768E-01  4.82364331E-01
  6.93037445E-01  7.84048890E-01  7.84058063E-01  8.42396240E-01  8.42494471E-01
  8.50065374E-01  8.50195058E-01  8.51383547E-01  8.82518680E-01  9.84836667E-01
  1.01862005E+00  1.02139494E+00  1.02153945E+00  1.09681884E+00  1.11516186E+00
  1.11520094E+00  1.15427972E+00  1.15428881E+00  1.15926733E+00  1.15926889E+00
  1.19876765E+00  1.23803723E+00  1.26907334E+00  1.44896505E+00  1.44899287E+00
  1.53587351E+00  1.62304334E+00  1.62304818E+00  1.85814182E+00  1.85815560E+00
  1.89172796E+00  2.04986478E+00  2.04988057E+00  2.14277191E+00  2.23057218E+00
  2.23066401E+00  2.29931317E+00  2.39280425E+00  2.39295648E+00  2.75319838E+00
  2.79738604E+00  2.79750608E+00  3.04600274E+00  3.08506513E+00  3.08518420E+00
  3.27916086E+00  3.44659924E+00  3.54554600E+00  3.54560900E+00  4.24459650E+00
  4.43415839E+00  4.57268126E+00  4.80434136E+00
Alpha MO coefficients                      R   N=        9604
  3.42549490E-07  2.13033326E-07 -7.33527658E-06 -1.27921002E-10  1.10556650E-08
  7.43377506E-05  7.47213757E-05  2.05213199E-09 -1.80268087E-07  1.07616180E-03
  3.53706829E-04  8.04350665E-09 -5.38153555E-07  8.59635725E-07  2.93506190E-06
  2.91879056E-06  1.14781941E-10  2.85188895E-09  3.09342737E-11  9.95998008E-01
  1.51388480E-02  4.90210190E-06 -5.99948549E-11  6.35538374E-09 -2.10652521E-02
 -1.36846517E-05  9.96573423E-11 -1.82353558E-08  1.99126921E-03  3.39676899E-05
 -1.52211944E-10  3.59424142E-08 -3.28321134E-04 -3.44992493E-05 -5.91061924E-10
  8.73026435E-08  7.50248816E-03  7.50152623E-03  7.50152588E-03 -4.70717548E-11
  6.73320383E-09  2.78779046E-12  6.52015323E-06 -1.48952966E-05  5.70888279E-05
 -1.45061289E-06  4.40855954E-09 -2.18027660E-06  6.54524634E-06 -1.46739920E-05
  5.66384686E-05 -1.59447597E-06  1.84825337E-06  1.09728732E-06  6.54536732E-06
 -1.46730958E-05  5.66449128E-05 -1.59504739E-06 -1.85286382E-06  1.08944807E-06
  1.62649834E-06  7.41965736E-06  1.09656832E-06 -6.42640765E-10  8.76871057E-09
 -7.04126219E-05  7.04650596E-05  3.63137413E-09 -1.67534671E-07 -1.28778381E-03
  3.59062285E-04  2.13077833E-08 -9.42096684E-07 -7.00687403E-07  2.75754828E-06
  2.76135593E-06 -2.41282011E-11  1.08771222E-08  1.31162428E-11  1.24817710E-06
  4.68285401E-06 -5.34356153E-07 -1.12464419E-11  3.80220538E-09 -5.59100267E-05
  1.11596417E-05 -2.18464990E-09 -3.34704269E-08  1.19209961E-04 -7.37203927E-05
 -5.81704101E-09  3.10546535E-07  2.82996129E-06  2.30582552E-06  2.30494358E-06
  4.45685070E-10 -5.16531724E-09  3.22760096E-12  9.56730338E-06 -1.87431140E-04
  2.70159302E-04  9.29730947E-09 -5.16475898E-07  9.64883223E-04  6.25814274E-04
  7.07336361E-08 -1.30157693E-06  9.79492447E-03  2.53412175E-03  1.07596535E-07
 -3.25886131E-06  4.71681980E-04  2.70139832E-05  2.70266665E-05  4.21130198E-08
 -1.02104639E-06  1.78206737E-09  3.39094971E-08  5.33067655E-07  4.17760105E-06
 -3.40548189E-11  1.26029975E-08  4.78399018E-06 -2.30351091E-05  1.07601784E-10
 -6.58449862E-08 -5.00822508E-05  4.76256083E-05  1.35289680E-09  1.10380218E-07
  3.41965870E-04  1.08410386E-04 -1.54929864E-08  5.14236469E-07  2.01685637E-06
 -3.68980977E-06 -3.68433051E-06 -6.80907614E-10  2.88720857E-08  1.04889036E-11
  7.59082001E-07 -7.30019378E-05 -2.35070969E-04 -2.15522087E-06  7.83632778E-10
 -2.06431316E-06  7.86409153E-07 -7.31233045E-05 -2.33910364E-04 -2.17033208E-06
  1.77162754E-06  1.03948930E-06  7.91348550E-07 -7.30754836E-05 -2.33936654E-04
 -2.16156471E-06 -1.78450826E-06  1.03294170E-06  7.65462245E-05  3.24313606E-04
 -5.60004554E-04  4.53842202E-08  1.03949222E-06  5.07888178E-06  1.30171976E-03
  1.41931814E-09 -2.51666328E-06 -7.27129781E-03  4.11195850E-03  1.47073380E-08
 -9.98133457E-06 -1.44613345E-03  1.76526281E-05  1.76497774E-05  8.77954484E-08
  3.13861592E-06  2.68315450E-10  9.92763941E-01  3.47126777E-02 -2.14616614E-03
  1.90093841E-07  3.93493302E-06  3.60252321E-03  8.14254211E-04 -9.21263771E-08
 -1.60846872E-06 -3.35635337E-03 -4.17414472E-04 -4.39247302E-08  1.83682073E-06
 -7.31202777E-03 -8.36409206E-03 -8.36408585E-03 -9.46030904E-08 -2.22310798E-06
  2.02720159E-10  5.92321721E-03  1.14685644E-04 -4.34187931E-04 -3.05304235E-08
  1.02619039E-06  7.05494127E-03  2.50618673E-03  1.76755666E-07 -5.73492989E-06
  7.28095678E-02  2.52884427E-02  6.28413981E-07 -2.89774538E-05 -1.02422125E-03
 -2.03233828E-04 -2.03119990E-04 -4.46701349E-08  1.87383848E-06  2.03023800E-10
  1.23012581E-07  1.69215617E-06  2.27752260E-05 -7.67747155E-10  7.31277677E-08
  1.28646089E-05 -1.35913783E-04  4.02150389E-09 -4.02423486E-07 -3.08048964E-04
  4.32617578E-04 -4.57935315E-09  7.72461586E-07  3.82828091E-03  1.49258096E-03
 -5.25760348E-08  7.23125530E-06  2.88205111E-05 -2.23259365E-05 -2.22916761E-05
 -3.49022275E-09  3.31426077E-07  4.14954338E-10 -1.19670854E-04 -7.60223709E-04
  1.39572801E-06  4.61734961E-05 -3.36327949E-08  1.17931622E-05 -1.19503875E-04
 -7.61016156E-04  1.13496599E-05  4.59321098E-05 -1.04615818E-05 -6.13149734E-06
 -1.19480552E-04 -7.60985554E-04  1.20026169E-05  4.58899358E-05  1.04986343E-05
 -6.10486237E-06  9.92763315E-01  5.03719796E-02  2.42150285E-04 -9.26224987E-08
 -1.74299233E-07 -1.04878613E-02  7.30945062E-03  3.55577717E-08 -1.43330188E-05
 -7.99384638E-02  2.24725226E-02  1.30680425E-06 -6.82575741E-05 -7.84711412E-03
 -9.89960641E-03 -9.89958406E-03 -1.01668645E-07 -4.34789126E-06  1.35553415E-09
 -4.72741167E-04  3.29783648E-04  3.32242481E-04 -3.99008049E-08 -2.60327407E-07
 -7.57497216E-03  3.09976982E-03 -3.51219761E-07 -7.18934063E-06  8.00421570E-03
 -6.09759363E-03 -2.61362358E-07  2.30539878E-05 -2.25853646E-05  3.28015433E-04
  3.28024450E-04  9.73108908E-08  6.14502996E-07 -3.32329943E-12  9.93016618E-01
  5.06400468E-02  7.48051398E-04  2.55897657E-08  4.24505089E-07 -2.45469447E-02
 -4.60670969E-03 -2.94436279E-07  5.65613388E-06  4.39667669E-02  1.83236833E-02
  3.35014085E-07 -1.97129260E-05 -8.94349631E-03 -8.86187963E-03 -8.86193289E-03
 -6.81756086E-10  5.17124613E-08 -1.31344995E-08  8.75549473E-07  1.41166464E-05
  5.51735517E-06 -2.62011687E-10  8.75757663E-08  4.37555990E-05 -3.06929143E-05
  1.76109050E-09 -5.05391149E-07 -3.54018706E-04  2.07151076E-04 -7.43173188E-09
  1.29512225E-06  3.44621069E-03  1.39209700E-03 -1.67433287E-08  5.69871537E-06
  2.33985076E-05  2.27036136E-05  2.26380696E-05 -1.69330940E-09  3.54416202E-07
  2.57571805E-10  3.21777214E-06  3.17929035E-03  1.71490823E-04  2.60552003E-05
  2.70068062E-07 -1.22800282E-04  3.32449636E-06  3.18005680E-03  1.84656304E-04
  2.61586668E-05  1.06480424E-04  6.17846609E-05  3.26820910E-06  3.17999540E-03
  1.85054948E-04  2.61824901E-05 -1.06725985E-04  6.13501892E-05 -6.22401629E-03
 -4.51096230E-04  2.67679612E-04  2.84488235E-09 -3.66351736E-07  3.55530799E-03
 -9.50488369E-03  6.54405874E-08  1.87106336E-05 -5.10528550E-02  1.29898447E-02
  8.65811103E-07 -4.65476555E-05 -8.34155510E-04 -3.76111491E-06 -3.77077807E-06
  1.76155889E-09  1.87809409E-06 -9.84667686E-10 -1.85234833E-05 -5.25577978E-05
 -2.47780940E-04  1.69396505E-09  7.93398312E-07  5.38676897E-03 -1.77874676E-03
  4.24815427E-07  1.10868049E-06  4.85539866E-03 -2.46408216E-03 -2.23034073E-07
  1.47168556E-05  1.48451369E-04 -7.56402310E-05 -7.56254093E-05 -7.90553190E-08
 -3.74412084E-07  6.82727736E-10  5.26205109E-05  3.28638944E-04  1.55052649E-04
  7.18604073E-09  1.97348104E-07 -4.19219435E-03 -3.46855069E-03 -2.36766391E-07
  1.02822609E-05  1.20943597E-02  5.55374990E-03  3.14513122E-08  4.70928096E-06
 -1.64050719E-04  1.00430573E-04  9.99441488E-05 -1.54288801E-08  3.48493523E-07
 -4.80535491E-09 -2.84644157E-01  1.02263951E+00  2.65209974E-04 -5.08193050E-09
  2.60366357E-07  7.49633493E-02  3.80242993E-04 -2.13784613E-09  5.14741798E-07
 -2.04701235E-02 -1.10326278E-03  1.20042517E-09 -1.17287998E-06  1.02909919E-02
  3.15455682E-03  3.18936086E-09  1.62450533E-06 -1.56749299E-02 -1.56842851E-02
 -1.56841598E-02 -1.91855545E-10 -9.33554549E-08 -7.14839784E-11  1.15097230E-05
 -8.35537247E-04 -2.80595939E-03  1.10268871E-04  1.39504242E-07 -6.14292017E-05
  1.37442282E-05 -8.48238177E-04 -2.77187121E-03  1.10861039E-04  5.42456003E-05
  3.12069219E-05  1.37178385E-05 -8.48372117E-04 -2.77178932E-03  1.10873093E-04
 -5.43750805E-05  3.09936878E-05 -3.56608258E-05 -2.33140980E-04 -2.23217004E-05
  4.63006887E-09  2.66954460E-08 -3.17927279E-04 -5.79917656E-03  8.84224883E-08
  1.04302862E-05 -5.25108572E-03  9.65879666E-04  7.90420807E-08 -2.01119586E-05
  8.75013397E-05 -2.87545304E-05 -2.88715595E-05  1.43875139E-08 -2.14927701E-07
 -2.48089630E-10 -1.14215547E-04 -4.56922036E-04  2.48638301E-05 -2.03944110E-08
  1.15498831E-07  5.77743546E-03 -1.76121824E-03  2.74789909E-07  2.45067645E-06
 -1.99015881E-03  9.41949219E-04 -4.20811174E-08  4.40004928E-06 -1.77108488E-04
 -2.29337881E-04 -2.29294849E-04 -2.40229585E-08 -9.92998833E-08 -9.88137773E-11
 -4.01518690E-07 -2.30977797E-06 -6.57890426E-07  1.78069399E-09 -1.37807739E-06
  2.46271944E-05  6.67516697E-06  7.46735442E-07 -5.55893723E-04  2.06773105E-05
  5.85006961E-06 -5.19204959E-07  3.63450449E-04  3.84738997E-07 -3.67786671E-05
  3.60989739E-05 -4.65537244E-08  3.50815150E-05 -2.07061271E-07 -3.55993533E-07
  9.28781417E-07 -4.27966862E-03 -1.31520848E-03  9.90826107E-01 -1.18861048E-06
 -1.28837724E-04 -3.92670232E-05  2.95834829E-02  5.68122679E-06  5.12375735E-05
  1.50638289E-05 -1.13528946E-02 -1.03398033E-05 -2.39727982E-05 -6.27795922E-06
  4.74480857E-03 -7.04024028E-07  2.48257122E-06 -3.32885376E-06 -5.50194328E-08
  4.18471804E-05  1.59901094E-08  1.27247436E-04 -8.62869580E-04  3.85313253E-03
 -1.61092620E-05  1.95827987E-07 -9.10367076E-05 -6.25989968E-05  4.19878178E-04
 -1.92609831E-03  7.73949605E-06 -4.23373889E-05 -1.64978477E-05 -6.24293583E-05
  4.18766492E-04 -1.92094792E-03  7.72013048E-06  4.23060352E-05 -1.62568639E-05
  1.55631578E-07  8.32950836E-07 -8.90795050E-08 -3.81175837E-08  2.88160289E-05
 -1.08603825E-05  1.22489220E-05  1.63376009E-08 -1.92955297E-05 -1.28711663E-05
 -2.67697292E-06 -1.37721429E-06  1.12874971E-03 -4.40549431E-07 -3.43620793E-06
  4.09583677E-06  2.25689665E-08 -1.75730140E-05 -2.23873387E-08 -2.36234195E-08
  1.72751390E-08  7.92138770E-09  6.72248733E-09 -8.22080181E-06 -4.00347318E-06
  2.89731998E-07 -4.83535443E-08  5.24710069E-05  6.47288378E-08  4.00150309E-06
  5.00574889E-07 -4.38923889E-04  1.52308809E-07  2.73284067E-06 -3.09875746E-06
  4.32772121E-09 -3.43673347E-06  1.61078212E-08 -3.43861354E-09 -4.01577057E-08
 -1.96026650E-08 -2.11701433E-06 -2.86508020E-09  9.09812357E-07  7.26032090E-07
 -5.47448612E-04 -7.20198388E-07  1.42017481E-05  5.32675342E-06  3.51094344E-04
  4.23114688E-07  4.12820071E-08  1.77261251E-07 -1.77017986E-07  3.42293990E-05
  4.53459516E-08 -4.15048655E-05 -1.39642146E-08  3.61179064E-08 -1.13331510E-04
  9.90835530E-01  1.31473077E-03 -3.87689937E-08 -3.45470249E-06  2.95828383E-02
  3.92547154E-05  1.63958744E-07  1.49885904E-06 -1.13504755E-02 -1.50663616E-05
  5.62559975E-07 -2.97136060E-07  4.73888378E-03  6.30991894E-06 -1.73235377E-08
 -4.38455171E-08 -1.35230897E-08  4.18030280E-05  5.60901617E-08  3.49694648E-06
 -8.84853552E-08  7.04356149E-07 -2.48653227E-06 -1.04983920E-08  7.77643606E-06
  8.96825991E-08 -1.09733004E-04  7.33603664E-04 -3.30288843E-03  1.37416685E-05
 -6.52186361E-05 -4.23787822E-05  1.09836831E-04 -7.34130256E-04  3.30640443E-03
 -1.38018787E-05 -6.54488569E-05  4.21260750E-05  2.11304260E-08  1.03601352E-07
 -1.04222023E-09  2.85701857E-05  3.81336818E-08 -1.36363880E-07  1.41094835E-06
 -1.98030246E-05 -3.85919616E-08 -1.62716855E-05  4.76888438E-06  1.12201680E-03
  1.59526868E-06  1.23771629E-08  4.48518586E-08  1.06372618E-08 -1.73252738E-05
 -2.36931722E-08 -4.20896929E-06  2.04021261E-08  9.08695702E-08 -7.40321770E-09
 -8.17220401E-06 -1.50076643E-08 -1.25606305E-06  4.76204269E-07  5.21838371E-05
  8.98511608E-08  6.07051609E-07 -7.51884534E-07 -4.34807184E-04 -6.55101819E-07
  1.08152974E-08  2.56756125E-08  5.51048775E-08 -3.45562351E-06 -4.80229649E-09
  3.35441675E-06  2.92998030E-05  3.43750622E-04  1.96551763E-04  1.55027714E-08
  1.11074687E-07 -6.88338407E-03 -5.71803914E-03 -4.29963463E-07  1.49364260E-05
 -9.04640046E-02 -3.45940281E-02 -5.49248159E-07  3.71993726E-05 -3.46097736E-04
  2.57582968E-06  2.22749259E-06 -1.59481874E-08  6.47722320E-07 -1.14417982E-08
  1.09258522E-04 -2.71861282E-04  9.90723996E-01  1.07666315E-04  4.27980233E-03
  3.41695887E-04  3.01334467E-02  3.20714412E-06  1.28927920E-04 -1.48918796E-03
 -1.28930894E-02 -1.22321861E-06 -5.14953275E-05 -3.23161359E-03  3.25930080E-03
  5.79478877E-07  9.89442648E-06  1.59421012E-04  2.29108397E-04  2.29113014E-04
  8.46075901E-09 -4.54001807E-07  8.87788678E-11 -7.89172577E-05 -4.59242426E-04
 -2.58427415E-03  1.90135193E-04  1.05755461E-07 -4.14672879E-05 -7.70603891E-05
 -4.71543989E-04 -2.60100964E-03  1.92369973E-04  3.73570330E-05  2.10488217E-05
 -7.70776930E-05 -4.71888166E-04 -2.60063241E-03  1.92395300E-04 -3.74583778E-05
  2.09231996E-05 -1.47630614E-04 -7.37631720E-04  2.51139590E-05  5.83417169E-08