RxCoord=-8.28670 DE=0.56                                                
Freq      RB3LYP                                                      6-31++G(d,p)        
Number of atoms                            I                7
Info1-9                                    I   N=           9
          16          16           0           0           0         100
           6          18        -502
Full Title                                 C   N=           2
RxCoord=-8.28670 DE=0.56
Route                                      C   N=           6
#p b3lyp 6-31++g(d,p) scf=verytight NoSymm freq=noraman int=
ultrafine   
Charge                                     I               -1
Multiplicity                               I                1
Number of electrons                        I               40
Number of alpha electrons                  I               20
Number of beta electrons                   I               20
Number of basis functions                  I               98
Number of independent functions            I               98
Number of point charges in /Mol/           I                0
Number of translation vectors              I                0
Atomic numbers                             I   N=           7
           6          17           1           1           1           6
           7
Nuclear charges                            R   N=           7
  6.00000000E+00  1.70000000E+01  1.00000000E+00  1.00000000E+00  1.00000000E+00
  6.00000000E+00  7.00000000E+00
Current cartesian coordinates              R   N=          21
  1.60671129E+00  5.85815099E-05  6.58947500E-03 -4.74987008E+00  1.51178090E-05
 -2.64750630E-03  8.84971972E-01  4.09125706E-03 -1.92558746E+00  8.90045887E-01
  1.67219030E+00  9.78520974E-01  8.89994864E-01 -1.67613983E+00  9.71485524E-01
  4.36009328E+00 -5.85815099E-05  1.56658296E-03  6.55641613E+00 -4.91328792E-05
 -2.13539052E-03
Number of symbols in /Mol/                 I                0
Force Field                                I                0
Atom Types                                 C   N=           7
                                                            
                        
Int Atom Types                             I   N=           7
           0           0           0           0           0           0
           0
MM charges                                 R   N=           7
  0.00000000E+00  0.00000000E+00  0.00000000E+00  0.00000000E+00  0.00000000E+00
  0.00000000E+00  0.00000000E+00
Integer atomic weights                     I   N=           7
          12          35           1           1           1          12
          14
Real atomic weights                        R   N=           7
  1.20000000E+01  3.49688527E+01  1.00782504E+00  1.00782504E+00  1.00782504E+00
  1.20000000E+01  1.40030740E+01
Atom fragment info                         I   N=           7
           0           0           0           0           0           0
           0
Atom residue num                           I   N=           7
           0           0           0           0           0           0
           0
Nuclear spins                              I   N=           7
           0           3           1           1           1           0
           2
Nuclear ZEff                               R   N=           7
 -3.60000000E+00 -1.42400000E+01 -1.00000000E+00 -1.00000000E+00 -1.00000000E+00
 -3.60000000E+00 -4.55000000E+00
Nuclear ZNuc                               R   N=           7
  6.00000000E+00  1.70000000E+01  1.00000000E+00  1.00000000E+00  1.00000000E+00
  6.00000000E+00  7.00000000E+00
Nuclear QMom                               R   N=           7
  0.00000000E+00 -8.16500000E+00  0.00000000E+00  0.00000000E+00  0.00000000E+00
  0.00000000E+00  2.04400000E+00
Nuclear GFac                               R   N=           7
  0.00000000E+00  8.21874000E-01  2.79284600E+00  2.79284600E+00  2.79284600E+00
  0.00000000E+00  4.03761000E-01
MicOpt                                     I   N=           7
          -1          -1          -1          -1          -1          -1
          -1
Number of residues                         I                0
Number of secondary structures             I                0
Number of contracted shells                I               33
Number of primitive shells                 I               72
Pure/Cartesian d shells                    I                1
Pure/Cartesian f shells                    I                0
Highest angular momentum                   I                2
Largest degree of contraction              I                6
Shell types                                I   N=          33
           0          -1          -1          -1           2           0
          -1          -1          -1          -1           2           0
           0           0           1           0           0           0
           1           0           0           0           1           0
          -1          -1          -1           2           0          -1
          -1          -1           2
Number of primitives per shell             I   N=          33
           6           3           1           1           1           6
           6           3           1           1           1           3
           1           1           1           3           1           1
           1           3           1           1           1           6
           3           1           1           1           6           3
           1           1           1
Shell to atom map                          I   N=          33
           1           1           1           1           1           2
           2           2           2           2           2           3
           3           3           3           4           4           4
           4           5           5           5           5           6
           6           6           6           6           7           7
           7           7           7
Primitive exponents                        R   N=          72
  3.04752488E+03  4.57369518E+02  1.03948685E+02  2.92101553E+01  9.28666296E+00
  3.16392696E+00  7.86827235E+00  1.88128854E+00  5.44249258E-01  1.68714478E-01
  4.38000000E-02  8.00000000E-01  2.51801000E+04  3.78035000E+03  8.60474000E+02
  2.42145000E+02  7.73349000E+01  2.62470000E+01  4.91765000E+02  1.16984000E+02
  3.74153000E+01  1.37834000E+01  5.45215000E+00  2.22588000E+00  3.18649000E+00
  1.14427000E+00  4.20377000E-01  1.42657000E-01  4.83000000E-02  7.50000000E-01
  1.87311370E+01  2.82539436E+00  6.40121692E-01  1.61277759E-01  3.60000000E-02
  1.10000000E+00  1.87311370E+01  2.82539436E+00  6.40121692E-01  1.61277759E-01
  3.60000000E-02  1.10000000E+00  1.87311370E+01  2.82539436E+00  6.40121692E-01
  1.61277759E-01  3.60000000E-02  1.10000000E+00  3.04752488E+03  4.57369518E+02
  1.03948685E+02  2.92101553E+01  9.28666296E+00  3.16392696E+00  7.86827235E+00
  1.88128854E+00  5.44249258E-01  1.68714478E-01  4.38000000E-02  8.00000000E-01
  4.17351146E+03  6.27457911E+02  1.42902093E+02  4.02343293E+01  1.28202129E+01
  4.39043701E+00  1.16263619E+01  2.71627981E+00  7.72218397E-01  2.12031498E-01
  6.39000000E-02  8.00000000E-01
Contraction coefficients                   R   N=          72
  1.83473713E-03  1.40373228E-02  6.88426223E-02  2.32184443E-01  4.67941348E-01
  3.62311985E-01 -1.19332420E-01 -1.60854152E-01  1.14345644E+00  1.00000000E+00
  1.00000000E+00  1.00000000E+00  1.83295985E-03  1.40341988E-02  6.90973943E-02
  2.37451980E-01  4.83033960E-01  3.39855972E-01 -2.29739142E-03 -3.07137189E-02
 -1.12528069E-01  4.50163278E-02  5.89353363E-01  4.65206287E-01 -2.51828028E-01
  6.15892514E-02  1.06018433E+00  1.00000000E+00  1.00000000E+00  1.00000000E+00
  3.34946043E-02  2.34726953E-01  8.13757326E-01  1.00000000E+00  1.00000000E+00
  1.00000000E+00  3.34946043E-02  2.34726953E-01  8.13757326E-01  1.00000000E+00
  1.00000000E+00  1.00000000E+00  3.34946043E-02  2.34726953E-01  8.13757326E-01
  1.00000000E+00  1.00000000E+00  1.00000000E+00  1.83473713E-03  1.40373228E-02
  6.88426223E-02  2.32184443E-01  4.67941348E-01  3.62311985E-01 -1.19332420E-01
 -1.60854152E-01  1.14345644E+00  1.00000000E+00  1.00000000E+00  1.00000000E+00
  1.83477216E-03  1.39946270E-02  6.85865518E-02  2.32240873E-01  4.69069948E-01
  3.60455199E-01 -1.14961182E-01 -1.69117479E-01  1.14585195E+00  1.00000000E+00
  1.00000000E+00  1.00000000E+00
P(S=P) Contraction coefficients            R   N=          72
  0.00000000E+00  0.00000000E+00  0.00000000E+00  0.00000000E+00  0.00000000E+00
  0.00000000E+00  6.89990666E-02  3.16423961E-01  7.44308291E-01  1.00000000E+00
  1.00000000E+00  0.00000000E+00  0.00000000E+00  0.00000000E+00  0.00000000E+00
  0.00000000E+00  0.00000000E+00  0.00000000E+00  3.98940088E-03  3.03177067E-02
  1.29880029E-01  3.27951072E-01  4.53527100E-01  2.52154056E-01 -1.42993147E-02
  3.23572333E-01  7.43507765E-01  1.00000000E+00  1.00000000E+00  0.00000000E+00
  0.00000000E+00  0.00000000E+00  0.00000000E+00  0.00000000E+00  0.00000000E+00
  0.00000000E+00  0.00000000E+00  0.00000000E+00  0.00000000E+00  0.00000000E+00
  0.00000000E+00  0.00000000E+00  0.00000000E+00  0.00000000E+00  0.00000000E+00
  0.00000000E+00  0.00000000E+00  0.00000000E+00  0.00000000E+00  0.00000000E+00
  0.00000000E+00  0.00000000E+00  0.00000000E+00  0.00000000E+00  6.89990666E-02
  3.16423961E-01  7.44308291E-01  1.00000000E+00  1.00000000E+00  0.00000000E+00
  0.00000000E+00  0.00000000E+00  0.00000000E+00  0.00000000E+00  0.00000000E+00
  0.00000000E+00  6.75797439E-02  3.23907296E-01  7.40895140E-01  1.00000000E+00
  1.00000000E+00  0.00000000E+00
Coordinates of each shell                  R   N=          99
  1.60671129E+00  5.85815099E-05  6.58947500E-03  1.60671129E+00  5.85815099E-05
  6.58947500E-03  1.60671129E+00  5.85815099E-05  6.58947500E-03  1.60671129E+00
  5.85815099E-05  6.58947500E-03  1.60671129E+00  5.85815099E-05  6.58947500E-03
 -4.74987008E+00  1.51178090E-05 -2.64750630E-03 -4.74987008E+00  1.51178090E-05
 -2.64750630E-03 -4.74987008E+00  1.51178090E-05 -2.64750630E-03 -4.74987008E+00
  1.51178090E-05 -2.64750630E-03 -4.74987008E+00  1.51178090E-05 -2.64750630E-03
 -4.74987008E+00  1.51178090E-05 -2.64750630E-03  8.84971972E-01  4.09125706E-03
 -1.92558746E+00  8.84971972E-01  4.09125706E-03 -1.92558746E+00  8.84971972E-01
  4.09125706E-03 -1.92558746E+00  8.84971972E-01  4.09125706E-03 -1.92558746E+00
  8.90045887E-01  1.67219030E+00  9.78520974E-01  8.90045887E-01  1.67219030E+00
  9.78520974E-01  8.90045887E-01  1.67219030E+00  9.78520974E-01  8.90045887E-01
  1.67219030E+00  9.78520974E-01  8.89994864E-01 -1.67613983E+00  9.71485524E-01
  8.89994864E-01 -1.67613983E+00  9.71485524E-01  8.89994864E-01 -1.67613983E+00
  9.71485524E-01  8.89994864E-01 -1.67613983E+00  9.71485524E-01  4.36009328E+00
 -5.85815099E-05  1.56658296E-03  4.36009328E+00 -5.85815099E-05  1.56658296E-03
  4.36009328E+00 -5.85815099E-05  1.56658296E-03  4.36009328E+00 -5.85815099E-05
  1.56658296E-03  4.36009328E+00 -5.85815099E-05  1.56658296E-03  6.55641613E+00
 -4.91328792E-05 -2.13539052E-03  6.55641613E+00 -4.91328792E-05 -2.13539052E-03
  6.55641613E+00 -4.91328792E-05 -2.13539052E-03  6.55641613E+00 -4.91328792E-05
 -2.13539052E-03  6.55641613E+00 -4.91328792E-05 -2.13539052E-03
Num ILSW                                   I              100
ILSW                                       I   N=         100
           0           1           0           0           2           0
           0           0           0           0         402          -1
           5           0           0           0           2           0
           0           0           0           0           1           0
           1           1           0           0           0           0
           0           0      100000           0          -1           0
           0           0           0           0           0           0
           0           0           0           1           0           0
           0 -2000000000           1           0           0           0
           0           0           4          52           0           0
           0           0           5           0           0           0
           0           0           0           7           0           1
           0           0           0           0           0           0
           0           0           0           0           0           0
           0           0           0           0           0           0
           0           0           0           0           0           0
           0           0           0           0
Num RLSW                                   I               52
RLSW                                       R   N=          52
  8.00000000E-01  7.20000000E-01  1.00000000E+00  8.10000000E-01  2.00000000E-01
  0.00000000E+00  0.00000000E+00  1.00000000E+00  0.00000000E+00  0.00000000E+00
  0.00000000E+00  0.00000000E+00  1.00000000E+00  0.00000000E+00  0.00000000E+00
  0.00000000E+00  0.00000000E+00  1.00000000E+00  0.00000000E+00  0.00000000E+00
  0.00000000E+00  0.00000000E+00  1.00000000E+00  0.00000000E+00  0.00000000E+00
  0.00000000E+00  0.00000000E+00  1.00000000E+00  0.00000000E+00  0.00000000E+00
  0.00000000E+00  0.00000000E+00  1.00000000E+00  0.00000000E+00  0.00000000E+00
  0.00000000E+00  0.00000000E+00  0.00000000E+00  1.00000000E+00  1.00000000E+00
  0.00000000E+00  1.00000000E+00  0.00000000E+00  0.00000000E+00  0.00000000E+00
  0.00000000E+00  0.00000000E+00  0.00000000E+00  0.00000000E+00  0.00000000E+00
  0.00000000E+00  0.00000000E+00
MxBond                                     I                4
NBond                                      I   N=           7
           4           0           1           1           1           2
           1
IBond                                      I   N=          28
           3           4           5           6           0           0
           0           0           1           0           0           0
           1           0           0           0           1           0
           0           0           1           7           0           0
           6           0           0           0
RBond                                      R   N=          28
  1.00000000E+00  1.00000000E+00  1.00000000E+00  1.00000000E+00  0.00000000E+00
  0.00000000E+00  0.00000000E+00  0.00000000E+00  1.00000000E+00  0.00000000E+00
  0.00000000E+00  0.00000000E+00  1.00000000E+00  0.00000000E+00  0.00000000E+00
  0.00000000E+00  1.00000000E+00  0.00000000E+00  0.00000000E+00  0.00000000E+00
  1.00000000E+00  3.00000000E+00  0.00000000E+00  0.00000000E+00  3.00000000E+00
  0.00000000E+00  0.00000000E+00  0.00000000E+00
Virial Ratio                               R      2.004717648124450E+00
SCF Energy                                 R     -5.930600067048478E+02
Total Energy                               R     -5.930600067048478E+02
RMS Force                                  R      1.673183205079959E-03
RMS Density                                R      1.878693641495712E-09
NImag                                      I                2
Job Status                                 I                1
Nuclear derivative order                   I                2
External E-field                           R   N=          35
  0.00000000E+00  0.00000000E+00  0.00000000E+00  0.00000000E+00  0.00000000E+00
  0.00000000E+00  0.00000000E+00  0.00000000E+00  0.00000000E+00  0.00000000E+00
  0.00000000E+00  0.00000000E+00  0.00000000E+00  0.00000000E+00  0.00000000E+00
  0.00000000E+00  0.00000000E+00  0.00000000E+00  0.00000000E+00  0.00000000E+00
  0.00000000E+00  0.00000000E+00  0.00000000E+00  0.00000000E+00  0.00000000E+00
  0.00000000E+00  0.00000000E+00  0.00000000E+00  0.00000000E+00  0.00000000E+00
  0.00000000E+00  0.00000000E+00  0.00000000E+00  0.00000000E+00  0.00000000E+00
IOpCl                                      I                0
IROHF                                      I                0
Alpha Orbital Energies                     R   N=          98
 -1.01254492E+02 -1.42314032E+01 -1.01285501E+01 -1.01005109E+01 -9.16784606E+00
 -6.92566627E+00 -6.92566542E+00 -6.92558609E+00 -8.01090215E-01 -6.47246782E-01
 -5.05534587E-01 -3.84942231E-01 -3.30812496E-01 -3.30776579E-01 -2.61602400E-01
 -2.20131853E-01 -2.20126935E-01 -5.27351194E-02 -5.16410128E-02 -5.16371062E-02
  9.92867850E-02  1.33755675E-01  1.33839683E-01  1.42080297E-01  1.45059635E-01
  1.45079323E-01  1.98215322E-01  2.03989272E-01  2.04049177E-01  2.19418533E-01
  2.29354738E-01  2.29445584E-01  2.50592801E-01  2.58917822E-01  2.58976532E-01
  2.88688730E-01  3.25684497E-01  3.33511389E-01  3.33531951E-01  3.40205702E-01
  3.40287804E-01  3.44196043E-01  3.93124098E-01  4.06874999E-01  4.82630816E-01
  6.92700716E-01  7.84325874E-01  7.84333302E-01  8.42839456E-01  8.42936489E-01
  8.49949598E-01  8.50070165E-01  8.51774457E-01  8.82803099E-01  9.85007202E-01
  1.01997247E+00  1.02177088E+00  1.02190764E+00  1.09702925E+00  1.11558945E+00
  1.11562041E+00  1.15421610E+00  1.15422491E+00  1.15922991E+00  1.15923145E+00
  1.19993631E+00  1.23892497E+00  1.26952218E+00  1.44934567E+00  1.44938559E+00
  1.53623633E+00  1.62333620E+00  1.62334115E+00  1.85849960E+00  1.85852967E+00
  1.89290566E+00  2.05017411E+00  2.05019164E+00  2.14325532E+00  2.23110926E+00
  2.23121888E+00  2.30020348E+00  2.39320351E+00  2.39334249E+00  2.75497524E+00
  2.79780246E+00  2.79789102E+00  3.04660237E+00  3.08551750E+00  3.08568539E+00
  3.27963299E+00  3.44713790E+00  3.54613892E+00  3.54615127E+00  4.24520831E+00
  4.43490897E+00  4.57322806E+00  4.80480514E+00
Alpha MO coefficients                      R   N=        9604
  4.13079139E-07  1.07984541E-06 -7.20228984E-06  1.40080894E-10  1.14581430E-08
  6.72477522E-05  6.98375239E-05 -2.85389435E-09 -1.57448803E-07  1.09936396E-03
  3.63303942E-04 -1.31211929E-08 -5.18271753E-07  1.39501638E-07  3.02464542E-06
  3.00840436E-06 -1.72321611E-10  2.84813239E-09  6.73823981E-11  9.95998005E-01
  1.51388641E-02  4.87547868E-06  5.67552384E-11  6.13511181E-09 -2.10652904E-02
 -1.36265230E-05 -9.00174895E-11 -1.70938375E-08  1.99129417E-03  3.39162638E-05
  8.26416735E-11  3.38890649E-08 -3.27120748E-04 -3.39984543E-05  1.45948879E-09
  8.36902661E-08  7.50250517E-03  7.50155529E-03  7.50155499E-03  9.30479705E-11
  6.32557574E-09 -5.84973189E-12  6.51472715E-06 -1.55453261E-05  5.74448337E-05
 -1.11314406E-06  5.10662078E-09 -2.32673273E-06  6.54329886E-06 -1.53486011E-05
  5.70418723E-05 -1.24983233E-06  1.97884360E-06  1.17161036E-06  6.54292550E-06
 -1.53511804E-05  5.70427416E-05 -1.24841804E-06 -1.98382538E-06  1.16361846E-06
  1.56590580E-06  6.97774545E-06  1.12411871E-06  4.39784955E-10  8.45200460E-09
 -7.16815212E-05  6.02836185E-05 -4.27762725E-09 -1.41007998E-07 -1.31528914E-03
  3.65023468E-04 -2.29542906E-08 -9.10163764E-07 -4.36983912E-07  2.69282026E-06
  2.69628281E-06  8.38173325E-11  9.31816505E-09 -3.90180448E-11  1.10773078E-06
  4.05911697E-06 -4.38653464E-07  4.67286317E-11  3.58601064E-09 -4.72324126E-05
  7.98071928E-06  6.00211781E-10 -2.58322596E-08  1.23405266E-04 -7.49898404E-05
  6.50084225E-09  2.98996012E-07  2.64983436E-06  2.03408222E-06  2.03326946E-06
 -2.99611169E-10 -5.25458897E-09  4.41403207E-12  9.57288037E-06 -1.87414557E-04
  2.70219548E-04 -1.07516842E-08 -4.82729165E-07  9.66537840E-04  6.27319752E-04
 -5.56331893E-08 -1.25159127E-06  9.85067335E-03  2.56035544E-03 -1.18330239E-07
 -3.11419726E-06  4.71802585E-04  2.70216292E-05  2.70299562E-05 -3.57242635E-08
 -9.76693453E-07  2.44610452E-11  3.10443204E-08  4.02829326E-07  4.23072863E-06
  1.30164085E-10  1.21342743E-08  4.63117514E-06 -2.34235859E-05 -6.45372689E-10
 -6.35567374E-08 -4.87575152E-05  4.92452314E-05  5.05825175E-10  1.07888919E-07
  3.47344872E-04  1.09456873E-04  1.08850484E-08  4.95887044E-07  1.95320434E-06
 -4.05261856E-06 -4.04745856E-06  5.82549169E-10  2.83228618E-08 -4.91073596E-11
  7.17144910E-07 -7.24204642E-05 -2.33085002E-04 -2.20734523E-06  6.20942556E-09
 -2.03720478E-06  7.42059391E-07 -7.24779524E-05 -2.32022982E-04 -2.21235822E-06
  1.76657361E-06  1.03454157E-06  7.40810928E-07 -7.25045618E-05 -2.32038707E-04
 -2.21648226E-06 -1.76396773E-06  1.02538765E-06  7.66237463E-05  3.24584531E-04
 -5.59856007E-04 -3.80223694E-09  9.58125577E-07  4.18942302E-06  1.30481894E-03
 -3.92095716E-08 -2.36865574E-06 -7.34136301E-03  4.13063842E-03 -1.52729174E-07
 -9.42435683E-06 -1.44600053E-03  1.77533302E-05  1.77520123E-05  1.05197070E-08
  2.90861072E-06 -3.25519489E-10  9.92763925E-01  3.47131372E-02 -2.14585178E-03
 -2.39968195E-08  3.60998925E-06  3.59977289E-03  8.15143361E-04  1.69863336E-08
 -1.47099546E-06 -3.35322529E-03 -4.20039189E-04  4.28500492E-08  1.75423887E-06
 -7.31216496E-03 -8.36408467E-03 -8.36407867E-03  6.79040475E-09 -2.04855626E-06
 -2.13618963E-10  5.89761654E-03  1.13177007E-04 -4.34144368E-04  3.48499849E-08
  9.83101743E-07  7.06308302E-03  2.51391342E-03 -2.04756180E-07 -5.45130740E-06
  7.34535979E-02  2.55929923E-02 -8.86175014E-07 -2.76339852E-05 -1.02332833E-03
 -2.02770402E-04 -2.02681768E-04  5.33605187E-08  1.77677513E-06  3.31672457E-09
  1.09821464E-07  1.32410624E-06  2.29675949E-05  1.01088293E-09  7.11266847E-08
  1.20105783E-05 -1.37314418E-04 -5.39526417E-09 -3.91967631E-07 -3.04151125E-04
  4.40314465E-04  7.66858507E-09  7.62642093E-07  3.90310680E-03  1.51576864E-03
  8.05467696E-08  6.88416916E-06  2.87442072E-05 -2.31571521E-05 -2.31245973E-05
  4.64716477E-09  3.17133876E-07 -5.01207921E-10 -1.19888184E-04 -7.56477471E-04
  1.84021684E-05  4.58735009E-05 -1.86810442E-08  1.19755893E-05 -1.19733121E-04
 -7.57171249E-04  2.85097836E-05  4.55066433E-05 -1.06389932E-05 -6.23166245E-06
 -1.19744725E-04 -7.57213278E-04  2.80095401E-05  4.55556943E-05  1.06512017E-05
 -6.17172469E-06  9.92764047E-01  5.03753117E-02  2.43467183E-04  3.01175488E-08
 -1.51666945E-07 -1.04956102E-02  7.32735461E-03 -2.29591446E-07 -1.35082882E-05
 -8.07326512E-02  2.26855021E-02 -1.52340521E-06 -6.51457155E-05 -7.84578519E-03
 -9.89891779E-03 -9.89889223E-03 -2.31488135E-08 -4.03235260E-06 -9.15380974E-10
 -4.72517091E-04  3.31034615E-04  3.32537469E-04  1.22932837E-08 -2.26822938E-07
 -7.59274587E-03  3.10747178E-03  4.88176137E-08 -6.62082137E-06  8.03578710E-03
 -6.12701594E-03  4.18020864E-07  2.18874505E-05 -2.32167097E-05  3.28656770E-04
  3.28665232E-04 -3.32046607E-08  5.36343151E-07 -1.28256190E-10  9.93016632E-01
  5.06412649E-02  7.49082251E-04 -4.82374917E-08  3.80018273E-07 -2.45469187E-02
 -4.60480834E-03  4.10658340E-07  5.39303914E-06  4.42566518E-02  1.84790023E-02
 -4.56472713E-07 -1.89398713E-05 -8.94341202E-03 -8.86236146E-03 -8.86241030E-03
 -7.08030778E-09  1.15991630E-08  1.47105387E-08  8.97282041E-07  1.42476398E-05
  5.51136736E-06  3.42774809E-10  8.03889163E-08  4.48285902E-05 -3.06049865E-05
 -2.13527786E-09 -4.65450606E-07 -3.55458012E-04  2.06510292E-04  6.09440231E-09
  1.21395537E-06  3.49749805E-03  1.40779751E-03  4.64672560E-08  5.37733390E-06
  2.27902629E-05  2.30160465E-05  2.29541773E-05  2.87984031E-09  3.31362455E-07
  3.71658648E-10  3.24217368E-06  3.18068739E-03  1.78755438E-04  2.60108194E-05
  2.40923338E-07 -1.22658622E-04  3.21444078E-06  3.18145425E-03  1.91764943E-04
  2.62016589E-05  1.06328639E-04  6.16958349E-05  3.26943255E-06  3.18162721E-03
  1.91531415E-04  2.61767435E-05 -1.06591788E-04  6.12339707E-05 -6.19818557E-03
 -4.48871556E-04  2.67842384E-04 -9.74522616E-09 -3.57907990E-07  3.55169507E-03
 -9.50059557E-03  2.40354598E-07  1.76031896E-05 -5.14236338E-02  1.30832667E-02
 -1.00242917E-06 -4.40002458E-05 -8.34417995E-04 -3.61339590E-06 -3.63438344E-06
  2.94466168E-08  1.74749729E-06  1.77396310E-09 -1.84572945E-05 -5.21348988E-05
 -2.47905779E-04  9.63206977E-09  7.48799213E-07  5.38252627E-03 -1.77697958E-03
 -1.53271541E-07  8.43676511E-07  4.86943360E-03 -2.47500852E-03  2.65228743E-07
  1.38221927E-05  1.48485269E-04 -7.55132598E-05 -7.54986999E-05  2.79194282E-08
 -3.16200288E-07 -3.32472484E-10  5.28879725E-05  3.31249178E-04  1.58428271E-04
 -4.70641717E-10  1.87011233E-07 -4.25908476E-03 -3.52558211E-03  1.89512268E-07
  9.76329439E-06  1.20559975E-02  5.62248618E-03 -7.29908623E-08  4.72308796E-06
 -1.65900723E-04  1.00171125E-04  9.97230420E-05  1.69369842E-08  3.36968815E-07
  4.76306808E-09 -2.84643973E-01  1.02264082E+00  2.62491937E-04  5.77595466E-09
  2.65627378E-07  7.49688291E-02  3.84303864E-04  1.61682207E-09  4.95808019E-07
 -2.05010348E-02 -1.11482679E-03  3.09267411E-10 -1.12973441E-06  1.03709452E-02
  3.19044572E-03 -1.16127954E-08  1.59354005E-06 -1.56731339E-02 -1.56808260E-02
 -1.56807084E-02 -5.67752039E-10 -8.64861564E-08 -4.89244500E-10  9.19476020E-06
 -8.28952039E-04 -2.80311833E-03  1.11408786E-04  1.19279452E-07 -6.11448747E-05
  1.12114194E-05 -8.41028568E-04 -2.77146462E-03  1.12019133E-04  5.39317410E-05
  3.10440031E-05  1.12089163E-05 -8.40886631E-04 -2.77192283E-03  1.12000643E-04
 -5.40574606E-05  3.08050968E-05 -3.64009977E-05 -2.37291113E-04 -2.23704550E-05
 -1.60417148E-09  2.92306256E-08 -2.93412026E-04 -5.87623582E-03  1.40615429E-07
  9.85945627E-06 -5.29862158E-03  9.61959578E-04 -2.58590723E-07 -1.91340874E-05
  8.84325182E-05 -2.97789088E-05 -2.98860519E-05 -1.08274837E-08 -2.12684568E-07
  7.12780843E-10 -1.14914640E-04 -4.60186718E-04  2.51252768E-05  1.04237544E-08
  1.17960238E-07  5.83057799E-03 -1.77838078E-03 -8.36569701E-08  2.21432016E-06
 -1.97952847E-03  9.42875879E-04  5.90156374E-08  4.22154788E-06 -1.78106836E-04
 -2.30447505E-04 -2.30407320E-04  9.56773994E-09 -8.54159880E-08 -3.23992594E-10
 -3.49469909E-07 -1.94342822E-06 -5.47259916E-07  9.74012414E-09 -2.18460721E-06
  1.91609518E-05  3.55559325E-06  2.26067067E-06 -5.59460301E-04 -3.05008196E-05
 -1.33529380E-05 -1.44096604E-06  3.64308210E-04  2.07168177E-07 -3.69625952E-05
  3.63590239E-05 -1.43853825E-07  3.52561418E-05 -9.37797558E-08 -2.74262686E-07
  7.11283836E-07 -3.55176912E-03 -4.02423504E-03  9.90821254E-01 -9.65371405E-07
 -1.06783788E-04 -1.20161777E-04  2.95851198E-02  4.64525755E-06  4.20456545E-05
  4.61282033E-05 -1.13559526E-02 -1.14976811E-05 -2.10814231E-05 -1.93192098E-05
  4.75182364E-03 -5.84449163E-07  2.63224129E-06 -3.20782443E-06 -1.70618662E-07
  4.18978571E-05  7.30812148E-09  1.29189377E-04 -8.74625461E-04  3.87218018E-03
 -1.47847312E-05  1.76854201E-07 -9.24301968E-05 -6.33756425E-05  4.24392595E-04
 -1.92851868E-03  7.20931618E-06 -4.28710516E-05 -1.65855174E-05 -6.38188859E-05
  4.27347755E-04 -1.94181071E-03  7.25746667E-06  4.32049086E-05 -1.65761176E-05
  6.56554744E-08  3.88117558E-07 -6.77332192E-08 -1.20224790E-07  2.94389446E-05
 -9.50865868E-06  6.02669892E-06  9.74942622E-08 -2.12739190E-05  4.47580978E-05
 -1.93297154E-05 -4.67680171E-06  1.12914055E-03 -4.51855452E-07 -3.67744822E-06
  4.07871724E-06  7.15512951E-08 -1.75985113E-05 -8.45723951E-09 -9.40498995E-08
 -3.11397173E-07  3.18611317E-08  3.65496775E-08 -8.32998938E-06  9.00539931E-07
 -1.46560892E-06 -2.30946662E-07  5.31523321E-05 -1.56868410E-06  6.26935130E-06
  1.82781839E-06 -4.37142487E-04  9.90359022E-08  2.62987867E-06 -3.24324037E-06
  1.54439456E-08 -3.64322232E-06  7.70772216E-09  7.92593084E-10  2.15904538E-08
  1.02239333E-08 -2.87577913E-06 -1.08170634E-08 -6.58663055E-07 -5.90155660E-07
 -5.51617324E-04 -2.24987780E-06 -1.21669424E-05 -4.49467726E-06  3.52921319E-04
  1.47660160E-06 -3.19690825E-08  7.92735324E-08 -8.29006636E-08  3.44627225E-05
  1.39388691E-07 -4.18015178E-05  9.25498505E-09 -2.46281151E-08  6.34082383E-05
  9.90827793E-01  4.02448934E-03  2.54003352E-08  1.94502441E-06  2.95844423E-02
  1.20163185E-04 -8.61387507E-08 -8.77765840E-07 -1.13536467E-02 -4.61100284E-05
 -5.71370562E-07  6.57899376E-08  4.74624767E-03  1.92571943E-05  8.20899635E-09
  1.15107372E-08  2.49471411E-08  4.18582379E-05  1.69500917E-07  3.51230479E-06
  2.50500367E-07 -1.77930248E-06  7.24850728E-06 -1.19852427E-08  8.01509513E-06
 -1.69177824E-07 -1.11653540E-04  7.45658070E-04 -3.32845401E-03  1.27656623E-05
 -6.63690897E-05 -4.31601192E-05  1.11405441E-04 -7.44155567E-04  3.32051184E-03
 -1.26994065E-05 -6.63946714E-05  4.28232955E-05 -1.78848651E-08 -8.66850154E-08
  1.64633973E-09  2.92074887E-05  1.17893304E-07  2.75833368E-08 -1.18553841E-06
 -2.17235282E-05 -7.46099905E-08  1.37247423E-05 -4.16195167E-06  1.12253496E-03
  4.47951105E-06 -1.64429137E-08 -1.25153772E-08 -3.19028132E-08 -1.73675755E-05
 -7.05108430E-08 -4.34455197E-06 -1.76900448E-08 -7.92148732E-08  6.45931416E-09
 -8.27798517E-06 -3.09470957E-08  1.08624520E-06 -4.29106199E-07  5.28423410E-05
  2.00374042E-07 -3.68063802E-07  6.62294369E-07 -4.33157567E-04 -1.70999194E-06
 -6.73222501E-09 -4.18927259E-08 -2.91264253E-08 -3.65860995E-06 -1.42313615E-08
  3.38009107E-06  2.84535542E-05  3.40510477E-04  2.00493411E-04 -8.78617234E-09
  8.50668498E-08 -6.91440350E-03 -5.76735610E-03  4.08511171E-07  1.44089319E-05
 -9.13789056E-02 -3.49778358E-02  9.05037174E-07  3.52375689E-05 -3.46348910E-04
  1.36027587E-08 -3.35560249E-07  1.98583656E-08  6.04673550E-07  9.57240947E-09
  1.08828366E-04 -2.68733305E-04  9.90725416E-01 -7.78454546E-05  3.55141586E-03
  3.44810783E-04  3.01416518E-02 -2.31599104E-06  1.07139237E-04 -1.50276880E-03
 -1.29169151E-02  8.81384100E-07 -4.30689369E-05 -3.33214700E-03  3.23036276E-03
 -4.90488957E-07  7.00304214E-06  1.60526531E-04  2.32787207E-04  2.32792599E-04
 -8.84489380E-09 -4.49028980E-07 -1.07409586E-10 -8.34274945E-05 -4.40764787E-04
 -2.57533451E-03  1.90084828E-04  6.50311437E-08 -4.01074575E-05 -8.17533718E-05
 -4.53175733E-04 -2.58857504E-03  1.92271634E-04  3.61483197E-05  2.03853089E-05
 -8.17574272E-05 -4.52829370E-04 -2.58896169E-03  1.92226913E-04 -3.62165640E-05
  2.02019183E-05 -1.48621529E-04 -7.42312336E-04  2.49336669E-05 -3.90077671E-08