RxCoord=-8.18672 DE=0.61                                                
Freq      RB3LYP                                                      6-31++G(d,p)        
Number of atoms                            I                7
Info1-9                                    I   N=           9
          16          16           0           0           0         100
           6          18        -502
Full Title                                 C   N=           2
RxCoord=-8.18672 DE=0.61
Route                                      C   N=           6
#p b3lyp 6-31++g(d,p) scf=verytight NoSymm freq=noraman int=
ultrafine   
Charge                                     I               -1
Multiplicity                               I                1
Number of electrons                        I               40
Number of alpha electrons                  I               20
Number of beta electrons                   I               20
Number of basis functions                  I               98
Number of independent functions            I               98
Number of point charges in /Mol/           I                0
Number of translation vectors              I                0
Atomic numbers                             I   N=           7
           6          17           1           1           1           6
           7
Nuclear charges                            R   N=           7
  6.00000000E+00  1.70000000E+01  1.00000000E+00  1.00000000E+00  1.00000000E+00
  6.00000000E+00  7.00000000E+00
Current cartesian coordinates              R   N=          21
  1.59624599E+00  3.21253441E-05  6.11704347E-03 -4.73745080E+00  1.13383567E-05
 -2.45286451E-03  8.74716429E-01  4.10826459E-03 -1.92607501E+00  8.79193190E-01
  1.67205046E+00  9.77870909E-01  8.79155395E-01 -1.67604534E+00  9.70788215E-01
  4.34946546E+00  3.59047964E-05  1.55713433E-03  6.54577886E+00 -9.44863062E-05
 -2.07680901E-03
Number of symbols in /Mol/                 I                0
Force Field                                I                0
Atom Types                                 C   N=           7
                                                            
                        
Int Atom Types                             I   N=           7
           0           0           0           0           0           0
           0
MM charges                                 R   N=           7
  0.00000000E+00  0.00000000E+00  0.00000000E+00  0.00000000E+00  0.00000000E+00
  0.00000000E+00  0.00000000E+00
Integer atomic weights                     I   N=           7
          12          35           1           1           1          12
          14
Real atomic weights                        R   N=           7
  1.20000000E+01  3.49688527E+01  1.00782504E+00  1.00782504E+00  1.00782504E+00
  1.20000000E+01  1.40030740E+01
Atom fragment info                         I   N=           7
           0           0           0           0           0           0
           0
Atom residue num                           I   N=           7
           0           0           0           0           0           0
           0
Nuclear spins                              I   N=           7
           0           3           1           1           1           0
           2
Nuclear ZEff                               R   N=           7
 -3.60000000E+00 -1.42400000E+01 -1.00000000E+00 -1.00000000E+00 -1.00000000E+00
 -3.60000000E+00 -4.55000000E+00
Nuclear ZNuc                               R   N=           7
  6.00000000E+00  1.70000000E+01  1.00000000E+00  1.00000000E+00  1.00000000E+00
  6.00000000E+00  7.00000000E+00
Nuclear QMom                               R   N=           7
  0.00000000E+00 -8.16500000E+00  0.00000000E+00  0.00000000E+00  0.00000000E+00
  0.00000000E+00  2.04400000E+00
Nuclear GFac                               R   N=           7
  0.00000000E+00  8.21874000E-01  2.79284600E+00  2.79284600E+00  2.79284600E+00
  0.00000000E+00  4.03761000E-01
MicOpt                                     I   N=           7
          -1          -1          -1          -1          -1          -1
          -1
Number of residues                         I                0
Number of secondary structures             I                0
Number of contracted shells                I               33
Number of primitive shells                 I               72
Pure/Cartesian d shells                    I                1
Pure/Cartesian f shells                    I                0
Highest angular momentum                   I                2
Largest degree of contraction              I                6
Shell types                                I   N=          33
           0          -1          -1          -1           2           0
          -1          -1          -1          -1           2           0
           0           0           1           0           0           0
           1           0           0           0           1           0
          -1          -1          -1           2           0          -1
          -1          -1           2
Number of primitives per shell             I   N=          33
           6           3           1           1           1           6
           6           3           1           1           1           3
           1           1           1           3           1           1
           1           3           1           1           1           6
           3           1           1           1           6           3
           1           1           1
Shell to atom map                          I   N=          33
           1           1           1           1           1           2
           2           2           2           2           2           3
           3           3           3           4           4           4
           4           5           5           5           5           6
           6           6           6           6           7           7
           7           7           7
Primitive exponents                        R   N=          72
  3.04752488E+03  4.57369518E+02  1.03948685E+02  2.92101553E+01  9.28666296E+00
  3.16392696E+00  7.86827235E+00  1.88128854E+00  5.44249258E-01  1.68714478E-01
  4.38000000E-02  8.00000000E-01  2.51801000E+04  3.78035000E+03  8.60474000E+02
  2.42145000E+02  7.73349000E+01  2.62470000E+01  4.91765000E+02  1.16984000E+02
  3.74153000E+01  1.37834000E+01  5.45215000E+00  2.22588000E+00  3.18649000E+00
  1.14427000E+00  4.20377000E-01  1.42657000E-01  4.83000000E-02  7.50000000E-01
  1.87311370E+01  2.82539436E+00  6.40121692E-01  1.61277759E-01  3.60000000E-02
  1.10000000E+00  1.87311370E+01  2.82539436E+00  6.40121692E-01  1.61277759E-01
  3.60000000E-02  1.10000000E+00  1.87311370E+01  2.82539436E+00  6.40121692E-01
  1.61277759E-01  3.60000000E-02  1.10000000E+00  3.04752488E+03  4.57369518E+02
  1.03948685E+02  2.92101553E+01  9.28666296E+00  3.16392696E+00  7.86827235E+00
  1.88128854E+00  5.44249258E-01  1.68714478E-01  4.38000000E-02  8.00000000E-01
  4.17351146E+03  6.27457911E+02  1.42902093E+02  4.02343293E+01  1.28202129E+01
  4.39043701E+00  1.16263619E+01  2.71627981E+00  7.72218397E-01  2.12031498E-01
  6.39000000E-02  8.00000000E-01
Contraction coefficients                   R   N=          72
  1.83473713E-03  1.40373228E-02  6.88426223E-02  2.32184443E-01  4.67941348E-01
  3.62311985E-01 -1.19332420E-01 -1.60854152E-01  1.14345644E+00  1.00000000E+00
  1.00000000E+00  1.00000000E+00  1.83295985E-03  1.40341988E-02  6.90973943E-02
  2.37451980E-01  4.83033960E-01  3.39855972E-01 -2.29739142E-03 -3.07137189E-02
 -1.12528069E-01  4.50163278E-02  5.89353363E-01  4.65206287E-01 -2.51828028E-01
  6.15892514E-02  1.06018433E+00  1.00000000E+00  1.00000000E+00  1.00000000E+00
  3.34946043E-02  2.34726953E-01  8.13757326E-01  1.00000000E+00  1.00000000E+00
  1.00000000E+00  3.34946043E-02  2.34726953E-01  8.13757326E-01  1.00000000E+00
  1.00000000E+00  1.00000000E+00  3.34946043E-02  2.34726953E-01  8.13757326E-01
  1.00000000E+00  1.00000000E+00  1.00000000E+00  1.83473713E-03  1.40373228E-02
  6.88426223E-02  2.32184443E-01  4.67941348E-01  3.62311985E-01 -1.19332420E-01
 -1.60854152E-01  1.14345644E+00  1.00000000E+00  1.00000000E+00  1.00000000E+00
  1.83477216E-03  1.39946270E-02  6.85865518E-02  2.32240873E-01  4.69069948E-01
  3.60455199E-01 -1.14961182E-01 -1.69117479E-01  1.14585195E+00  1.00000000E+00
  1.00000000E+00  1.00000000E+00
P(S=P) Contraction coefficients            R   N=          72
  0.00000000E+00  0.00000000E+00  0.00000000E+00  0.00000000E+00  0.00000000E+00
  0.00000000E+00  6.89990666E-02  3.16423961E-01  7.44308291E-01  1.00000000E+00
  1.00000000E+00  0.00000000E+00  0.00000000E+00  0.00000000E+00  0.00000000E+00
  0.00000000E+00  0.00000000E+00  0.00000000E+00  3.98940088E-03  3.03177067E-02
  1.29880029E-01  3.27951072E-01  4.53527100E-01  2.52154056E-01 -1.42993147E-02
  3.23572333E-01  7.43507765E-01  1.00000000E+00  1.00000000E+00  0.00000000E+00
  0.00000000E+00  0.00000000E+00  0.00000000E+00  0.00000000E+00  0.00000000E+00
  0.00000000E+00  0.00000000E+00  0.00000000E+00  0.00000000E+00  0.00000000E+00
  0.00000000E+00  0.00000000E+00  0.00000000E+00  0.00000000E+00  0.00000000E+00
  0.00000000E+00  0.00000000E+00  0.00000000E+00  0.00000000E+00  0.00000000E+00
  0.00000000E+00  0.00000000E+00  0.00000000E+00  0.00000000E+00  6.89990666E-02
  3.16423961E-01  7.44308291E-01  1.00000000E+00  1.00000000E+00  0.00000000E+00
  0.00000000E+00  0.00000000E+00  0.00000000E+00  0.00000000E+00  0.00000000E+00
  0.00000000E+00  6.75797439E-02  3.23907296E-01  7.40895140E-01  1.00000000E+00
  1.00000000E+00  0.00000000E+00
Coordinates of each shell                  R   N=          99
  1.59624599E+00  3.21253441E-05  6.11704347E-03  1.59624599E+00  3.21253441E-05
  6.11704347E-03  1.59624599E+00  3.21253441E-05  6.11704347E-03  1.59624599E+00
  3.21253441E-05  6.11704347E-03  1.59624599E+00  3.21253441E-05  6.11704347E-03
 -4.73745080E+00  1.13383567E-05 -2.45286451E-03 -4.73745080E+00  1.13383567E-05
 -2.45286451E-03 -4.73745080E+00  1.13383567E-05 -2.45286451E-03 -4.73745080E+00
  1.13383567E-05 -2.45286451E-03 -4.73745080E+00  1.13383567E-05 -2.45286451E-03
 -4.73745080E+00  1.13383567E-05 -2.45286451E-03  8.74716429E-01  4.10826459E-03
 -1.92607501E+00  8.74716429E-01  4.10826459E-03 -1.92607501E+00  8.74716429E-01
  4.10826459E-03 -1.92607501E+00  8.74716429E-01  4.10826459E-03 -1.92607501E+00
  8.79193190E-01  1.67205046E+00  9.77870909E-01  8.79193190E-01  1.67205046E+00
  9.77870909E-01  8.79193190E-01  1.67205046E+00  9.77870909E-01  8.79193190E-01
  1.67205046E+00  9.77870909E-01  8.79155395E-01 -1.67604534E+00  9.70788215E-01
  8.79155395E-01 -1.67604534E+00  9.70788215E-01  8.79155395E-01 -1.67604534E+00
  9.70788215E-01  8.79155395E-01 -1.67604534E+00  9.70788215E-01  4.34946546E+00
  3.59047964E-05  1.55713433E-03  4.34946546E+00  3.59047964E-05  1.55713433E-03
  4.34946546E+00  3.59047964E-05  1.55713433E-03  4.34946546E+00  3.59047964E-05
  1.55713433E-03  4.34946546E+00  3.59047964E-05  1.55713433E-03  6.54577886E+00
 -9.44863062E-05 -2.07680901E-03  6.54577886E+00 -9.44863062E-05 -2.07680901E-03
  6.54577886E+00 -9.44863062E-05 -2.07680901E-03  6.54577886E+00 -9.44863062E-05
 -2.07680901E-03  6.54577886E+00 -9.44863062E-05 -2.07680901E-03
Num ILSW                                   I              100
ILSW                                       I   N=         100
           0           1           0           0           2           0
           0           0           0           0         402          -1
           5           0           0           0           2           0
           0           0           0           0           1           0
           1           1           0           0           0           0
           0           0      100000           0          -1           0
           0           0           0           0           0           0
           0           0           0           1           0           0
           0 -2000000000           1           0           0           0
           0           0           4          52           0           0
           0           0           5           0           0           0
           0           0           0           7           0           1
           0           0           0           0           0           0
           0           0           0           0           0           0
           0           0           0           0           0           0
           0           0           0           0           0           0
           0           0           0           0
Num RLSW                                   I               52
RLSW                                       R   N=          52
  8.00000000E-01  7.20000000E-01  1.00000000E+00  8.10000000E-01  2.00000000E-01
  0.00000000E+00  0.00000000E+00  1.00000000E+00  0.00000000E+00  0.00000000E+00
  0.00000000E+00  0.00000000E+00  1.00000000E+00  0.00000000E+00  0.00000000E+00
  0.00000000E+00  0.00000000E+00  1.00000000E+00  0.00000000E+00  0.00000000E+00
  0.00000000E+00  0.00000000E+00  1.00000000E+00  0.00000000E+00  0.00000000E+00
  0.00000000E+00  0.00000000E+00  1.00000000E+00  0.00000000E+00  0.00000000E+00
  0.00000000E+00  0.00000000E+00  1.00000000E+00  0.00000000E+00  0.00000000E+00
  0.00000000E+00  0.00000000E+00  0.00000000E+00  1.00000000E+00  1.00000000E+00
  0.00000000E+00  1.00000000E+00  0.00000000E+00  0.00000000E+00  0.00000000E+00
  0.00000000E+00  0.00000000E+00  0.00000000E+00  0.00000000E+00  0.00000000E+00
  0.00000000E+00  0.00000000E+00
MxBond                                     I                4
NBond                                      I   N=           7
           4           0           1           1           1           2
           1
IBond                                      I   N=          28
           3           4           5           6           0           0
           0           0           1           0           0           0
           1           0           0           0           1           0
           0           0           1           7           0           0
           6           0           0           0
RBond                                      R   N=          28
  1.00000000E+00  1.00000000E+00  1.00000000E+00  1.00000000E+00  0.00000000E+00
  0.00000000E+00  0.00000000E+00  0.00000000E+00  1.00000000E+00  0.00000000E+00
  0.00000000E+00  0.00000000E+00  1.00000000E+00  0.00000000E+00  0.00000000E+00
  0.00000000E+00  1.00000000E+00  0.00000000E+00  0.00000000E+00  0.00000000E+00
  1.00000000E+00  3.00000000E+00  0.00000000E+00  0.00000000E+00  3.00000000E+00
  0.00000000E+00  0.00000000E+00  0.00000000E+00
Virial Ratio                               R      2.004715311687455E+00
SCF Energy                                 R     -5.930600188146433E+02
Total Energy                               R     -5.930600188146433E+02
RMS Force                                  R      1.684314447227987E-03
RMS Density                                R      1.897362405067879E-09
NImag                                      I                2
Job Status                                 I                1
Nuclear derivative order                   I                2
External E-field                           R   N=          35
  0.00000000E+00  0.00000000E+00  0.00000000E+00  0.00000000E+00  0.00000000E+00
  0.00000000E+00  0.00000000E+00  0.00000000E+00  0.00000000E+00  0.00000000E+00
  0.00000000E+00  0.00000000E+00  0.00000000E+00  0.00000000E+00  0.00000000E+00
  0.00000000E+00  0.00000000E+00  0.00000000E+00  0.00000000E+00  0.00000000E+00
  0.00000000E+00  0.00000000E+00  0.00000000E+00  0.00000000E+00  0.00000000E+00
  0.00000000E+00  0.00000000E+00  0.00000000E+00  0.00000000E+00  0.00000000E+00
  0.00000000E+00  0.00000000E+00  0.00000000E+00  0.00000000E+00  0.00000000E+00
IOpCl                                      I                0
IROHF                                      I                0
Alpha Orbital Energies                     R   N=          98
 -1.01254537E+02 -1.42310880E+01 -1.01282226E+01 -1.01000458E+01 -9.16790042E+00
 -6.92572234E+00 -6.92572154E+00 -6.92563466E+00 -8.00794279E-01 -6.46864283E-01
 -5.05645181E-01 -3.84559160E-01 -3.30417778E-01 -3.30377219E-01 -2.61322872E-01
 -2.19815838E-01 -2.19810539E-01 -5.28044575E-02 -5.17403566E-02 -5.17366958E-02
  9.94643792E-02  1.34004897E-01  1.34081572E-01  1.42189950E-01  1.45286906E-01
  1.45305334E-01  1.98317653E-01  2.04158595E-01  2.04213573E-01  2.19423150E-01
  2.29583863E-01  2.29665795E-01  2.50842614E-01  2.58988664E-01  2.59042498E-01
  2.89130006E-01  3.25867336E-01  3.33762075E-01  3.33783608E-01  3.40553603E-01
  3.40626079E-01  3.44836234E-01  3.93244267E-01  4.07169579E-01  4.82894022E-01
  6.92378202E-01  7.84601420E-01  7.84610969E-01  8.43287711E-01  8.43377514E-01
  8.49837364E-01  8.49948281E-01  8.52169639E-01  8.83119008E-01  9.85162745E-01
  1.02130116E+00  1.02213751E+00  1.02227307E+00  1.09721111E+00  1.11601616E+00
  1.11604467E+00  1.15415360E+00  1.15416221E+00  1.15919482E+00  1.15919938E+00
  1.20112705E+00  1.23986976E+00  1.26998147E+00  1.44973017E+00  1.44977780E+00
  1.53659940E+00  1.62363137E+00  1.62363583E+00  1.85886780E+00  1.85889587E+00
  1.89408723E+00  2.05048893E+00  2.05049736E+00  2.14374056E+00  2.23165693E+00
  2.23176767E+00  2.30110889E+00  2.39360475E+00  2.39372591E+00  2.75677669E+00
  2.79820194E+00  2.79828996E+00  3.04720785E+00  3.08599199E+00  3.08616510E+00
  3.28010329E+00  3.44767794E+00  3.54670525E+00  3.54672270E+00  4.24582593E+00
  4.43566376E+00  4.57378312E+00  4.80527148E+00
Alpha MO coefficients                      R   N=        9604
  4.81462474E-07  1.96421575E-06 -7.05476746E-06  5.02408961E-11  1.14910997E-08
  5.99908780E-05  6.47616506E-05 -4.73026076E-10 -1.33022011E-07  1.12282899E-03
  3.73152684E-04  7.63715160E-10 -4.78896921E-07 -6.11374235E-07  3.10434013E-06
  3.08838757E-06  6.30121583E-11  2.92189697E-09  8.13860013E-11  9.95998001E-01
  1.51388838E-02  4.84574052E-06 -3.09009169E-11  5.81979891E-09 -2.10653279E-02
 -1.35567133E-05  9.00464645E-12 -1.58904422E-08  1.99128323E-03  3.38347300E-05
 -1.64516448E-11  3.18079126E-08 -3.25828531E-04 -3.34501845E-05  3.76581274E-10
  7.86613252E-08  7.50252644E-03  7.50159391E-03  7.50159363E-03  1.38113364E-11
  5.82754929E-09  6.73689000E-13  6.49733277E-06 -1.61989155E-05  5.78417799E-05
 -7.62131576E-07  5.30639078E-09 -2.47606451E-06  6.52813091E-06 -1.60289727E-05
  5.74687107E-05 -8.88964310E-07  2.11186862E-06  1.24735901E-06  6.52784305E-06
 -1.60300732E-05  5.74764435E-05 -8.88172467E-07 -2.11724306E-06  1.23860315E-06
  1.50339124E-06  6.52006706E-06  1.15143623E-06 -3.37066945E-10  7.05573572E-09
 -7.29018967E-05  4.98343025E-05  1.49034851E-09 -1.09121626E-07 -1.34331809E-03
  3.71063567E-04  6.08592780E-09 -8.35790049E-07 -1.59769766E-07  2.62539221E-06
  2.62845859E-06  9.50997130E-11  7.86469185E-09 -4.56126208E-12  9.64459896E-07
  3.42135864E-06 -3.38718884E-07 -3.45881458E-11  3.24368262E-09 -3.83627680E-05
  4.73591739E-06 -8.97547975E-10 -2.11684421E-08  1.27698944E-04 -7.62787541E-05
 -1.34232783E-09  2.76206389E-07  2.46384435E-06  1.75812632E-06  1.75737792E-06
  1.90611398E-10 -4.63181210E-09  4.85487455E-12  9.57784889E-06 -1.87401374E-04
  2.70280501E-04  1.62057260E-09 -4.31886046E-07  9.68318013E-04  6.28923052E-04
  3.10808434E-08 -1.07702147E-06  9.90727388E-03  2.58704633E-03  3.32329009E-08
 -2.76043677E-06  4.71929548E-04  2.70302730E-05  2.70298336E-05  1.73935869E-08
 -8.56314050E-07  1.11760033E-09  2.82234893E-08  2.70294803E-07  4.28203677E-06
  4.77860870E-11  1.15896763E-08  4.47465553E-06 -2.38053568E-05 -2.91459494E-10
 -6.09796498E-08 -4.74036898E-05  5.08805035E-05  1.44951031E-09  1.07287574E-07
  3.52863356E-04  1.10538250E-04 -6.72159849E-09  4.51552438E-07  1.89326967E-06
 -4.41985566E-06 -4.41511426E-06 -2.47481370E-10  2.65664282E-08 -1.38422819E-11
  6.79121460E-07 -7.17846133E-05 -2.31090729E-04 -2.25337911E-06  2.26611411E-09
 -2.01888744E-06  6.90626888E-07 -7.19109682E-05 -2.30079666E-04 -2.27207177E-06
  1.74608113E-06  1.02016504E-06  6.93418629E-07 -7.18837609E-05 -2.30108478E-04
 -2.26683041E-06 -1.75546091E-06  1.01340375E-06  7.67023673E-05  3.24875111E-04
 -5.59691256E-04  3.53180601E-08  9.44797430E-07  3.27199758E-06  1.30808880E-03
 -1.82051250E-08 -2.20236770E-06 -7.41254404E-03  4.14960165E-03 -6.48740276E-08
 -8.78451030E-06 -1.44586322E-03  1.78552110E-05  1.78536548E-05  7.73413351E-08
  2.80393000E-06  1.24027699E-10  9.92763912E-01  3.47135903E-02 -2.14552169E-03
  1.45156433E-07  3.57496974E-06  3.59688063E-03  8.16083994E-04 -6.81631008E-08
 -1.47677472E-06 -3.35008389E-03 -4.22688416E-04 -1.38759841E-08  1.59133689E-06
 -7.31230720E-03 -8.36406815E-03 -8.36406217E-03 -7.42685223E-08 -2.01571720E-06
  9.31056635E-11  5.87233346E-03  1.11643287E-04 -4.34127055E-04 -9.50682497E-09
  8.82392747E-07  7.07182559E-03  2.52211533E-03  4.59213830E-08 -4.84498207E-06
  7.41039857E-02  2.59016082E-02  1.07330739E-07 -2.49310705E-05 -1.02242375E-03
 -2.02317045E-04 -2.02250540E-04 -1.10970450E-08  1.59424809E-06  3.40215808E-11
  9.64429710E-08  9.54054709E-07  2.31566266E-05 -9.69168267E-11  6.76344874E-08
  1.11416070E-05 -1.38699996E-04  4.36671562E-10 -3.73670984E-07 -3.00199459E-04
  4.48057076E-04  6.44641909E-10  7.43118981E-07  3.97970874E-03  1.53944468E-03
  9.07092875E-09  6.45139464E-06  2.86772644E-05 -2.39866218E-05 -2.39573720E-05
 -2.27157599E-10  2.96687863E-07  1.05040643E-10 -1.20082426E-04 -7.52682636E-04
  3.62726678E-05  4.55094893E-05 -3.06164007E-08  1.21835244E-05 -1.19996743E-04
 -7.53377918E-04  4.45715060E-05  4.51788866E-05 -1.07817016E-05 -6.31169974E-06
 -1.19986273E-04 -7.53371378E-04  4.48709872E-05  4.51557032E-05  1.08120256E-05
 -6.27393014E-06  9.92764789E-01  5.03786850E-02  2.44773900E-04 -5.79546695E-08
 -2.73730619E-07 -1.05036546E-02  7.34597757E-03 -8.43929605E-08 -1.25336896E-05
 -8.15356737E-02  2.29005120E-02  3.01579308E-07 -5.94944822E-05 -7.84444156E-03
 -9.89820761E-03 -9.89818264E-03 -9.58630869E-08 -3.85877934E-06  9.25373424E-10
 -4.72275146E-04  3.32318240E-04  3.32839832E-04 -2.65103709E-08 -2.56102130E-07
 -7.61101496E-03  3.11534551E-03 -2.67799114E-07 -6.59350366E-06  8.06749662E-03
 -6.15656654E-03  1.44312391E-09  2.01812774E-05 -2.38547477E-05  3.29314043E-04
  3.29321101E-04  6.41131485E-08  6.14943555E-07 -5.90580529E-11  9.93016641E-01
  5.06424787E-02  7.50110525E-04  6.13844532E-09  3.88954337E-07 -2.45468750E-02
 -4.60288500E-03 -6.76347769E-08  4.58875216E-06  4.45461237E-02  1.86349463E-02
  8.00060202E-08 -1.73545218E-05 -8.94331796E-03 -8.86287337E-03 -8.86287896E-03
 -6.88502033E-11 -2.08318904E-08 -3.23182419E-09  9.19548114E-07  1.43787481E-05
  5.50387116E-06  3.92589097E-10  7.31823481E-08  4.59261865E-05 -3.05180249E-05
 -2.08421519E-09 -4.24715580E-07 -3.56948006E-04  2.05817159E-04  2.47839700E-09
  1.12347374E-06  3.54959983E-03  1.42366551E-03  2.12646652E-08  5.03802558E-06
  2.21842453E-05  2.33191643E-05  2.32608428E-05  1.11975479E-09  3.05807939E-07
  5.03536440E-10  3.20555632E-06  3.18201771E-03  1.86478429E-04  2.60031166E-05
  2.65047077E-07 -1.22511649E-04  3.23669795E-06  3.18301927E-03  1.98122839E-04
  2.61853552E-05  1.06184766E-04  6.16082992E-05  3.20939235E-06  3.18304124E-03
  1.98344047E-04  2.62018140E-05 -1.06435361E-04  6.11622014E-05 -6.17268224E-03
 -4.46672391E-04  2.68017503E-04 -4.61082747E-10 -3.38927012E-07  3.54812782E-03
 -9.49634049E-03  1.65617393E-07  1.64774981E-05 -5.17947397E-02  1.31765202E-02
  1.70009145E-07 -3.98660136E-05 -8.34683582E-04 -3.46686138E-06 -3.49409136E-06
  1.72108353E-08  1.61158385E-06 -9.02830340E-10 -1.83920667E-05 -5.17182299E-05
 -2.48028814E-04  6.02976927E-09  7.02708657E-07  5.37830554E-03 -1.77523345E-03
  2.73223385E-07  1.26545139E-06  4.88341716E-03 -2.48583400E-03 -2.83374907E-08
  1.25403972E-05  1.48521085E-04 -7.53875605E-05 -7.53746086E-05 -5.15092452E-08
 -3.86083653E-07  4.26962551E-10  5.31368911E-05  3.33679919E-04  1.61781818E-04
  5.64508676E-09  1.88796278E-07 -4.32477787E-03 -3.58197337E-03 -8.56847456E-08
  8.80759416E-06  1.20140678E-02  5.69123726E-03 -8.70785653E-09  4.78848189E-06
 -1.67605217E-04  9.98796520E-05  9.94865573E-05 -5.06643540E-09  2.96007200E-07
 -1.37001654E-09 -2.84643786E-01  1.02264216E+00  2.59626216E-04 -4.00306070E-09
  2.58609381E-07  7.49744356E-02  3.88380301E-04  2.36210615E-11  4.75615065E-07
 -2.05324517E-02 -1.12659652E-03 -1.59676776E-09 -1.09129203E-06  1.04523349E-02
  3.22688308E-03  2.15769247E-11  1.58711480E-06 -1.56713541E-02 -1.56773076E-02
 -1.56771983E-02 -9.07220103E-10 -7.98690327E-08 -4.17966112E-10  6.83945868E-06
 -8.22325005E-04 -2.80018491E-03  1.12495326E-04  1.33389856E-07 -6.08359456E-05
  8.70790045E-06 -8.33332066E-04 -2.77144189E-03  1.13072692E-04  5.35771953E-05
  3.08596266E-05  8.67431672E-06 -8.33341268E-04 -2.77169968E-03  1.13073527E-04
 -5.37017770E-05  3.06360131E-05 -3.71301510E-05 -2.41362715E-04 -2.24315995E-05
  2.22204726E-09  3.77942889E-08 -2.68354833E-04 -5.95146226E-03  1.45677712E-07
  9.35110898E-06 -5.34360041E-03  9.57443726E-04 -7.08269822E-08 -1.79541132E-05
  8.93262914E-05 -3.07924142E-05 -3.08885355E-05  6.87149399E-09 -1.83718942E-07
  3.93590603E-10 -1.15587898E-04 -4.63332495E-04  2.53717520E-05 -1.16616436E-08
  8.62262342E-08  5.88205844E-03 -1.79491114E-03  1.87577847E-07  2.41411182E-06
 -1.96971130E-03  9.44034487E-04 -2.81409513E-09  3.96370017E-06 -1.79079135E-04
 -2.31508724E-04 -2.31471208E-04 -1.51026561E-08 -1.10532048E-07 -2.37844964E-10
 -3.09353731E-07 -1.70228875E-06 -4.92190296E-07  1.19455047E-08 -2.99488043E-06
  1.63185876E-05  2.48183383E-06  2.26305522E-06 -5.62969083E-04 -4.33198851E-05
 -1.81195612E-05 -1.47797474E-06  3.65081743E-04  1.46650070E-07 -3.71412270E-05
  3.66085544E-05 -1.42604739E-07  3.54168393E-05 -9.82834239E-08 -2.33691403E-07
  6.01677976E-07 -3.16293438E-03 -3.97091050E-03  9.90822345E-01 -8.55970782E-07
 -9.50501755E-05 -1.18574823E-04  2.95869806E-02  4.08883624E-06  3.72939396E-05
  4.55217068E-05 -1.13591323E-02 -1.11933359E-05 -1.91635016E-05 -1.90638343E-05
  4.75890882E-03 -5.16204494E-07  2.70294843E-06 -3.16434705E-06 -1.67768919E-07
  4.19392248E-05  7.09081769E-09  1.31116781E-04 -8.86260644E-04  3.89213062E-03
 -1.34742721E-05  1.81366777E-07 -9.38063161E-05 -6.44347917E-05  4.31135060E-04
 -1.93942181E-03  6.61959498E-06 -4.36066219E-05 -1.67900740E-05 -6.48629774E-05
  4.34042334E-04 -1.95217917E-03  6.66432187E-06  4.39363414E-05 -1.67736724E-05
  3.45115974E-08  2.32303230E-07 -5.25319144E-08 -1.20302441E-07  3.00688223E-05
 -8.57351236E-06  3.78262718E-06  8.72237647E-08 -2.32989638E-05  5.84505706E-05
 -2.30607343E-05 -4.46138610E-06  1.12937408E-03 -4.31845096E-07 -3.83936560E-06
  4.13768933E-06  7.01601725E-08 -1.76214959E-05 -1.09430082E-08 -1.08613929E-07
 -3.89328008E-07  3.57427030E-08  3.13913659E-08 -8.43740699E-06  2.31301533E-06
 -1.90658420E-06 -2.03145154E-07  5.38281415E-05 -1.70448383E-06  6.53516395E-06
  1.69883818E-06 -4.35248882E-04  7.77964609E-08  2.63615482E-06 -3.27995343E-06
  1.52575564E-08 -3.85335401E-06  7.65220042E-09 -5.19951596E-09 -4.01959892E-08
 -1.55996096E-08 -3.63548708E-06 -1.46407822E-08  6.87753892E-07  4.31239239E-07
 -5.55718940E-04 -2.22117528E-06  7.90629486E-06  2.95918201E-06  3.54575906E-04
  1.40338380E-06  2.38640005E-08  8.26257980E-08 -8.78065840E-08  3.46858268E-05
  1.38300285E-07 -4.20897154E-05 -1.06416464E-08  2.77017532E-08 -9.10987831E-05
  9.90827553E-01  3.97064024E-03 -2.95380132E-08 -2.76722807E-06  2.95863266E-02
  1.18564776E-04  1.35639624E-07  1.17072011E-06 -1.13569906E-02 -4.55140077E-05
  2.29150281E-07 -3.30196054E-07  4.75378135E-03  1.90595467E-05 -1.49882879E-08
 -2.77055272E-08 -1.26470845E-08  4.19056678E-05  1.68289679E-07  3.52555782E-06
  2.57500237E-07 -1.68913804E-06  7.54886316E-06 -3.87726460E-08  8.26542363E-06
 -1.59087275E-07 -1.13366975E-04  7.56756813E-04 -3.34799968E-03  1.16418394E-05
 -6.74152820E-05 -4.39095819E-05  1.13136115E-04 -7.55195533E-04  3.34105807E-03
 -1.16442776E-05 -6.74374249E-05  4.35619512E-05  1.25197931E-08  6.17857969E-08
 -5.94096702E-10  2.98532935E-05  1.19859620E-07 -1.64134893E-07  8.38336575E-07
 -2.37192065E-05 -1.02743259E-07 -8.97976196E-06  2.56920426E-06  1.12341120E-03
  4.56003709E-06  3.37452826E-09  2.62854967E-08  8.67725870E-09 -1.74106865E-05
 -7.02253035E-08 -4.48289908E-06  1.06389131E-08  4.81733176E-08 -3.90283561E-09
 -8.39732073E-06 -3.60613345E-08 -6.93868287E-07  2.53821617E-07  5.35777754E-05
  2.26788210E-07  3.46709158E-07 -3.77774591E-07 -4.31714031E-04 -1.77385911E-06
  6.69312947E-09  1.30861249E-08  2.72728120E-08 -3.86664425E-06 -1.56492384E-08
  3.40505878E-06  2.75485868E-05  3.36768718E-04  2.04275678E-04  9.39401993E-09
  8.88405076E-08 -6.94025651E-03 -5.81346928E-03 -1.54390413E-07  1.30129494E-05
 -9.23161503E-02 -3.53737101E-02 -3.02006021E-08  3.19914794E-05 -3.46236450E-04
 -2.63703499E-06 -2.94262311E-06 -3.23626976E-09  5.35636431E-07 -5.67915462E-09
  1.08356555E-04 -2.65434006E-04  9.90725271E-01  7.84310017E-05  3.16319364E-03
  3.47955405E-04  3.01498217E-02  2.34233983E-06  9.54953464E-05 -1.51648053E-03
 -1.29410183E-02 -9.02021116E-07 -3.85264968E-05 -3.43625839E-03  3.20030827E-03
  3.51162993E-07  5.83410286E-06  1.61599046E-04  2.36517602E-04  2.36522930E-04
  2.20525078E-09 -4.24654918E-07  4.41768845E-11 -8.79055526E-05 -4.22626924E-04
 -2.56624758E-03  1.89886954E-04  8.86444980E-08 -3.87289776E-05 -8.63820041E-05
 -4.33853419E-04 -2.57794633E-03  1.91919112E-04  3.48323298E-05  1.96617289E-05
 -8.64077527E-05 -4.33973043E-04 -2.57769690E-03  1.91915667E-04 -3.49172591E-05
  1.95237887E-05 -1.49570710E-04 -7.46719895E-04  2.47215261E-05  2.84476028E-08