 Entering Gaussian System, Link 0=g16
 Initial command:
 /usr/local/g16_AVX//g16/l1.exe "/scratch/alanqf/0021-54463.ixchel.mda.cinvestav.mx/Gau-14626.inp" -scrdir="/scratch/alanqf/0021-54463.ixchel.mda.cinvestav.mx/"
 Entering Link 1 = /usr/local/g16_AVX//g16/l1.exe PID=     14627.
  
 Copyright (c) 1988-2017, Gaussian, Inc.  All Rights Reserved.
  
 This is part of the Gaussian(R) 16 program.  It is based on
 the Gaussian(R) 09 system (copyright 2009, Gaussian, Inc.),
 the Gaussian(R) 03 system (copyright 2003, Gaussian, Inc.),
 the Gaussian(R) 98 system (copyright 1998, Gaussian, Inc.),
 the Gaussian(R) 94 system (copyright 1995, Gaussian, Inc.),
 the Gaussian 92(TM) system (copyright 1992, Gaussian, Inc.),
 the Gaussian 90(TM) system (copyright 1990, Gaussian, Inc.),
 the Gaussian 88(TM) system (copyright 1988, Gaussian, Inc.),
 the Gaussian 86(TM) system (copyright 1986, Carnegie Mellon
 University), and the Gaussian 82(TM) system (copyright 1983,
 Carnegie Mellon University). Gaussian is a federally registered
 trademark of Gaussian, Inc.
  
 This software contains proprietary and confidential information,
 including trade secrets, belonging to Gaussian, Inc.
  
 This software is provided under written license and may be
 used, copied, transmitted, or stored only in accord with that
 written license.
  
 The following legend is applicable only to US Government
 contracts under FAR:
  
                    RESTRICTED RIGHTS LEGEND
  
 Use, reproduction and disclosure by the US Government is
 subject to restrictions as set forth in subparagraphs (a)
 and (c) of the Commercial Computer Software - Restricted
 Rights clause in FAR 52.227-19.
  
 Gaussian, Inc.
 340 Quinnipiac St., Bldg. 40, Wallingford CT 06492
  
  
 ---------------------------------------------------------------
 Warning -- This program may not be used in any manner that
 competes with the business of Gaussian, Inc. or will provide
 assistance to any competitor of Gaussian, Inc.  The licensee
 of this program is prohibited from giving any competitor of
 Gaussian, Inc. access to this program.  By using this program,
 the user acknowledges that Gaussian, Inc. is engaged in the
 business of creating and licensing software in the field of
 computational chemistry and represents and warrants to the
 licensee that it is not a competitor of Gaussian, Inc. and that
 it will not use this program in any manner prohibited above.
 ---------------------------------------------------------------
  

 Cite this work as:
 Gaussian 16, Revision B.01,
 M. J. Frisch, G. W. Trucks, H. B. Schlegel, G. E. Scuseria, 
 M. A. Robb, J. R. Cheeseman, G. Scalmani, V. Barone, 
 G. A. Petersson, H. Nakatsuji, X. Li, M. Caricato, A. V. Marenich, 
 J. Bloino, B. G. Janesko, R. Gomperts, B. Mennucci, H. P. Hratchian, 
 J. V. Ortiz, A. F. Izmaylov, J. L. Sonnenberg, D. Williams-Young, 
 F. Ding, F. Lipparini, F. Egidi, J. Goings, B. Peng, A. Petrone, 
 T. Henderson, D. Ranasinghe, V. G. Zakrzewski, J. Gao, N. Rega, 
 G. Zheng, W. Liang, M. Hada, M. Ehara, K. Toyota, R. Fukuda, 
 J. Hasegawa, M. Ishida, T. Nakajima, Y. Honda, O. Kitao, H. Nakai, 
 T. Vreven, K. Throssell, J. A. Montgomery, Jr., J. E. Peralta, 
 F. Ogliaro, M. J. Bearpark, J. J. Heyd, E. N. Brothers, K. N. Kudin, 
 V. N. Staroverov, T. A. Keith, R. Kobayashi, J. Normand, 
 K. Raghavachari, A. P. Rendell, J. C. Burant, S. S. Iyengar, 
 J. Tomasi, M. Cossi, J. M. Millam, M. Klene, C. Adamo, R. Cammi, 
 J. W. Ochterski, R. L. Martin, K. Morokuma, O. Farkas, 
 J. B. Foresman, and D. J. Fox, Gaussian, Inc., Wallingford CT, 2016.
 
 ******************************************
 Gaussian 16:  ES64L-G16RevB.01 20-Dec-2017
                13-Oct-2024 
 ******************************************
 %NProcShared=26
 Will use up to   26 processors via shared memory.
 %MEM=20GB
 %chk=CHKfiles/0021.chk
 ---------------------------------------------------------------------
 #p b3lyp 6-31++g(d,p) scf=verytight NoSymm freq=noraman int=ultrafine
 ---------------------------------------------------------------------
 1/10=4,30=1,38=1/1,3;
 2/12=2,15=1,17=6,18=5,40=1/2;
 3/5=1,6=6,7=1111,11=2,25=1,30=1,71=2,74=-5,75=-5,140=1/1,2,3;
 4//1;
 5/5=2,17=3,38=5,98=1/2;
 8/6=4,10=90,11=11/1;
 11/6=1,8=1,9=11,15=111,16=1,31=1/1,2,10;
 10/6=1,31=1/2;
 6/7=2,8=2,9=2,10=2,28=1/1;
 7/8=1,10=1,25=1,30=1/1,2,3,16;
 1/10=4,30=1/3;
 99//99;
 Leave Link    1 at Sun Oct 13 09:47:12 2024, MaxMem=  2684354560 cpu:               1.2 elap:               0.1
 (Enter /usr/local/g16_AVX//g16/l101.exe)
 ------------------------
 RxCoord=-7.98676 DE=0.72
 ------------------------
 Symbolic Z-matrix:
 Charge = -1 Multiplicity = 1
 C                     0.83363   0.00004   0.00284 
 Cl                   -2.49381  0.        -0.00111 
 H                     0.45191   0.00222  -1.0196 
 H                     0.4538    0.8847    0.51688 
 H                     0.45377  -0.8868    0.51308 
 C                     2.29039   0.00002   0.00073 
 N                     3.45262  -0.00005  -0.00104 
 
 ITRead=  0  0  0  0  0  0  0
 MicOpt= -1 -1 -1 -1 -1 -1 -1
 NAtoms=      7 NQM=        7 NQMF=       0 NMMI=      0 NMMIF=      0
                NMic=       0 NMicF=      0.
                    Isotopes and Nuclear Properties:
 (Nuclear quadrupole moments (NQMom) in fm**2, nuclear magnetic moments (NMagM)
  in nuclear magnetons)

  Atom         1           2           3           4           5           6           7
 IAtWgt=          12          35           1           1           1          12          14
 AtmWgt=  12.0000000  34.9688527   1.0078250   1.0078250   1.0078250  12.0000000  14.0030740
 NucSpn=           0           3           1           1           1           0           2
 AtZEff=  -0.0000000  -0.0000000  -0.0000000  -0.0000000  -0.0000000  -0.0000000  -0.0000000
 NQMom=    0.0000000  -8.1650000   0.0000000   0.0000000   0.0000000   0.0000000   2.0440000
 NMagM=    0.0000000   0.8218740   2.7928460   2.7928460   2.7928460   0.0000000   0.4037610
 AtZNuc=   6.0000000  17.0000000   1.0000000   1.0000000   1.0000000   6.0000000   7.0000000
 Leave Link  101 at Sun Oct 13 09:47:12 2024, MaxMem=  2684354560 cpu:               2.9 elap:               0.1
 (Enter /usr/local/g16_AVX//g16/l103.exe)

 GradGradGradGradGradGradGradGradGradGradGradGradGradGradGradGradGradGrad
 Berny optimization.
 Initialization pass.
 Trust Radius=3.00D-01 FncErr=1.00D-07 GrdErr=1.00D-07 EigMax=2.50D+02 EigMin=1.00D-04
 Number of steps in this run=      2 maximum allowed number of steps=      2.
 GradGradGradGradGradGradGradGradGradGradGradGradGradGradGradGradGradGrad

 Leave Link  103 at Sun Oct 13 09:47:12 2024, MaxMem=  2684354560 cpu:               0.5 elap:               0.0
 (Enter /usr/local/g16_AVX//g16/l202.exe)
                          Input orientation:                          
 ---------------------------------------------------------------------
 Center     Atomic      Atomic             Coordinates (Angstroms)
 Number     Number       Type             X           Y           Z
 ---------------------------------------------------------------------
      1          6           0        0.833628    0.000039    0.002839
      2         17           0       -2.493806   -0.000002   -0.001107
      3          1           0        0.451907    0.002223   -1.019600
      4          1           0        0.453801    0.884697    0.516884
      5          1           0        0.453768   -0.886797    0.513084
      6          6           0        2.290389    0.000019    0.000725
      7          7           0        3.452616   -0.000053   -0.001035
 ---------------------------------------------------------------------
                    Distance matrix (angstroms):
                    1          2          3          4          5
     1  C    0.000000
     2  Cl   3.327436   0.000000
     3  H    1.091374   3.116819   0.000000
     4  H    1.091389   3.120800   1.771877   0.000000
     5  H    1.091385   3.120736   1.771858   1.771498   0.000000
     6  C    1.456763   4.784195   2.102637   2.102886   2.102886
     7  N    2.618991   5.946422   3.168870   3.169213   3.169183
                    6          7
     6  C    0.000000
     7  N    1.162228   0.000000
 Symmetry turned off by external request.
 Stoichiometry    C2H3ClN(1-)
 Framework group  C1[X(C2H3ClN)]
 Deg. of freedom    15
 Full point group                 C1      NOp   1
 Rotational constants (GHZ):         159.7373195           1.1037122           1.1037096
 Leave Link  202 at Sun Oct 13 09:47:12 2024, MaxMem=  2684354560 cpu:               0.2 elap:               0.0
 (Enter /usr/local/g16_AVX//g16/l301.exe)
 Standard basis: 6-31++G(d,p) (6D, 7F)
 Ernie: Thresh=  0.10000D-02 Tol=  0.10000D-05 Strict=F.
    98 basis functions,   176 primitive gaussians,    98 cartesian basis functions
    20 alpha electrons       20 beta electrons
       nuclear repulsion energy       105.0917448096 Hartrees.
 IExCor=  402 DFT=T Ex+Corr=B3LYP ExCW=0 ScaHFX=  0.200000
 ScaDFX=  0.800000  0.720000  1.000000  0.810000 ScalE2=  1.000000  1.000000
 IRadAn=      5 IRanWt=     -1 IRanGd=            0 ICorTp=0 IEmpDi=  4
 NAtoms=    7 NActive=    7 NUniq=    7 SFac= 1.00D+00 NAtFMM=   60 NAOKFM=F Big=F
 Integral buffers will be    131072 words long.
 Raffenetti 2 integral format.
 Two-electron integral symmetry is turned off.
 Leave Link  301 at Sun Oct 13 09:47:13 2024, MaxMem=  2684354560 cpu:               1.3 elap:               0.1
 (Enter /usr/local/g16_AVX//g16/l302.exe)
 NPDir=0 NMtPBC=     1 NCelOv=     1 NCel=       1 NClECP=     1 NCelD=      1
         NCelK=      1 NCelE2=     1 NClLst=     1 CellRange=     0.0.
 One-electron integrals computed using PRISM.
 NBasis=    98 RedAO= T EigKep=  1.56D-05  NBF=    98
 NBsUse=    98 1.00D-06 EigRej= -1.00D+00 NBFU=    98
 Precomputing XC quadrature grid using
 IXCGrd= 4 IRadAn=           5 IRanWt=          -1 IRanGd=           0 AccXCQ= 0.00D+00.
 Generated NRdTot=       0 NPtTot=           0 NUsed=           0 NTot=          32
 NSgBfM=    98    98    98    98    98 MxSgAt=     7 MxSgA2=     7.
 Leave Link  302 at Sun Oct 13 09:47:13 2024, MaxMem=  2684354560 cpu:               4.0 elap:               0.2
 (Enter /usr/local/g16_AVX//g16/l303.exe)
 DipDrv:  MaxL=1.
 Leave Link  303 at Sun Oct 13 09:47:13 2024, MaxMem=  2684354560 cpu:               0.7 elap:               0.1
 (Enter /usr/local/g16_AVX//g16/l401.exe)
 ExpMin= 3.60D-02 ExpMax= 2.52D+04 ExpMxC= 3.78D+03 IAcc=3 IRadAn=         5 AccDes= 0.00D+00
 Harris functional with IExCor=  402 and IRadAn=       5 diagonalized for initial guess.
 HarFok:  IExCor=  402 AccDes= 0.00D+00 IRadAn=         5 IDoV= 1 UseB2=F ITyADJ=14
 ICtDFT=  3500011 ScaDFX=  1.000000  1.000000  1.000000  1.000000
 FoFCou: FMM=F IPFlag=           0 FMFlag=      100000 FMFlg1=           0
         NFxFlg=           0 DoJE=T BraDBF=F KetDBF=T FulRan=T
         wScrn=  0.000000 ICntrl=       500 IOpCl=  0 I1Cent=   200000004 NGrid=           0
         NMat0=    1 NMatS0=      1 NMatT0=    0 NMatD0=    1 NMtDS0=    0 NMtDT0=    0
 Symmetry not used in FoFCou.
 Harris En= -593.114109372094    
 JPrj=0 DoOrth=F DoCkMO=F.
 Leave Link  401 at Sun Oct 13 09:47:13 2024, MaxMem=  2684354560 cpu:               5.8 elap:               0.3
 (Enter /usr/local/g16_AVX//g16/l502.exe)
 Keep R1 ints in memory in canonical form, NReq=35752935.
 FoFCou: FMM=F IPFlag=           0 FMFlag=           0 FMFlg1=           0
         NFxFlg=           0 DoJE=F BraDBF=F KetDBF=F FulRan=T
         wScrn=  0.000000 ICntrl=       600 IOpCl=  0 I1Cent=           0 NGrid=           0
         NMat0=    1 NMatS0=   4851 NMatT0=    0 NMatD0=    1 NMtDS0=    0 NMtDT0=    0
 Symmetry not used in FoFCou.
 Two-electron integral symmetry not used.
 Closed shell SCF:
 Using DIIS extrapolation, IDIIS=  1040.
 NGot=  2684354560 LenX=  2672563405 LenY=  2672553360
 Requested convergence on RMS density matrix=1.00D-08 within 128 cycles.
 Requested convergence on MAX density matrix=1.00D-06.
 Requested convergence on             energy=1.00D-06.
 No special actions if energy rises.

 Cycle   1  Pass 1  IDiag  1:
 E= -592.950401666711    
 DIIS: error= 2.76D-02 at cycle   1 NSaved=   1.
 NSaved= 1 IEnMin= 1 EnMin= -592.950401666711     IErMin= 1 ErrMin= 2.76D-02
 ErrMax= 2.76D-02  0.00D+00 EMaxC= 1.00D-01 BMatC= 1.04D-01 BMatP= 1.04D-01
 IDIUse=3 WtCom= 7.24D-01 WtEn= 2.76D-01
 Coeff-Com:  0.100D+01
 Coeff-En:   0.100D+01
 Coeff:      0.100D+01
 Gap=     0.165 Goal=   None    Shift=    0.000
 GapD=    0.165 DampG=1.000 DampE=0.500 DampFc=0.5000 IDamp=-1.
 Damping current iteration by 5.00D-01
 RMSDP=1.12D-02 MaxDP=2.00D-01              OVMax= 1.77D-01

 Cycle   2  Pass 1  IDiag  1:
 E= -592.990101437616     Delta-E=       -0.039699770905 Rises=F Damp=T
 DIIS: error= 1.69D-02 at cycle   2 NSaved=   2.
 NSaved= 2 IEnMin= 2 EnMin= -592.990101437616     IErMin= 2 ErrMin= 1.69D-02
 ErrMax= 1.69D-02  0.00D+00 EMaxC= 1.00D-01 BMatC= 1.45D-02 BMatP= 1.04D-01
 IDIUse=3 WtCom= 8.31D-01 WtEn= 1.69D-01
 Coeff-Com:  0.159D+00 0.841D+00
 Coeff-En:   0.241D+00 0.759D+00
 Coeff:      0.172D+00 0.828D+00
 Gap=     0.147 Goal=   None    Shift=    0.000
 RMSDP=4.79D-03 MaxDP=1.56D-01 DE=-3.97D-02 OVMax= 1.41D-01

 Cycle   3  Pass 1  IDiag  1:
 E= -593.042096632533     Delta-E=       -0.051995194917 Rises=F Damp=F
 DIIS: error= 1.41D-02 at cycle   3 NSaved=   3.
 NSaved= 3 IEnMin= 3 EnMin= -593.042096632533     IErMin= 3 ErrMin= 1.41D-02
 ErrMax= 1.41D-02  0.00D+00 EMaxC= 1.00D-01 BMatC= 1.94D-02 BMatP= 1.45D-02
 IDIUse=2 WtCom= 0.00D+00 WtEn= 1.00D+00
 Coeff-En:   0.000D+00 0.000D+00 0.100D+01
 Coeff:      0.000D+00 0.000D+00 0.100D+01
 Gap=     0.153 Goal=   None    Shift=    0.000
 RMSDP=7.30D-03 MaxDP=2.68D-01 DE=-5.20D-02 OVMax= 1.63D-01

 Cycle   4  Pass 1  IDiag  1:
 E= -592.947489426141     Delta-E=        0.094607206392 Rises=F Damp=F
 DIIS: error= 3.23D-02 at cycle   4 NSaved=   4.
 NSaved= 4 IEnMin= 3 EnMin= -593.042096632533     IErMin= 3 ErrMin= 1.41D-02
 ErrMax= 3.23D-02  0.00D+00 EMaxC= 1.00D-01 BMatC= 1.26D-01 BMatP= 1.45D-02
 IDIUse=2 WtCom= 0.00D+00 WtEn= 1.00D+00
 Coeff-En:   0.000D+00 0.000D+00 0.803D+00 0.197D+00
 Coeff:      0.000D+00 0.000D+00 0.803D+00 0.197D+00
 Gap=     0.151 Goal=   None    Shift=    0.000
 RMSDP=3.36D-03 MaxDP=1.20D-01 DE= 9.46D-02 OVMax= 8.35D-02

 Cycle   5  Pass 1  IDiag  1:
 E= -593.050618556977     Delta-E=       -0.103129130836 Rises=F Damp=F
 DIIS: error= 9.36D-03 at cycle   5 NSaved=   5.
 NSaved= 5 IEnMin= 5 EnMin= -593.050618556977     IErMin= 5 ErrMin= 9.36D-03
 ErrMax= 9.36D-03  0.00D+00 EMaxC= 1.00D-01 BMatC= 1.05D-02 BMatP= 1.45D-02
 IDIUse=3 WtCom= 9.06D-01 WtEn= 9.36D-02
 Coeff-Com: -0.101D-02 0.196D-01 0.323D+00-0.973D-01 0.755D+00
 Coeff-En:   0.000D+00 0.000D+00 0.386D+00 0.000D+00 0.614D+00
 Coeff:     -0.916D-03 0.178D-01 0.329D+00-0.882D-01 0.742D+00
 Gap=     0.152 Goal=   None    Shift=    0.000
 RMSDP=1.45D-03 MaxDP=5.18D-02 DE=-1.03D-01 OVMax= 3.27D-02

 Cycle   6  Pass 1  IDiag  1:
 E= -593.060027391199     Delta-E=       -0.009408834222 Rises=F Damp=F
 DIIS: error= 1.67D-04 at cycle   6 NSaved=   6.
 NSaved= 6 IEnMin= 6 EnMin= -593.060027391199     IErMin= 6 ErrMin= 1.67D-04
 ErrMax= 1.67D-04  0.00D+00 EMaxC= 1.00D-01 BMatC= 5.24D-06 BMatP= 1.05D-02
 IDIUse=3 WtCom= 9.98D-01 WtEn= 1.67D-03
 Coeff-Com: -0.192D-02 0.799D-02 0.118D+00-0.483D-01 0.322D+00 0.602D+00
 Coeff-En:   0.000D+00 0.000D+00 0.000D+00 0.000D+00 0.000D+00 0.100D+01
 Coeff:     -0.192D-02 0.798D-02 0.118D+00-0.483D-01 0.322D+00 0.603D+00
 Gap=     0.152 Goal=   None    Shift=    0.000
 RMSDP=3.64D-05 MaxDP=6.72D-04 DE=-9.41D-03 OVMax= 6.23D-04

 Cycle   7  Pass 1  IDiag  1:
 E= -593.060032258935     Delta-E=       -0.000004867736 Rises=F Damp=F
 DIIS: error= 6.96D-05 at cycle   7 NSaved=   7.
 NSaved= 7 IEnMin= 7 EnMin= -593.060032258935     IErMin= 7 ErrMin= 6.96D-05
 ErrMax= 6.96D-05  0.00D+00 EMaxC= 1.00D-01 BMatC= 5.27D-07 BMatP= 5.24D-06
 IDIUse=1 WtCom= 1.00D+00 WtEn= 0.00D+00
 Coeff-Com: -0.335D-03 0.117D-02 0.195D-01-0.103D-01 0.574D-01 0.189D+00
 Coeff-Com:  0.744D+00
 Coeff:     -0.335D-03 0.117D-02 0.195D-01-0.103D-01 0.574D-01 0.189D+00
 Coeff:      0.744D+00
 Gap=     0.152 Goal=   None    Shift=    0.000
 RMSDP=1.05D-05 MaxDP=2.30D-04 DE=-4.87D-06 OVMax= 2.50D-04

 Cycle   8  Pass 1  IDiag  1:
 E= -593.060032760944     Delta-E=       -0.000000502009 Rises=F Damp=F
 DIIS: error= 1.17D-05 at cycle   8 NSaved=   8.
 NSaved= 8 IEnMin= 8 EnMin= -593.060032760944     IErMin= 8 ErrMin= 1.17D-05
 ErrMax= 1.17D-05  0.00D+00 EMaxC= 1.00D-01 BMatC= 1.47D-08 BMatP= 5.27D-07
 IDIUse=1 WtCom= 1.00D+00 WtEn= 0.00D+00
 Coeff-Com:  0.225D-04-0.103D-03 0.391D-02-0.198D-02 0.106D-01 0.490D-01
 Coeff-Com:  0.264D+00 0.674D+00
 Coeff:      0.225D-04-0.103D-03 0.391D-02-0.198D-02 0.106D-01 0.490D-01
 Coeff:      0.264D+00 0.674D+00
 Gap=     0.152 Goal=   None    Shift=    0.000
 RMSDP=6.15D-06 MaxDP=1.90D-04 DE=-5.02D-07 OVMax= 3.81D-05

 Cycle   9  Pass 1  IDiag  1:
 E= -593.060032777197     Delta-E=       -0.000000016253 Rises=F Damp=F
 DIIS: error= 2.16D-06 at cycle   9 NSaved=   9.
 NSaved= 9 IEnMin= 9 EnMin= -593.060032777197     IErMin= 9 ErrMin= 2.16D-06
 ErrMax= 2.16D-06  0.00D+00 EMaxC= 1.00D-01 BMatC= 6.10D-10 BMatP= 1.47D-08
 IDIUse=1 WtCom= 1.00D+00 WtEn= 0.00D+00
 Coeff-Com:  0.311D-04-0.709D-04-0.605D-03 0.915D-04-0.132D-02-0.796D-03
 Coeff-Com:  0.143D-01 0.184D+00 0.804D+00
 Coeff:      0.311D-04-0.709D-04-0.605D-03 0.915D-04-0.132D-02-0.796D-03
 Coeff:      0.143D-01 0.184D+00 0.804D+00
 Gap=     0.152 Goal=   None    Shift=    0.000
 RMSDP=1.06D-06 MaxDP=3.83D-05 DE=-1.63D-08 OVMax= 6.93D-06

 Cycle  10  Pass 1  IDiag  1:
 E= -593.060032777831     Delta-E=       -0.000000000635 Rises=F Damp=F
 DIIS: error= 2.69D-07 at cycle  10 NSaved=  10.
 NSaved=10 IEnMin=10 EnMin= -593.060032777831     IErMin=10 ErrMin= 2.69D-07
 ErrMax= 2.69D-07  0.00D+00 EMaxC= 1.00D-01 BMatC= 1.29D-11 BMatP= 6.10D-10
 IDIUse=1 WtCom= 1.00D+00 WtEn= 0.00D+00
 Coeff-Com:  0.708D-05-0.190D-04-0.112D-03 0.541D-04-0.309D-03-0.323D-03
 Coeff-Com: -0.280D-02 0.215D-01 0.151D+00 0.831D+00
 Coeff:      0.708D-05-0.190D-04-0.112D-03 0.541D-04-0.309D-03-0.323D-03
 Coeff:     -0.280D-02 0.215D-01 0.151D+00 0.831D+00
 Gap=     0.152 Goal=   None    Shift=    0.000
 RMSDP=6.61D-08 MaxDP=1.22D-06 DE=-6.35D-10 OVMax= 1.20D-06

 Cycle  11  Pass 1  IDiag  1:
 E= -593.060032777843     Delta-E=       -0.000000000012 Rises=F Damp=F
 DIIS: error= 6.47D-08 at cycle  11 NSaved=  11.
 NSaved=11 IEnMin=11 EnMin= -593.060032777843     IErMin=11 ErrMin= 6.47D-08
 ErrMax= 6.47D-08  0.00D+00 EMaxC= 1.00D-01 BMatC= 4.16D-13 BMatP= 1.29D-11
 IDIUse=1 WtCom= 1.00D+00 WtEn= 0.00D+00
 Coeff-Com: -0.801D-06 0.161D-05-0.955D-05 0.379D-05-0.152D-04-0.435D-04
 Coeff-Com: -0.847D-03-0.229D-02-0.133D-02 0.516D-01 0.953D+00
 Coeff:     -0.801D-06 0.161D-05-0.955D-05 0.379D-05-0.152D-04-0.435D-04
 Coeff:     -0.847D-03-0.229D-02-0.133D-02 0.516D-01 0.953D+00
 Gap=     0.152 Goal=   None    Shift=    0.000
 RMSDP=7.72D-08 MaxDP=3.02D-06 DE=-1.21D-11 OVMax= 1.99D-07

 Cycle  12  Pass 1  IDiag  1:
 E= -593.060032777843     Delta-E=        0.000000000000 Rises=F Damp=F
 DIIS: error= 1.53D-08 at cycle  12 NSaved=  12.
 NSaved=12 IEnMin=11 EnMin= -593.060032777843     IErMin=12 ErrMin= 1.53D-08
 ErrMax= 1.53D-08  0.00D+00 EMaxC= 1.00D-01 BMatC= 6.59D-15 BMatP= 4.16D-13
 IDIUse=1 WtCom= 1.00D+00 WtEn= 0.00D+00
 Coeff-Com: -0.450D-06 0.962D-06-0.755D-06-0.224D-07 0.185D-05-0.828D-05
 Coeff-Com: -0.193D-03-0.107D-02-0.333D-02 0.307D-02 0.303D+00 0.698D+00
 Coeff:     -0.450D-06 0.962D-06-0.755D-06-0.224D-07 0.185D-05-0.828D-05
 Coeff:     -0.193D-03-0.107D-02-0.333D-02 0.307D-02 0.303D+00 0.698D+00
 Gap=     0.152 Goal=   None    Shift=    0.000
 RMSDP=1.92D-08 MaxDP=7.78D-07 DE= 0.00D+00 OVMax= 2.99D-08

 Cycle  13  Pass 1  IDiag  1:
 E= -593.060032777846     Delta-E=       -0.000000000003 Rises=F Damp=F
 DIIS: error= 1.24D-09 at cycle  13 NSaved=  13.
 NSaved=13 IEnMin=13 EnMin= -593.060032777846     IErMin=13 ErrMin= 1.24D-09
 ErrMax= 1.24D-09  0.00D+00 EMaxC= 1.00D-01 BMatC= 1.91D-16 BMatP= 6.59D-15
 IDIUse=1 WtCom= 1.00D+00 WtEn= 0.00D+00
 Coeff-Com: -0.170D-07 0.260D-07 0.290D-06-0.699D-07 0.503D-06-0.237D-05
 Coeff-Com:  0.880D-05-0.171D-04-0.348D-03 0.783D-03-0.113D-01 0.455D-01
 Coeff-Com:  0.965D+00
 Coeff:     -0.170D-07 0.260D-07 0.290D-06-0.699D-07 0.503D-06-0.237D-05
 Coeff:      0.880D-05-0.171D-04-0.348D-03 0.783D-03-0.113D-01 0.455D-01
 Coeff:      0.965D+00
 Gap=     0.152 Goal=   None    Shift=    0.000
 RMSDP=1.83D-09 MaxDP=6.73D-08 DE=-2.61D-12 OVMax= 6.82D-09

 SCF Done:  E(RB3LYP) =  -593.060032778     A.U. after   13 cycles
            NFock= 13  Conv=0.18D-08     -V/T= 2.0047
 KE= 5.902795848776D+02 PE=-1.620356828356D+03 EE= 3.319254658909D+02
 Leave Link  502 at Sun Oct 13 09:47:15 2024, MaxMem=  2684354560 cpu:              38.5 elap:               1.8
 (Enter /usr/local/g16_AVX//g16/l801.exe)
 DoSCS=F DFT=T ScalE2(SS,OS)=  1.000000  1.000000
 Range of M.O.s used for correlation:     1    98
 NBasis=    98 NAE=    20 NBE=    20 NFC=     0 NFV=     0
 NROrb=     98 NOA=    20 NOB=    20 NVA=    78 NVB=    78

 **** Warning!!: The largest alpha MO coefficient is  0.12775164D+03

 Leave Link  801 at Sun Oct 13 09:47:15 2024, MaxMem=  2684354560 cpu:               0.7 elap:               0.1
 (Enter /usr/local/g16_AVX//g16/l1101.exe)
 Using compressed storage, NAtomX=     7.
 Will process      8 centers per pass.
 Leave Link 1101 at Sun Oct 13 09:47:15 2024, MaxMem=  2684354560 cpu:               3.4 elap:               0.2
 (Enter /usr/local/g16_AVX//g16/l1102.exe)
 Symmetrizing basis deriv contribution to polar:
 IMax=3 JMax=2 DiffMx= 0.00D+00
 Leave Link 1102 at Sun Oct 13 09:47:15 2024, MaxMem=  2684354560 cpu:               0.7 elap:               0.1
 (Enter /usr/local/g16_AVX//g16/l1110.exe)
 Forming Gx(P) for the SCF density, NAtomX=     7.
 Integral derivatives from FoFJK, PRISM(SPDF).
 Do as many integral derivatives as possible in FoFJK.
 G2DrvN: MDV=    2684353864.
 G2DrvN: will do     8 centers at a time, making    1 passes.
 Calling FoFCou, ICntrl=  3107 FMM=F I1Cent=   0 AccDes= 0.00D+00.
 FoFJK:  IHMeth= 1 ICntrl=    3107 DoSepK=F KAlg= 0 I1Cent=           0 FoldK=F
 IRaf=         0 NMat=       1 IRICut=       1 DoRegI=T DoRafI=F ISym2E= 0 IDoP0=0 IntGTp=1.
 FoFCou: FMM=F IPFlag=           0 FMFlag=      100000 FMFlg1=           0
         NFxFlg=           0 DoJE=F BraDBF=F KetDBF=F FulRan=T
         wScrn=  0.000000 ICntrl=      3107 IOpCl=  0 I1Cent=           0 NGrid=           0
         NMat0=    1 NMatS0=      1 NMatT0=    0 NMatD0=    1 NMtDS0=    0 NMtDT0=    0
 Symmetry not used in FoFCou.
 End of G2Drv F.D. properties file   721 does not exist.
 End of G2Drv F.D. properties file   722 does not exist.
 End of G2Drv F.D. properties file   788 does not exist.
 Leave Link 1110 at Sun Oct 13 09:47:17 2024, MaxMem=  2684354560 cpu:              39.5 elap:               1.6
 (Enter /usr/local/g16_AVX//g16/l1002.exe)
 Minotr:  Closed shell wavefunction.
          IDoAtm=1111111
          Direct CPHF calculation.
          Differentiating once with respect to electric field.
                with respect to dipole field.
          Differentiating once with respect to nuclear coordinates.
          Requested convergence is 1.0D-08 RMS, and 1.0D-07 maximum.
          Secondary convergence is 1.0D-12 RMS, and 1.0D-12 maximum.
          NewPWx=T KeepS1=F KeepF1=F KeepIn=T MapXYZ=F SortEE=F KeepMc=T.
         2136 words used for storage of precomputed grid.
 Keep R1 ints in memory in canonical form, NReq=35668397.
 FoFCou: FMM=F IPFlag=           0 FMFlag=           0 FMFlg1=           0
         NFxFlg=           0 DoJE=F BraDBF=F KetDBF=F FulRan=T
         wScrn=  0.000000 ICntrl=       600 IOpCl=  0 I1Cent=           0 NGrid=           0
         NMat0=    1 NMatS0=   4851 NMatT0=    0 NMatD0=    1 NMtDS0=    0 NMtDT0=    0
 Symmetry not used in FoFCou.
 Two-electron integral symmetry not used.
          MDV=    2684354560 using IRadAn=       1.
          Solving linear equations simultaneously, MaxMat=       0.
          There are    24 degrees of freedom in the 1st order CPHF.  IDoFFX=6 NUNeed=     3.
     21 vectors produced by pass  0 Test12= 6.50D-15 4.17D-09 XBig12= 6.89D+01 2.87D+00.
 AX will form    21 AO Fock derivatives at one time.
     21 vectors produced by pass  1 Test12= 6.50D-15 4.17D-09 XBig12= 4.85D+01 2.14D+00.
     21 vectors produced by pass  2 Test12= 6.50D-15 4.17D-09 XBig12= 1.68D+00 4.03D-01.
     21 vectors produced by pass  3 Test12= 6.50D-15 4.17D-09 XBig12= 8.77D-03 1.93D-02.
     21 vectors produced by pass  4 Test12= 6.50D-15 4.17D-09 XBig12= 1.05D-05 5.59D-04.
     18 vectors produced by pass  5 Test12= 6.50D-15 4.17D-09 XBig12= 1.30D-08 2.65D-05.
      4 vectors produced by pass  6 Test12= 6.50D-15 4.17D-09 XBig12= 2.31D-11 1.06D-06.
      3 vectors produced by pass  7 Test12= 6.50D-15 4.17D-09 XBig12= 4.08D-14 5.92D-08.
 InvSVY:  IOpt=1 It=  1 EMax= 3.55D-15
 Solved reduced A of dimension   130 with    24 vectors.
 FullF1:  Do perturbations      1 to       3.
 Isotropic polarizability for W=    0.000000       53.90 Bohr**3.
 End of Minotr F.D. properties file   721 does not exist.
 End of Minotr F.D. properties file   722 does not exist.
 End of Minotr F.D. properties file   788 does not exist.
 Leave Link 1002 at Sun Oct 13 09:47:19 2024, MaxMem=  2684354560 cpu:              54.9 elap:               2.2
 (Enter /usr/local/g16_AVX//g16/l601.exe)
 Copying SCF densities to generalized density rwf, IOpCl= 0 IROHF=0.

 **********************************************************************

            Population analysis using the SCF Density.

 **********************************************************************

 Alpha  occ. eigenvalues -- -101.25462 -14.23045 -10.12756 -10.09911  -9.16801
 Alpha  occ. eigenvalues --   -6.92583  -6.92583  -6.92573  -0.80020  -0.64610
 Alpha  occ. eigenvalues --   -0.50587  -0.38379  -0.32962  -0.32958  -0.26076
 Alpha  occ. eigenvalues --   -0.21918  -0.21917  -0.05294  -0.05194  -0.05194
 Alpha virt. eigenvalues --    0.09982   0.13450   0.13457   0.14241   0.14574
 Alpha virt. eigenvalues --    0.14576   0.19852   0.20450   0.20454   0.21943
 Alpha virt. eigenvalues --    0.23004   0.23012   0.25134   0.25913   0.25918
 Alpha virt. eigenvalues --    0.29002   0.32623   0.33427   0.33428   0.34126
 Alpha virt. eigenvalues --    0.34131   0.34614   0.39347   0.40777   0.48342
 Alpha virt. eigenvalues --    0.69178   0.78516   0.78516   0.84418   0.84427
 Alpha virt. eigenvalues --    0.84963   0.84972   0.85297   0.88385   0.98543
 Alpha virt. eigenvalues --    1.02285   1.02295   1.02391   1.09749   1.11688
 Alpha virt. eigenvalues --    1.11689   1.15403   1.15404   1.15914   1.15915
 Alpha virt. eigenvalues --    1.20356   1.24196   1.27094   1.45051   1.45057
 Alpha virt. eigenvalues --    1.53733   1.62422   1.62423   1.85958   1.85965
 Alpha virt. eigenvalues --    1.89647   2.05112   2.05112   2.14473   2.23279
 Alpha virt. eigenvalues --    2.23288   2.30296   2.39440   2.39450   2.76049
 Alpha virt. eigenvalues --    2.79903   2.79905   3.04845   3.08693   3.08715
 Alpha virt. eigenvalues --    3.28106   3.44877   3.54786   3.54789   4.24708
 Alpha virt. eigenvalues --    4.43718   4.57492   4.80622
          Condensed to atoms (all electrons):
               1          2          3          4          5          6
     1  C    5.900988  -0.102952   0.416393   0.418770   0.418744  -0.972674
     2  Cl  -0.102952  17.927835  -0.005640  -0.005590  -0.005591   0.121932
     3  H    0.416393  -0.005640   0.484751  -0.023871  -0.023873  -0.059191
     4  H    0.418770  -0.005590  -0.023871   0.485348  -0.023990  -0.061922
     5  H    0.418744  -0.005591  -0.023873  -0.023990   0.485331  -0.061882
     6  C   -0.972674   0.121932  -0.059191  -0.061922  -0.061882   6.691631
     7  N   -0.030826   0.000337  -0.004948  -0.004860  -0.004864   0.435558
               7
     1  C   -0.030826
     2  Cl   0.000337
     3  H   -0.004948
     4  H   -0.004860
     5  H   -0.004864
     6  C    0.435558
     7  N    7.185995
 Mulliken charges:
               1
     1  C   -0.048444
     2  Cl  -0.930331
     3  H    0.216379
     4  H    0.216114
     5  H    0.216125
     6  C   -0.093452
     7  N   -0.576391
 Sum of Mulliken charges =  -1.00000
 Mulliken charges with hydrogens summed into heavy atoms:
               1
     1  C    0.600173
     2  Cl  -0.930331
     6  C   -0.093452
     7  N   -0.576391
 APT charges:
               1
     1  C    0.005119
     2  Cl  -0.983593
     3  H    0.082733
     4  H    0.082253
     5  H    0.082262
     6  C    0.208605
     7  N   -0.477379
 Sum of APT charges =  -1.00000
 APT charges with hydrogens summed into heavy atoms:
               1
     1  C    0.252367
     2  Cl  -0.983593
     6  C    0.208605
     7  N   -0.477379
 Electronic spatial extent (au):  <R**2>=            935.2653
 Charge=             -1.0000 electrons
 Dipole moment (field-independent basis, Debye):
    X=              6.2726    Y=              0.0002    Z=              0.0110  Tot=              6.2727
 Quadrupole moment (field-independent basis, Debye-Ang):
   XX=            -89.2134   YY=            -35.4464   ZZ=            -35.4441
   XY=              0.0004   XZ=              0.0000   YZ=              0.0000
 Traceless Quadrupole moment (field-independent basis, Debye-Ang):
   XX=            -35.8455   YY=             17.9216   ZZ=             17.9238
   XY=              0.0004   XZ=              0.0000   YZ=              0.0000
 Octapole moment (field-independent basis, Debye-Ang**2):
  XXX=             -9.7735  YYY=             -0.0055  ZZZ=             -0.8485  XYY=              4.4477
  XXY=              0.0016  XXZ=              0.0685  XZZ=              4.4463  YZZ=              0.0055
  YYZ=              0.8585  XYZ=              0.0000
 Hexadecapole moment (field-independent basis, Debye-Ang**3):
 XXXX=          -1882.8463 YYYY=            -58.1804 ZZZZ=            -58.1916 XXXY=              0.0076
 XXXZ=             -0.0814 YYYX=             -0.0002 YYYZ=              0.0001 ZZZX=             -0.4754
 ZZZY=              0.0000 XXYY=           -236.0578 XXZZ=           -236.0595 YYZZ=            -19.3873
 XXYZ=              0.0000 YYXZ=              0.2808 ZZXY=              0.0027
 N-N= 1.050917448096D+02 E-N=-1.620356828108D+03  KE= 5.902795848776D+02
  Exact polarizability:  78.520  -0.001  41.591  -0.019   0.000  41.599
 Approx polarizability:  97.026  -0.002  49.945  -0.044   0.000  49.957
 No NMR shielding tensors so no spin-rotation constants.
 Leave Link  601 at Sun Oct 13 09:47:19 2024, MaxMem=  2684354560 cpu:               2.6 elap:               0.1
 (Enter /usr/local/g16_AVX//g16/l701.exe)
 ... and contract with generalized density number  0.
 Compute integral second derivatives.
 Leave Link  701 at Sun Oct 13 09:47:19 2024, MaxMem=  2684354560 cpu:               4.6 elap:               0.2
 (Enter /usr/local/g16_AVX//g16/l702.exe)
 L702 exits ... SP integral derivatives will be done elsewhere.
 Leave Link  702 at Sun Oct 13 09:47:20 2024, MaxMem=  2684354560 cpu:               0.5 elap:               0.1
 (Enter /usr/local/g16_AVX//g16/l703.exe)
 Integral derivatives from FoFJK, PRISM(SPDF).
 Compute integral second derivatives, UseDBF=F ICtDFT=           0.
 Calling FoFJK, ICntrl=    100127 FMM=F ISym2X=0 I1Cent= 0 IOpClX= 0 NMat=1 NMatS=1 NMatT=0.
 FoFJK:  IHMeth= 1 ICntrl=  100127 DoSepK=F KAlg= 0 I1Cent=           0 FoldK=F
 IRaf=         0 NMat=       1 IRICut=       1 DoRegI=T DoRafI=F ISym2E= 0 IDoP0=0 IntGTp=1.
 FoFCou: FMM=F IPFlag=           0 FMFlag=      100000 FMFlg1=         800
         NFxFlg=           0 DoJE=F BraDBF=F KetDBF=F FulRan=T
         wScrn=  0.000000 ICntrl=    100127 IOpCl=  0 I1Cent=           0 NGrid=           0
         NMat0=    1 NMatS0=      1 NMatT0=    0 NMatD0=    1 NMtDS0=    0 NMtDT0=    0
 Symmetry not used in FoFCou.
 Leave Link  703 at Sun Oct 13 09:47:22 2024, MaxMem=  2684354560 cpu:              66.9 elap:               2.6
 (Enter /usr/local/g16_AVX//g16/l716.exe)
 Dipole        = 2.46784899D+00 6.06396485D-05 4.33659788D-03
 Polarizability= 7.85197483D+01-8.51600926D-04 4.15906853D+01
                -1.92245208D-02 1.11654054D-06 4.15991406D+01
 Full mass-weighted force constant matrix:
 Low frequencies ---  -63.6697  -63.4629   -4.3315   -3.7966    0.0037    0.0054
 Low frequencies ---    0.0056  101.2671  124.9226
 ******    2 imaginary frequencies (negative Signs) ****** 
 Diagonal vibrational polarizability:
       54.8089968     156.0501984     157.3061860
 Harmonic frequencies (cm**-1), IR intensities (KM/Mole), Raman scattering
 activities (A**4/AMU), depolarization ratios for plane and unpolarized
 incident light, reduced masses (AMU), force constants (mDyne/A),
 and normal coordinates:
                      1                      2                      3
                      A                      A                      A
 Frequencies --    -60.1077               -59.8826               101.2671
 Red. masses --      3.5705                 3.5726                12.0205
 Frc consts  --      0.0076                 0.0075                 0.0726
 IR Inten    --     20.8876                20.8992                20.4662
  Atom  AN      X      Y      Z        X      Y      Z        X      Y      Z
     1   6    -0.00   0.38  -0.01     0.00   0.01   0.38    -0.36  -0.00  -0.00
     2  17     0.00  -0.08   0.00     0.00  -0.00  -0.08     0.43   0.00   0.00
     3   1     0.01   0.48  -0.02    -0.28   0.02   0.48    -0.37  -0.00   0.00
     4   1     0.24   0.47  -0.00     0.15   0.02   0.47    -0.37  -0.00  -0.00
     5   1    -0.25   0.47  -0.03     0.13   0.01   0.47    -0.37   0.00  -0.00
     6   6     0.00   0.03  -0.00    -0.00   0.00   0.03    -0.37  -0.00   0.00
     7   7     0.00  -0.24   0.01    -0.00  -0.01  -0.24    -0.37   0.00  -0.00
                      4                      5                      6
                      A                      A                      A
 Frequencies --    372.0217               372.1754               922.8380
 Red. masses --      3.5235                 3.5224                 4.7629
 Frc consts  --      0.2873                 0.2875                 2.3899
 IR Inten    --      1.3518                 1.3462                10.4889
  Atom  AN      X      Y      Z        X      Y      Z        X      Y      Z
     1   6     0.00  -0.06   0.00    -0.00  -0.00  -0.06     0.44  -0.00  -0.00
     2  17     0.00  -0.00   0.00    -0.00  -0.00  -0.00    -0.00   0.00   0.00
     3   1    -0.01  -0.28   0.01     0.60  -0.01  -0.29     0.47   0.00  -0.01
     4   1    -0.51  -0.29   0.00    -0.31  -0.01  -0.28     0.47   0.01   0.00
     5   1     0.52  -0.29   0.01    -0.29  -0.00  -0.28     0.47  -0.01   0.00
     6   6     0.00   0.40  -0.01     0.00   0.01   0.40    -0.20  -0.00   0.00
     7   7    -0.00  -0.23   0.00    -0.00  -0.00  -0.23    -0.30   0.00   0.00
                      7                      8                      9
                      A                      A                      A
 Frequencies --   1020.1522              1020.2087              1361.2234
 Red. masses --      1.5103                 1.5102                 1.2217
 Frc consts  --      0.9261                 0.9261                 1.3337
 IR Inten    --      1.3692                 1.3749                36.6887
  Atom  AN      X      Y      Z        X      Y      Z        X      Y      Z
     1   6    -0.00   0.16  -0.02     0.00   0.02   0.16    -0.14  -0.00   0.00
     2  17     0.00  -0.00   0.00    -0.00  -0.00  -0.00     0.00  -0.00  -0.00
     3   1    -0.07  -0.33   0.01     0.71  -0.03  -0.12     0.52   0.00  -0.23
     4   1    -0.58  -0.18   0.12    -0.42   0.08  -0.27     0.52   0.20   0.12
     5   1     0.65  -0.16  -0.07    -0.30  -0.11  -0.29     0.52  -0.20   0.12
     6   6     0.00  -0.13   0.01    -0.00  -0.01  -0.13     0.00  -0.00  -0.00
     7   7     0.00   0.02  -0.00    -0.00   0.00   0.02     0.00   0.00   0.00
                     10                     11                     12
                      A                      A                      A
 Frequencies --   1447.7535              1447.8363              2348.8877
 Red. masses --      1.0401                 1.0401                12.5122
 Frc consts  --      1.2845                 1.2846                40.6733
 IR Inten    --     13.0606                13.0664                47.7093
  Atom  AN      X      Y      Z        X      Y      Z        X      Y      Z
     1   6     0.00  -0.05  -0.00     0.00   0.00  -0.05    -0.09   0.00   0.00
     2  17     0.00  -0.00  -0.00    -0.00   0.00  -0.00     0.00  -0.00   0.00
     3   1     0.00   0.71  -0.00     0.36  -0.01  -0.16    -0.07  -0.00   0.02
     4   1    -0.31   0.05  -0.37    -0.17  -0.38   0.50    -0.07  -0.02  -0.01
     5   1     0.31   0.06   0.39    -0.18   0.38   0.49    -0.07   0.02  -0.01
     6   6    -0.00  -0.02  -0.00    -0.00   0.00  -0.02     0.79  -0.00  -0.00
     7   7     0.00   0.00   0.00    -0.00  -0.00   0.00    -0.59   0.00   0.00
                     13                     14                     15
                      A                      A                      A
 Frequencies --   3085.2507              3167.9156              3168.1692
 Red. masses --      1.0337                 1.1031                 1.1031
 Frc consts  --      5.7971                 6.5225                 6.5237
 IR Inten    --      1.6060                 0.2172                 0.2313
  Atom  AN      X      Y      Z        X      Y      Z        X      Y      Z
     1   6    -0.05   0.00   0.00    -0.00  -0.09  -0.00    -0.00   0.00  -0.09
     2  17    -0.00  -0.00  -0.00    -0.00   0.00   0.00    -0.00  -0.00   0.00
     3   1     0.19  -0.00   0.54     0.01  -0.02   0.03     0.29  -0.00   0.76
     4   1     0.19  -0.47  -0.27    -0.25   0.58   0.35    -0.13   0.32   0.16
     5   1     0.19   0.47  -0.27     0.24   0.55  -0.33    -0.15  -0.36   0.19
     6   6    -0.00   0.00   0.00    -0.00   0.00   0.00    -0.00  -0.00   0.00
     7   7     0.00  -0.00  -0.00     0.00  -0.00  -0.00     0.00   0.00  -0.00

 -------------------
 - Thermochemistry -
 -------------------
 Temperature   298.150 Kelvin.  Pressure   1.00000 Atm.
 Atom     1 has atomic number  6 and mass  12.00000
 Atom     2 has atomic number 17 and mass  34.96885
 Atom     3 has atomic number  1 and mass   1.00783
 Atom     4 has atomic number  1 and mass   1.00783
 Atom     5 has atomic number  1 and mass   1.00783
 Atom     6 has atomic number  6 and mass  12.00000
 Atom     7 has atomic number  7 and mass  14.00307
 Molecular mass:    75.99540 amu.
 Principal axes and moments of inertia in atomic units:
                           1         2         3
     Eigenvalues --    11.298181635.155681635.15943
           X            1.00000  -0.00022   0.00001
           Y           -0.00000   0.01958   0.99981
           Z            0.00022   0.99981  -0.01958
 This molecule is an asymmetric top.
 Rotational symmetry number  1.
 Rotational temperatures (Kelvin)      7.66618     0.05297     0.05297
 Rotational constants (GHZ):         159.73732     1.10371     1.10371
    2 imaginary frequencies ignored.
 Zero-point vibrational energy     118643.8 (Joules/Mol)
                                   28.35656 (Kcal/Mol)
 Warning -- explicit consideration of   3 degrees of freedom as
           vibrations may cause significant error
 Vibrational temperatures:    145.70   535.26   535.48  1327.76  1467.77
          (Kelvin)           1467.85  1958.50  2082.99  2083.11  3379.53
                             4438.99  4557.92  4558.29
 
 Zero-point correction=                           0.045189 (Hartree/Particle)
 Thermal correction to Energy=                    0.049568
 Thermal correction to Enthalpy=                  0.050512
 Thermal correction to Gibbs Free Energy=         0.017377
 Sum of electronic and zero-point Energies=           -593.014844
 Sum of electronic and thermal Energies=              -593.010465
 Sum of electronic and thermal Enthalpies=            -593.009521
 Sum of electronic and thermal Free Energies=         -593.042656
 
                     E (Thermal)             CV                S
                      KCal/Mol        Cal/Mol-Kelvin    Cal/Mol-Kelvin
 Total                   31.104             12.453             69.739
 Electronic               0.000              0.000              0.000
 Translational            0.889              2.981             38.900
 Rotational               0.889              2.981             24.916
 Vibrational             29.327              6.492              5.923
 Vibration     1          0.604              1.948              3.430
 Vibration     2          0.744              1.530              1.071
 Vibration     3          0.744              1.529              1.071
                       Q            Log10(Q)             Ln(Q)
 Total Bot       0.101709D-07         -7.992641        -18.403737
 Total V=0       0.620668D+13         12.792859         29.456647
 Vib (Bot)       0.627790D-20        -20.202186        -46.517252
 Vib (Bot)    1  0.202610D+01          0.306660          0.706111
 Vib (Bot)    2  0.488700D+00         -0.310957         -0.716006
 Vib (Bot)    3  0.488447D+00         -0.311183         -0.716524
 Vib (V=0)       0.383103D+01          0.583315          1.343133
 Vib (V=0)    1  0.258688D+01          0.412776          0.950453
 Vib (V=0)    2  0.119916D+01          0.078878          0.181623
 Vib (V=0)    3  0.119899D+01          0.078814          0.181476
 Electronic      0.100000D+01          0.000000          0.000000
 Translational   0.260396D+08          7.415635         17.075130
 Rotational      0.622171D+05          4.793909         11.038384
 
                                                       RxCoord=-7.98676 DE=0.72
                                                             IR Spectrum
 
      3  3                            2                                   1   1             1                                        
      1  0                            3                                   4   3             0   9                     3         1    
      6  8                            4                                   4   6             2   2                     7         0    
      8  5                            9                                   8   1             0   3                     2         1    
 
      X  X                            X                                   X   X             X   X                     X         X    
                                      X                                   X   X                 X                               X    
                                      X                                   X   X                 X                               X    
                                      X                                   X   X                 X                               X    
                                      X                                   X   X                                                 X    
                                      X                                   X   X                                                 X    
                                      X                                   X   X                                                 X    
                                      X                                   X   X                                                 X    
                                      X                                   X   X                                                 X    
                                      X                                   X   X                                                      
                                      X                                   X   X                                                      
                                      X                                       X                                                      
                                      X                                       X                                                      
                                      X                                       X                                                      
                                      X                                       X                                                      
                                      X                                                                                              
                                      X                                                                                              
                                      X                                                                                              
                                      X                                                                                              
                                      X                                                                                              
 
 -------------------------------------------------------------------
 Center     Atomic                   Forces (Hartrees/Bohr)
 Number     Number              X              Y              Z
 -------------------------------------------------------------------
      1        6           0.003079019    0.000003221    0.000011879
      2       17           0.000081284    0.000000028   -0.000002754
      3        1          -0.003056759   -0.000001221    0.001174723
      4        1          -0.002996398   -0.000972903   -0.000609201
      5        1          -0.002995968    0.000973296   -0.000602313
      6        6           0.001692549   -0.000004312    0.000037486
      7        7           0.004196274    0.000001890   -0.000009820
 -------------------------------------------------------------------
 Cartesian Forces:  Max     0.004196274 RMS     0.001708074
 Z-matrix is all fixed cartesians, so copy forces.
 Force constants in Cartesian coordinates: 
                1             2             3             4             5 
      1  0.486948D+00
      2  0.299475D-05  0.557250D+00
      3  0.284496D-05 -0.135402D-05  0.557470D+00
      4 -0.489954D-02  0.000000D+00  0.294900D-05  0.737250D-02
      5  0.000000D+00 -0.357082D-03  0.000000D+00  0.000000D+00  0.351361D-04
      6  0.301121D-05  0.000000D+00 -0.359377D-03  0.118042D-04  0.000000D+00
      7 -0.715122D-01  0.193235D-03 -0.903445D-01 -0.328372D-04  0.218274D-05
      8  0.190546D-03 -0.408867D-01  0.539673D-03  0.255773D-05 -0.938918D-03
      9 -0.891193D-01  0.539854D-03 -0.293425D+00 -0.115681D-02 -0.304193D-05
     10 -0.711944D-01  0.777459D-01  0.451667D-01 -0.153790D-04  0.871781D-03
     11  0.766984D-01 -0.229911D+00 -0.109823D+00  0.996082D-03  0.106052D-03
     12  0.445577D-01 -0.109827D+00 -0.104686D+00  0.576838D-03  0.594915D-03
     13 -0.711993D-01 -0.779468D-01  0.448387D-01 -0.153164D-04 -0.873959D-03
     14 -0.768969D-01 -0.230850D+00  0.109285D+00 -0.998557D-03  0.111161D-03
     15  0.442344D-01  0.109289D+00 -0.103748D+00  0.572697D-03 -0.591925D-03
     16 -0.257562D+00  0.189370D-05  0.291305D-03 -0.194334D-03  0.000000D+00
     17  0.576667D-05 -0.767097D-01  0.000000D+00  0.000000D+00  0.119409D-02
     18  0.280334D-03  0.000000D+00 -0.767229D-01 -0.147645D-04  0.000000D+00
     19 -0.105804D-01  0.287156D-05  0.420463D-04 -0.221510D-02  0.000000D+00
     20  0.000000D+00  0.214641D-01  0.000000D+00  0.000000D+00 -0.150440D-03
     21  0.410144D-04  0.000000D+00  0.214719D-01  0.728527D-05  0.000000D+00
                6             7             8             9            10 
      6  0.375822D-04
      7 -0.100813D-02  0.833376D-01
      8 -0.305581D-05 -0.211888D-03  0.429691D-01
      9  0.431532D-03  0.991256D-01 -0.576779D-03  0.312585D+00
     10  0.501192D-03  0.441004D-02 -0.967533D-02 -0.463154D-02  0.829510D-01
     11  0.595714D-03 -0.870753D-03  0.564599D-03  0.129071D-02 -0.853208D-01
     12 -0.575241D-03  0.106288D-01 -0.241171D-01 -0.127550D-01 -0.495792D-01
     13  0.497646D-03  0.441048D-02  0.969468D-02 -0.459035D-02  0.438544D-02
     14 -0.592715D-03  0.824831D-03  0.466255D-03 -0.123369D-02 -0.877082D-02
     15 -0.580196D-03  0.106328D-01  0.241738D-01 -0.126578D-01 -0.607549D-02
     16 -0.307081D-05 -0.209421D-01  0.621728D-05 -0.289166D-02 -0.208473D-01
     17  0.000000D+00  0.712565D-04 -0.331313D-02 -0.225492D-04  0.287583D-01
     18  0.119721D-02 -0.332014D-01 -0.221347D-04  0.737235D-02  0.167108D-01
     19 -0.244817D-05  0.328968D-03 -0.678167D-05  0.326413D-02  0.310561D-03
     20  0.000000D+00 -0.886394D-05  0.113872D-02  0.549530D-05 -0.360904D-02
     21 -0.151511D-03  0.416691D-02  0.560729D-05 -0.155125D-02 -0.209246D-02
               11            12            13            14            15 
     11  0.244805D+00
     12  0.117259D+00  0.111074D+00
     13  0.879641D-02 -0.603774D-02  0.829560D-01
     14 -0.193393D-01  0.126659D-01  0.855400D-01  0.245806D+00
     15 -0.127791D-01  0.714150D-02 -0.492187D-01 -0.116684D+00  0.110073D+00
     16  0.251844D-02  0.148775D-02 -0.208491D-01 -0.252354D-02  0.147625D-02
     17  0.463813D-02  0.458258D-02 -0.288283D-01  0.467907D-02 -0.456000D-02
     18  0.461517D-02 -0.669470D-03  0.165873D-01 -0.459297D-02 -0.708795D-03
     19 -0.281785D-02 -0.163419D-02  0.311847D-03  0.282491D-02 -0.162194D-02
     20 -0.863495D-03 -0.115808D-02  0.361798D-02 -0.873880D-03  0.115242D-02
     21 -0.115784D-02  0.470688D-03 -0.207695D-02  0.115207D-02  0.480593D-03
               16            17            18            19            20 
     16  0.155737D+01
     17 -0.771817D-04  0.108150D+00
     18 -0.217902D-02  0.000000D+00  0.108182D+00
     19 -0.123698D+01  0.704260D-04  0.181666D-02  0.124882D+01
     20  0.741930D-04 -0.386386D-01  0.000000D+00 -0.735547D-04  0.179236D-01
     21  0.181844D-02  0.000000D+00 -0.386503D-01 -0.186425D-02  0.000000D+00
               21 
     21  0.179299D-01
 Leave Link  716 at Sun Oct 13 09:47:22 2024, MaxMem=  2684354560 cpu:               0.9 elap:               0.1
 (Enter /usr/local/g16_AVX//g16/l103.exe)

 GradGradGradGradGradGradGradGradGradGradGradGradGradGradGradGradGradGrad
 Berny optimization.
 Search for a local minimum.
 Step number   1 out of a maximum of    2
 All quantities printed in internal units (Hartrees-Bohrs-Radians)
 Second derivative matrix not updated -- analytic derivatives used.
 ITU=  0
     Eigenvalues ---   -0.00059  -0.00058   0.00725   0.02450   0.02451
     Eigenvalues ---    0.09628   0.09629   0.09741   0.16252   0.16254
     Eigenvalues ---    0.28082   0.64876   0.82125   0.82151   2.66493
 Eigenvalue     1 is  -5.88D-04 should be greater than     0.000000 Eigenvector:
                          Y5        Y4        Y3        Y7        Y1
   1                    0.43725   0.43662   0.42762  -0.35331   0.33273
                          Y2        X5        X4        Y6        Z5
   1                   -0.25930  -0.25928   0.24876  -0.04598  -0.02483
 Eigenvalue     2 is  -5.83D-04 should be greater than     0.000000 Eigenvector:
                          Z3        Z4        Z5        Z7        Z1
   1                    0.44343   0.42939   0.42871  -0.35342   0.33276
                          X3        Z2        X4        X5        Z6
   1                   -0.29281  -0.25932   0.15606   0.13787  -0.04587
 Angle between quadratic step and forces=  39.32 degrees.
 Linear search not attempted -- first point.
 B after Tr=     0.014312    0.000017   -0.000945
         Rot=    1.000000   -0.000000    0.000073    0.000001 Ang=  -0.01 deg.
 Variable       Old X    -DE/DX   Delta X   Delta X   Delta X     New X
                                 (Linear)    (Quad)   (Total)
    X1        1.57533   0.00308   0.00000  -0.00035   0.01396   1.58929
    Y1        0.00007   0.00000   0.00000  -0.00005  -0.00003   0.00004
    Z1        0.00536   0.00001   0.00000   0.00177   0.00105   0.00642
    X2       -4.71261   0.00008   0.00000   0.02199   0.03630  -4.67631
    Y2       -0.00000   0.00000   0.00000   0.00003   0.00006   0.00005
    Z2       -0.00209  -0.00000   0.00000  -0.00139  -0.00302  -0.00511
    X3        0.85398  -0.00306   0.00000  -0.04978  -0.03519   0.81879
    Y3        0.00420  -0.00000   0.00000  -0.00007  -0.00005   0.00415
    Z3       -1.92676   0.00117   0.00000   0.01937   0.01855  -1.90822
    X4        0.85756  -0.00300   0.00000  -0.04626  -0.03208   0.82548
    Y4        1.67184  -0.00097   0.00000  -0.01409  -0.01407   1.65776
    Z4        0.97677  -0.00061   0.00000  -0.00632  -0.00714   0.96963
    X5        0.85750  -0.00300   0.00000  -0.04626  -0.03209   0.82541
    Y5       -1.67580   0.00097   0.00000   0.01403   0.01405  -1.66176
    Z5        0.96959  -0.00060   0.00000  -0.00624  -0.00706   0.96253
    X6        4.32821   0.00169   0.00000   0.00863   0.02294   4.35115
    Y6        0.00004  -0.00000   0.00000  -0.00004  -0.00003   0.00000
    Z6        0.00137   0.00004   0.00000  -0.00028  -0.00059   0.00078
    X7        6.52450   0.00420   0.00000   0.01185   0.02616   6.55066
    Y7       -0.00010   0.00000   0.00000   0.00008   0.00008  -0.00002
    Z7       -0.00196  -0.00001   0.00000  -0.00179  -0.00178  -0.00374
         Item               Value     Threshold  Converged?
 Maximum Force            0.004196     0.000450     NO 
 RMS     Force            0.001708     0.000300     NO 
 Maximum Displacement     0.036303     0.001800     NO 
 RMS     Displacement     0.018093     0.001200     NO 
 Predicted change in Energy=-2.760872D-04
 GradGradGradGradGradGradGradGradGradGradGradGradGradGradGradGradGradGrad

 Leave Link  103 at Sun Oct 13 09:47:22 2024, MaxMem=  2684354560 cpu:               0.6 elap:               0.1
 (Enter /usr/local/g16_AVX//g16/l9999.exe)

 ----------------------------------------------------------------------

 Electric dipole moment (input orientation):
 (Debye = 10**-18 statcoulomb cm , SI units = C m)
                  (au)            (Debye)         (10**-30 SI)
   Tot        0.246785D+01      0.627266D+01      0.209233D+02
   x          0.246785D+01      0.627265D+01      0.209233D+02
   y          0.606396D-04      0.154131D-03      0.514124D-03
   z          0.433660D-02      0.110225D-01      0.367672D-01

 Dipole polarizability, Alpha (input orientation).
 (esu units = cm**3 , SI units = C**2 m**2 J**-1)
 Alpha(0;0):
               (au)            (10**-24 esu)      (10**-40 SI)
   iso        0.539032D+02      0.798763D+01      0.888744D+01
   aniso      0.369249D+02      0.547170D+01      0.608809D+01
   xx         0.785197D+02      0.116354D+02      0.129462D+02
   yx        -0.851601D-03     -0.126194D-03     -0.140410D-03
   yy         0.415907D+02      0.616310D+01      0.685738D+01
   zx        -0.192245D-01     -0.284878D-02     -0.316970D-02
   zy         0.000000D+00      0.000000D+00      0.000000D+00
   zz         0.415991D+02      0.616436D+01      0.685877D+01

 ----------------------------------------------------------------------

 Dipole orientation:
     6         -0.00259670          0.00003493          1.57533561
    17         -0.00618924          0.00011187         -4.71260675
     1          1.92826232          0.00422726          0.85059347
     1         -0.97530176          1.67179000          0.85931577
     1         -0.96803881         -1.67584831          0.85915854
     6          0.00623563         -0.00007029          4.32820365
     7          0.01342095         -0.00026014          6.52448514

 Electric dipole moment (dipole orientation):
 (Debye = 10**-18 statcoulomb cm , SI units = C m)
                  (au)            (Debye)         (10**-30 SI)
   Tot        0.246785D+01      0.627266D+01      0.209233D+02
   x          0.000000D+00      0.000000D+00      0.000000D+00
   y          0.000000D+00      0.000000D+00      0.000000D+00
   z          0.246785D+01      0.627266D+01      0.209233D+02

 Dipole polarizability, Alpha (dipole orientation).
 (esu units = cm**3 , SI units = C**2 m**2 J**-1)
 Alpha(0;0):
               (au)            (10**-24 esu)      (10**-40 SI)
   iso        0.539032D+02      0.798763D+01      0.888744D+01
   aniso      0.369249D+02      0.547170D+01      0.608809D+01
   xx         0.415993D+02      0.616438D+01      0.685880D+01
   yx         0.000000D+00      0.000000D+00      0.000000D+00
   yy         0.415907D+02      0.616310D+01      0.685738D+01
   zx         0.841025D-01      0.124627D-01      0.138666D-01
   zy        -0.175694D-02     -0.260352D-03     -0.289681D-03
   zz         0.785196D+02      0.116354D+02      0.129461D+02

 ----------------------------------------------------------------------
 1\1\GINC-NODO7\Freq\RB3LYP\6-31++G(d,p)\C2H3Cl1N1(1-)\ALANQF\13-Oct-20
 24\0\\#p b3lyp 6-31++g(d,p) scf=verytight NoSymm freq=noraman int=ultr
 afine\\RxCoord=-7.98676 DE=0.72\\-1,1\C,0.833628,0.000039,0.002839\Cl,
 -2.493806,-0.000002,-0.001107\H,0.451907,0.002223,-1.0196\H,0.453801,0
 .884697,0.516884\H,0.453768,-0.886797,0.513084\C,2.290389,0.000019,0.0
 00725\N,3.452616,-0.000053,-0.001035\\Version=ES64L-G16RevB.01\HF=-593
 .0600328\RMSD=1.832e-09\RMSF=1.708e-03\ZeroPoint=0.045189\Thermal=0.04
 95675\Dipole=2.5588072,0.0000638,0.0046122\DipoleDeriv=-0.1129748,0.00
 00031,0.0000768,-0.000029,0.0644393,0.000008,-0.0002387,0.0000079,0.06
 38929,-1.0878778,0.0000015,-0.0000341,0.0000026,-0.9314323,0.0000001,0
 .0000104,0.0000001,-0.9314683,0.1213286,-0.0000307,0.0163074,0.0000452
 ,0.110511,0.0002002,-0.0187639,0.0002016,0.0163586,0.1202461,-0.013994
 9,-0.0079277,0.0164749,0.0397529,-0.0410551,0.0097992,-0.0410612,0.086
 7596,0.1202672,0.0140327,-0.0078651,-0.0165002,0.0394072,0.04085,0.009
 7248,0.0408547,0.0871124,0.5100824,0.0000042,-0.0007329,-0.0000063,0.0
 57852,-0.0000053,-0.0012206,-0.0000052,0.0578796,-0.6710717,-0.0000159
 ,0.0001756,0.0000129,-0.3805301,0.0000021,0.0006889,0.0000021,-0.38053
 48\Polar=78.5197483,-0.0008516,41.5906853,-0.0192245,0.0000011,41.5991
 406\Quadrupole=-26.6502231,13.324281,13.3259421,0.000331,0.0000046,0.0
 000119\PG=C01 [X(C2H3Cl1N1)]\NImag=2\\0.48694773,0.00000299,0.55725032
 ,0.00000284,-0.00000135,0.55746965,-0.00489954,-0.00000011,0.00000295,
 0.00737250,0.,-0.00035708,-0.00000002,0.00000006,0.00003514,0.00000301
 ,-0.00000001,-0.00035938,0.00001180,0.00000007,0.00003758,-0.07151220,
 0.00019323,-0.09034454,-0.00003284,0.00000218,-0.00100813,0.08333760,0
 .00019055,-0.04088665,0.00053967,0.00000256,-0.00093892,-0.00000306,-0
 .00021189,0.04296913,-0.08911932,0.00053985,-0.29342503,-0.00115681,-0
 .00000304,0.00043153,0.09912556,-0.00057678,0.31258524,-0.07119438,0.0
 7774591,0.04516667,-0.00001538,0.00087178,0.00050119,0.00441004,-0.009
 67533,-0.00463154,0.08295100,0.07669842,-0.22991114,-0.10982349,0.0009
 9608,0.00010605,0.00059571,-0.00087075,0.00056460,0.00129071,-0.085320
 76,0.24480518,0.04455773,-0.10982707,-0.10468633,0.00057684,0.00059492
 ,-0.00057524,0.01062884,-0.02411713,-0.01275500,-0.04957923,0.11725885
 ,0.11107385,-0.07119933,-0.07794680,0.04483873,-0.00001532,-0.00087396
 ,0.00049765,0.00441048,0.00969468,-0.00459035,0.00438544,0.00879641,-0
 .00603774,0.08295597,-0.07689685,-0.23084976,0.10928529,-0.00099856,0.
 00011116,-0.00059271,0.00082483,0.00046626,-0.00123369,-0.00877082,-0.
 01933934,0.01266592,0.08554002,0.24580649,0.04423439,0.10928872,-0.103
 74791,0.00057270,-0.00059192,-0.00058020,0.01063276,0.02417382,-0.0126
 5784,-0.00607549,-0.01277913,0.00714150,-0.04921867,-0.11668390,0.1100
 7264,-0.25756184,0.00000189,0.00029130,-0.00019433,-0.00000003,-0.0000
 0307,-0.02094206,0.00000622,-0.00289166,-0.02084728,0.00251844,0.00148
 775,-0.02084909,-0.00252354,0.00147625,1.55737275,0.00000577,-0.076709
 75,-0.00000029,-0.00000019,0.00119409,0.,0.00007126,-0.00331313,-0.000
 02255,0.02875825,0.00463813,0.00458258,-0.02882833,0.00467907,-0.00456
 000,-0.00007718,0.10815017,0.00028033,-0.00000032,-0.07672289,-0.00001
 476,0.,0.00119721,-0.03320139,-0.00002213,0.00737235,0.01671085,0.0046
 1517,-0.00066947,0.01658733,-0.00459297,-0.00070880,-0.00217902,0.0000
 0031,0.10818194,-0.01058044,0.00000287,0.00004205,-0.00221510,-0.00000
 002,-0.00000245,0.00032897,-0.00000678,0.00326413,0.00031056,-0.002817
 85,-0.00163419,0.00031185,0.00282491,-0.00162194,-1.23697815,0.0000704
 3,0.00181666,1.24882232,-0.00000087,0.02146407,0.00000019,0.00000016,-
 0.00015044,0.,-0.00000886,0.00113872,0.00000550,-0.00360904,-0.0008634
 9,-0.00115808,0.00361798,-0.00087388,0.00115242,0.00007419,-0.03863859
 ,-0.00000006,-0.00007355,0.01792361,0.00004101,0.00000018,0.02147189,0
 .00000729,0.,-0.00015151,0.00416691,0.00000561,-0.00155125,-0.00209246
 ,-0.00115784,0.00047069,-0.00207695,0.00115207,0.00048059,0.00181844,-
 0.00000005,-0.03865034,-0.00186425,0.00000003,0.01792993\\-0.00307902,
 -0.00000322,-0.00001188,-0.00008128,-0.00000003,0.00000275,0.00305676,
 0.00000122,-0.00117472,0.00299640,0.00097290,0.00060920,0.00299597,-0.
 00097330,0.00060231,-0.00169255,0.00000431,-0.00003749,-0.00419627,-0.
 00000189,0.00000982\\\@


 YOU CAN WIPE THE SLATE CLEAN, BUT YOU'LL STILL
 HAVE TO EAT A LITTLE CHALK DUST.
 Job cpu time:       0 days  0 hours  3 minutes 51.7 seconds.
 Elapsed time:       0 days  0 hours  0 minutes  9.9 seconds.
 File lengths (MBytes):  RWF=     88 Int=      0 D2E=      0 Chk=      2 Scr=      2
 Normal termination of Gaussian 16 at Sun Oct 13 09:47:22 2024.
