RxCoord=-7.98676 DE=0.72                                                
Freq      RB3LYP                                                      6-31++G(d,p)        
Number of atoms                            I                7
Info1-9                                    I   N=           9
          16          16           0           0           0         100
           6          18        -502
Full Title                                 C   N=           2
RxCoord=-7.98676 DE=0.72
Route                                      C   N=           6
#p b3lyp 6-31++g(d,p) scf=verytight NoSymm freq=noraman int=
ultrafine   
Charge                                     I               -1
Multiplicity                               I                1
Number of electrons                        I               40
Number of alpha electrons                  I               20
Number of beta electrons                   I               20
Number of basis functions                  I               98
Number of independent functions            I               98
Number of point charges in /Mol/           I                0
Number of translation vectors              I                0
Atomic numbers                             I   N=           7
           6          17           1           1           1           6
           7
Nuclear charges                            R   N=           7
  6.00000000E+00  1.70000000E+01  1.00000000E+00  1.00000000E+00  1.00000000E+00
  6.00000000E+00  7.00000000E+00
Current cartesian coordinates              R   N=          21
  1.57532861E+00  7.36993189E-05  5.36493247E-03 -4.71261035E+00 -3.77945225E-06
 -2.09192682E-03  8.53980464E-01  4.20086117E-03 -1.92676476E+00  8.57559605E-01
  1.67183503E+00  9.76769198E-01  8.57497244E-01 -1.67580346E+00  9.69588239E-01
  4.32820793E+00  3.59047964E-05  1.37005144E-03  6.52449865E+00 -1.00155485E-04
 -1.95586654E-03
Number of symbols in /Mol/                 I                0
Force Field                                I                0
Atom Types                                 C   N=           7
                                                            
                        
Int Atom Types                             I   N=           7
           0           0           0           0           0           0
           0
MM charges                                 R   N=           7
  0.00000000E+00  0.00000000E+00  0.00000000E+00  0.00000000E+00  0.00000000E+00
  0.00000000E+00  0.00000000E+00
Integer atomic weights                     I   N=           7
          12          35           1           1           1          12
          14
Real atomic weights                        R   N=           7
  1.20000000E+01  3.49688527E+01  1.00782504E+00  1.00782504E+00  1.00782504E+00
  1.20000000E+01  1.40030740E+01
Atom fragment info                         I   N=           7
           0           0           0           0           0           0
           0
Atom residue num                           I   N=           7
           0           0           0           0           0           0
           0
Nuclear spins                              I   N=           7
           0           3           1           1           1           0
           2
Nuclear ZEff                               R   N=           7
 -3.60000000E+00 -1.42400000E+01 -1.00000000E+00 -1.00000000E+00 -1.00000000E+00
 -3.60000000E+00 -4.55000000E+00
Nuclear ZNuc                               R   N=           7
  6.00000000E+00  1.70000000E+01  1.00000000E+00  1.00000000E+00  1.00000000E+00
  6.00000000E+00  7.00000000E+00
Nuclear QMom                               R   N=           7
  0.00000000E+00 -8.16500000E+00  0.00000000E+00  0.00000000E+00  0.00000000E+00
  0.00000000E+00  2.04400000E+00
Nuclear GFac                               R   N=           7
  0.00000000E+00  8.21874000E-01  2.79284600E+00  2.79284600E+00  2.79284600E+00
  0.00000000E+00  4.03761000E-01
MicOpt                                     I   N=           7
          -1          -1          -1          -1          -1          -1
          -1
Number of residues                         I                0
Number of secondary structures             I                0
Number of contracted shells                I               33
Number of primitive shells                 I               72
Pure/Cartesian d shells                    I                1
Pure/Cartesian f shells                    I                0
Highest angular momentum                   I                2
Largest degree of contraction              I                6
Shell types                                I   N=          33
           0          -1          -1          -1           2           0
          -1          -1          -1          -1           2           0
           0           0           1           0           0           0
           1           0           0           0           1           0
          -1          -1          -1           2           0          -1
          -1          -1           2
Number of primitives per shell             I   N=          33
           6           3           1           1           1           6
           6           3           1           1           1           3
           1           1           1           3           1           1
           1           3           1           1           1           6
           3           1           1           1           6           3
           1           1           1
Shell to atom map                          I   N=          33
           1           1           1           1           1           2
           2           2           2           2           2           3
           3           3           3           4           4           4
           4           5           5           5           5           6
           6           6           6           6           7           7
           7           7           7
Primitive exponents                        R   N=          72
  3.04752488E+03  4.57369518E+02  1.03948685E+02  2.92101553E+01  9.28666296E+00
  3.16392696E+00  7.86827235E+00  1.88128854E+00  5.44249258E-01  1.68714478E-01
  4.38000000E-02  8.00000000E-01  2.51801000E+04  3.78035000E+03  8.60474000E+02
  2.42145000E+02  7.73349000E+01  2.62470000E+01  4.91765000E+02  1.16984000E+02
  3.74153000E+01  1.37834000E+01  5.45215000E+00  2.22588000E+00  3.18649000E+00
  1.14427000E+00  4.20377000E-01  1.42657000E-01  4.83000000E-02  7.50000000E-01
  1.87311370E+01  2.82539436E+00  6.40121692E-01  1.61277759E-01  3.60000000E-02
  1.10000000E+00  1.87311370E+01  2.82539436E+00  6.40121692E-01  1.61277759E-01
  3.60000000E-02  1.10000000E+00  1.87311370E+01  2.82539436E+00  6.40121692E-01
  1.61277759E-01  3.60000000E-02  1.10000000E+00  3.04752488E+03  4.57369518E+02
  1.03948685E+02  2.92101553E+01  9.28666296E+00  3.16392696E+00  7.86827235E+00
  1.88128854E+00  5.44249258E-01  1.68714478E-01  4.38000000E-02  8.00000000E-01
  4.17351146E+03  6.27457911E+02  1.42902093E+02  4.02343293E+01  1.28202129E+01
  4.39043701E+00  1.16263619E+01  2.71627981E+00  7.72218397E-01  2.12031498E-01
  6.39000000E-02  8.00000000E-01
Contraction coefficients                   R   N=          72
  1.83473713E-03  1.40373228E-02  6.88426223E-02  2.32184443E-01  4.67941348E-01
  3.62311985E-01 -1.19332420E-01 -1.60854152E-01  1.14345644E+00  1.00000000E+00
  1.00000000E+00  1.00000000E+00  1.83295985E-03  1.40341988E-02  6.90973943E-02
  2.37451980E-01  4.83033960E-01  3.39855972E-01 -2.29739142E-03 -3.07137189E-02
 -1.12528069E-01  4.50163278E-02  5.89353363E-01  4.65206287E-01 -2.51828028E-01
  6.15892514E-02  1.06018433E+00  1.00000000E+00  1.00000000E+00  1.00000000E+00
  3.34946043E-02  2.34726953E-01  8.13757326E-01  1.00000000E+00  1.00000000E+00
  1.00000000E+00  3.34946043E-02  2.34726953E-01  8.13757326E-01  1.00000000E+00
  1.00000000E+00  1.00000000E+00  3.34946043E-02  2.34726953E-01  8.13757326E-01
  1.00000000E+00  1.00000000E+00  1.00000000E+00  1.83473713E-03  1.40373228E-02
  6.88426223E-02  2.32184443E-01  4.67941348E-01  3.62311985E-01 -1.19332420E-01
 -1.60854152E-01  1.14345644E+00  1.00000000E+00  1.00000000E+00  1.00000000E+00
  1.83477216E-03  1.39946270E-02  6.85865518E-02  2.32240873E-01  4.69069948E-01
  3.60455199E-01 -1.14961182E-01 -1.69117479E-01  1.14585195E+00  1.00000000E+00
  1.00000000E+00  1.00000000E+00
P(S=P) Contraction coefficients            R   N=          72
  0.00000000E+00  0.00000000E+00  0.00000000E+00  0.00000000E+00  0.00000000E+00
  0.00000000E+00  6.89990666E-02  3.16423961E-01  7.44308291E-01  1.00000000E+00
  1.00000000E+00  0.00000000E+00  0.00000000E+00  0.00000000E+00  0.00000000E+00
  0.00000000E+00  0.00000000E+00  0.00000000E+00  3.98940088E-03  3.03177067E-02
  1.29880029E-01  3.27951072E-01  4.53527100E-01  2.52154056E-01 -1.42993147E-02
  3.23572333E-01  7.43507765E-01  1.00000000E+00  1.00000000E+00  0.00000000E+00
  0.00000000E+00  0.00000000E+00  0.00000000E+00  0.00000000E+00  0.00000000E+00
  0.00000000E+00  0.00000000E+00  0.00000000E+00  0.00000000E+00  0.00000000E+00
  0.00000000E+00  0.00000000E+00  0.00000000E+00  0.00000000E+00  0.00000000E+00
  0.00000000E+00  0.00000000E+00  0.00000000E+00  0.00000000E+00  0.00000000E+00
  0.00000000E+00  0.00000000E+00  0.00000000E+00  0.00000000E+00  6.89990666E-02
  3.16423961E-01  7.44308291E-01  1.00000000E+00  1.00000000E+00  0.00000000E+00
  0.00000000E+00  0.00000000E+00  0.00000000E+00  0.00000000E+00  0.00000000E+00
  0.00000000E+00  6.75797439E-02  3.23907296E-01  7.40895140E-01  1.00000000E+00
  1.00000000E+00  0.00000000E+00
Coordinates of each shell                  R   N=          99
  1.57532861E+00  7.36993189E-05  5.36493247E-03  1.57532861E+00  7.36993189E-05
  5.36493247E-03  1.57532861E+00  7.36993189E-05  5.36493247E-03  1.57532861E+00
  7.36993189E-05  5.36493247E-03  1.57532861E+00  7.36993189E-05  5.36493247E-03
 -4.71261035E+00 -3.77945225E-06 -2.09192682E-03 -4.71261035E+00 -3.77945225E-06
 -2.09192682E-03 -4.71261035E+00 -3.77945225E-06 -2.09192682E-03 -4.71261035E+00
 -3.77945225E-06 -2.09192682E-03 -4.71261035E+00 -3.77945225E-06 -2.09192682E-03
 -4.71261035E+00 -3.77945225E-06 -2.09192682E-03  8.53980464E-01  4.20086117E-03
 -1.92676476E+00  8.53980464E-01  4.20086117E-03 -1.92676476E+00  8.53980464E-01
  4.20086117E-03 -1.92676476E+00  8.53980464E-01  4.20086117E-03 -1.92676476E+00
  8.57559605E-01  1.67183503E+00  9.76769198E-01  8.57559605E-01  1.67183503E+00
  9.76769198E-01  8.57559605E-01  1.67183503E+00  9.76769198E-01  8.57559605E-01
  1.67183503E+00  9.76769198E-01  8.57497244E-01 -1.67580346E+00  9.69588239E-01
  8.57497244E-01 -1.67580346E+00  9.69588239E-01  8.57497244E-01 -1.67580346E+00
  9.69588239E-01  8.57497244E-01 -1.67580346E+00  9.69588239E-01  4.32820793E+00
  3.59047964E-05  1.37005144E-03  4.32820793E+00  3.59047964E-05  1.37005144E-03
  4.32820793E+00  3.59047964E-05  1.37005144E-03  4.32820793E+00  3.59047964E-05
  1.37005144E-03  4.32820793E+00  3.59047964E-05  1.37005144E-03  6.52449865E+00
 -1.00155485E-04 -1.95586654E-03  6.52449865E+00 -1.00155485E-04 -1.95586654E-03
  6.52449865E+00 -1.00155485E-04 -1.95586654E-03  6.52449865E+00 -1.00155485E-04
 -1.95586654E-03  6.52449865E+00 -1.00155485E-04 -1.95586654E-03
Num ILSW                                   I              100
ILSW                                       I   N=         100
           0           1           0           0           2           0
           0           0           0           0         402          -1
           5           0           0           0           2           0
           0           0           0           0           1           0
           1           1           0           0           0           0
           0           0      100000           0          -1           0
           0           0           0           0           0           0
           0           0           0           1           0           0
           0 -2000000000           1           0           0           0
           0           0           4          52           0           0
           0           0           5           0           0           0
           0           0           0           7           0           1
           0           0           0           0           0           0
           0           0           0           0           0           0
           0           0           0           0           0           0
           0           0           0           0           0           0
           0           0           0           0
Num RLSW                                   I               52
RLSW                                       R   N=          52
  8.00000000E-01  7.20000000E-01  1.00000000E+00  8.10000000E-01  2.00000000E-01
  0.00000000E+00  0.00000000E+00  1.00000000E+00  0.00000000E+00  0.00000000E+00
  0.00000000E+00  0.00000000E+00  1.00000000E+00  0.00000000E+00  0.00000000E+00
  0.00000000E+00  0.00000000E+00  1.00000000E+00  0.00000000E+00  0.00000000E+00
  0.00000000E+00  0.00000000E+00  1.00000000E+00  0.00000000E+00  0.00000000E+00
  0.00000000E+00  0.00000000E+00  1.00000000E+00  0.00000000E+00  0.00000000E+00
  0.00000000E+00  0.00000000E+00  1.00000000E+00  0.00000000E+00  0.00000000E+00
  0.00000000E+00  0.00000000E+00  0.00000000E+00  1.00000000E+00  1.00000000E+00
  0.00000000E+00  1.00000000E+00  0.00000000E+00  0.00000000E+00  0.00000000E+00
  0.00000000E+00  0.00000000E+00  0.00000000E+00  0.00000000E+00  0.00000000E+00
  0.00000000E+00  0.00000000E+00
MxBond                                     I                4
NBond                                      I   N=           7
           4           0           1           1           1           2
           1
IBond                                      I   N=          28
           3           4           5           6           0           0
           0           0           1           0           0           0
           1           0           0           0           1           0
           0           0           1           7           0           0
           6           0           0           0
RBond                                      R   N=          28
  1.00000000E+00  1.00000000E+00  1.00000000E+00  1.00000000E+00  0.00000000E+00
  0.00000000E+00  0.00000000E+00  0.00000000E+00  1.00000000E+00  0.00000000E+00
  0.00000000E+00  0.00000000E+00  1.00000000E+00  0.00000000E+00  0.00000000E+00
  0.00000000E+00  1.00000000E+00  0.00000000E+00  0.00000000E+00  0.00000000E+00
  1.00000000E+00  3.00000000E+00  0.00000000E+00  0.00000000E+00  3.00000000E+00
  0.00000000E+00  0.00000000E+00  0.00000000E+00
Virial Ratio                               R      2.004710391433997E+00
SCF Energy                                 R     -5.930600327778460E+02
Total Energy                               R     -5.930600327778460E+02
RMS Force                                  R      1.708073501489375E-03
RMS Density                                R      1.832014377111626E-09
NImag                                      I                2
Job Status                                 I                1
Nuclear derivative order                   I                2
External E-field                           R   N=          35
  0.00000000E+00  0.00000000E+00  0.00000000E+00  0.00000000E+00  0.00000000E+00
  0.00000000E+00  0.00000000E+00  0.00000000E+00  0.00000000E+00  0.00000000E+00
  0.00000000E+00  0.00000000E+00  0.00000000E+00  0.00000000E+00  0.00000000E+00
  0.00000000E+00  0.00000000E+00  0.00000000E+00  0.00000000E+00  0.00000000E+00
  0.00000000E+00  0.00000000E+00  0.00000000E+00  0.00000000E+00  0.00000000E+00
  0.00000000E+00  0.00000000E+00  0.00000000E+00  0.00000000E+00  0.00000000E+00
  0.00000000E+00  0.00000000E+00  0.00000000E+00  0.00000000E+00  0.00000000E+00
IOpCl                                      I                0
IROHF                                      I                0
Alpha Orbital Energies                     R   N=          98
 -1.01254624E+02 -1.42304526E+01 -1.01275615E+01 -1.00991068E+01 -9.16800676E+00
 -6.92583214E+00 -6.92583145E+00 -6.92572897E+00 -8.00198745E-01 -6.46095340E-01
 -5.05869433E-01 -3.83794883E-01 -3.29618336E-01 -3.29575775E-01 -2.60760364E-01
 -2.19178539E-01 -2.19174601E-01 -5.29396015E-02 -5.19406288E-02 -5.19374268E-02
  9.98197644E-02  1.34499139E-01  1.34568215E-01  1.42408457E-01  1.45744888E-01
  1.45763801E-01  1.98522119E-01  2.04495287E-01  2.04543202E-01  2.19430041E-01
  2.30037687E-01  2.30115513E-01  2.51338509E-01  2.59128045E-01  2.59175088E-01
  2.90015084E-01  3.26231817E-01  3.34266094E-01  3.34284411E-01  3.41258571E-01
  3.41310447E-01  3.46137326E-01  3.93470905E-01  4.07769863E-01  4.83415515E-01
  6.91781824E-01  7.85156503E-01  7.85164718E-01  8.44182883E-01  8.44270974E-01
  8.49626501E-01  8.49717733E-01  8.52970839E-01  8.83847659E-01  9.85428575E-01
  1.02285250E+00  1.02295178E+00  1.02391106E+00  1.09749375E+00  1.11687971E+00
  1.11689499E+00  1.15403190E+00  1.15403988E+00  1.15913886E+00  1.15914855E+00
  1.20355599E+00  1.24195620E+00  1.27094438E+00  1.45050865E+00  1.45056852E+00
  1.53732593E+00  1.62422469E+00  1.62422887E+00  1.85958437E+00  1.85964664E+00
  1.89646703E+00  2.05111609E+00  2.05112367E+00  2.14472596E+00  2.23279327E+00
  2.23287665E+00  2.30295946E+00  2.39440309E+00  2.39449734E+00  2.76048897E+00
  2.79903112E+00  2.79905174E+00  3.04845334E+00  3.08693496E+00  3.08714943E+00
  3.28105891E+00  3.44876860E+00  3.54786295E+00  3.54789312E+00  4.24708414E+00
  4.43718357E+00  4.57491574E+00  4.80621696E+00
Alpha MO coefficients                      R   N=        9604
  6.10865241E-07  3.78143831E-06 -6.71503969E-06  1.72554462E-10  1.18197931E-08
  4.49989954E-05  5.40315742E-05 -1.63296330E-09 -9.73362060E-08  1.17035742E-03
  3.93546515E-04 -3.77279591E-09 -4.35960062E-07 -2.20458931E-06  3.23202001E-06
  3.21671337E-06  3.98884264E-11  2.69027621E-09  1.21593473E-10  9.95997994E-01
  1.51389354E-02  4.77680073E-06  6.72163560E-12  5.32620519E-09 -2.10654001E-02
 -1.33810094E-05 -9.17093221E-11 -1.38292631E-08  1.99114496E-03  3.35743497E-05
  1.76227080E-10  2.79997481E-08 -3.22963519E-04 -3.22079283E-05  1.07403567E-09
  7.27058945E-08  7.50258201E-03  7.50170196E-03  7.50170171E-03  6.20607263E-11
  5.09013128E-09 -4.62942712E-13  6.42347872E-06 -1.75260652E-05  5.87370921E-05
 -1.33922263E-08  6.17712511E-09 -2.78382755E-06  6.45822343E-06 -1.73961726E-05
  5.84240337E-05 -1.25382076E-07  2.38429669E-06  1.40305230E-06  6.45753902E-06
 -1.73983629E-05  5.84332256E-05 -1.23653885E-07 -2.39042522E-06  1.39318232E-06
  1.37257987E-06  5.55752049E-06  1.20519938E-06 -2.05771346E-10  5.88352051E-09
 -7.51851453E-05  2.81476422E-05  9.71156600E-10 -6.32011154E-08 -1.40074004E-03
  3.83323659E-04 -2.50941902E-09 -7.59141815E-07  4.34835496E-07  2.48218348E-06
  2.48466671E-06  1.47026009E-10  5.46075999E-09 -1.37080633E-11  6.69678922E-07
  2.10480580E-06 -1.26244743E-07 -4.84339809E-11  2.68174487E-09 -2.00626161E-05
 -1.94533678E-06 -2.32091571E-10 -9.63077463E-09  1.36563778E-04 -7.89041925E-05
  1.36295349E-09  2.51093883E-07  2.07447472E-06  1.19407242E-06  1.19343972E-06
  6.72590201E-11 -4.42303329E-09  6.21493347E-12  9.58618859E-06 -1.87389933E-04
  2.70400970E-04 -2.23516008E-09 -3.69320147E-07  9.72223289E-04  6.32413162E-04
  1.35924435E-08 -9.25959527E-07  1.00223554E-02  2.64158697E-03 -3.09850202E-09
 -2.42808974E-06  4.72206607E-04  2.70425075E-05  2.70319309E-05  5.93883942E-09
 -7.39446066E-07  1.14741137E-09  2.27210805E-08 -1.44353730E-09  4.37874390E-06
  1.37812596E-10  1.07741472E-08  4.15014186E-06 -2.45463306E-05 -7.61097902E-10
 -5.70608919E-08 -4.46090454E-05  5.41936446E-05  2.16650356E-09  1.04812396E-07
  3.64307543E-04  1.12799194E-04 -1.84034643E-09  4.02912606E-07  1.78560386E-06
 -5.16697280E-06 -5.16282772E-06  3.62808944E-11  2.48697197E-08 -2.92879410E-11
  5.96392153E-07 -7.05451561E-05 -2.27024532E-04 -2.36143735E-06  2.75456424E-09
 -1.97408870E-06  5.95810260E-07 -7.06627247E-05 -2.26105894E-04 -2.38301750E-06
  1.71864839E-06  1.00205866E-06  5.98283251E-07 -7.06423537E-05 -2.26141335E-04
 -2.37890297E-06 -1.72622024E-06  9.94896256E-07  7.68650853E-05  3.25475240E-04
 -5.59369973E-04  3.64241235E-08  8.67356761E-07  1.33023136E-06  1.31508919E-03
 -3.38194673E-08 -1.96675011E-06 -7.55754365E-03  4.18815291E-03 -1.29090572E-07
 -7.88348596E-06 -1.44561068E-03  1.80676427E-05  1.80672017E-05  8.64451677E-08
  2.54173004E-06  4.38841461E-11  9.92763887E-01  3.47145460E-02 -2.14487456E-03
  1.46922921E-07  3.27824702E-06  3.59075356E-03  8.18074239E-04 -6.74115715E-08
 -1.36550324E-06 -3.34376976E-03 -4.28029182E-04  2.67345975E-09  1.40937334E-06
 -7.31258040E-03 -8.36403465E-03 -8.36402859E-03 -7.69752653E-08 -1.84742518E-06
  2.44861096E-11  5.82222247E-03  1.08474884E-04 -4.34160454E-04  1.77367443E-09
  7.87075413E-07  7.09116015E-03  2.53992158E-03 -2.28211732E-08 -4.27612676E-06
  7.54217175E-02  2.65303343E-02 -1.67369130E-07 -2.21587538E-05 -1.02057399E-03
 -2.01429861E-04 -2.01408576E-04  6.88493870E-09  1.39652323E-06  6.69154350E-10
  6.90908077E-08  2.07639950E-07  2.35241281E-05  4.87999245E-10  6.32486887E-08
  9.35696990E-06 -1.41422245E-04 -2.77989560E-09 -3.50664426E-07 -2.92117058E-04
  4.63666909E-04  6.82226500E-09  7.18590798E-07  4.13823110E-03  1.58822200E-03
  5.99821477E-08  5.83173079E-06  2.85704395E-05 -2.56437331E-05 -2.56182648E-05
  2.30157902E-09  2.69597144E-07 -4.81308089E-11 -1.20498091E-04 -7.45135017E-04
  7.15821992E-05  4.47908095E-05 -3.00180717E-08  1.25840877E-05 -1.20474448E-04
 -7.45669577E-04  7.87028837E-05  4.43733547E-05 -1.11164113E-05 -6.49486884E-06
 -1.20468412E-04 -7.45673013E-04  7.88447832E-05  4.43628382E-05  1.11426595E-05
 -6.44998374E-06  9.92766292E-01  5.03856535E-02  2.47413791E-04 -5.03117715E-08
 -3.40601823E-07 -1.05204515E-02  7.38541961E-03 -1.74571723E-07 -1.11798717E-05
 -8.31660362E-02  2.33361171E-02 -2.79771061E-07 -5.30189606E-05 -7.84173010E-03
 -9.89676886E-03 -9.89674149E-03 -1.10998309E-07 -3.48009845E-06  7.22932823E-10
 -4.71782425E-04  3.34975516E-04  3.33451611E-04 -2.33996078E-08 -2.48460084E-07
 -7.64916354E-03  3.13165932E-03 -2.73241489E-07 -6.10068993E-06  8.13129004E-03
 -6.21602944E-03  1.74498190E-07  1.80156246E-05 -2.51263213E-05  3.30662459E-04
  3.30668120E-04  5.68533255E-08  6.03513938E-07 -9.53903365E-11  9.93016632E-01
  5.06449779E-02  7.52127980E-04 -2.67077113E-09  2.92403732E-07 -2.45468120E-02
 -4.59876530E-03  4.80411090E-08  4.15651115E-06  4.51235184E-02  1.89489127E-02
 -5.38251840E-08 -1.55332059E-05 -8.94311824E-03 -8.86393413E-03 -8.86391441E-03
 -2.85442046E-09 -7.08513751E-08  2.54465691E-09  9.65589948E-07  1.46414881E-05
  5.48316394E-06  7.99646979E-10  6.15935390E-08  4.81898398E-05 -3.03428402E-05
 -4.49237540E-09 -3.59551886E-07 -3.60081931E-04  2.04276125E-04  9.21833182E-09
  9.80388446E-07  3.65634298E-03  1.45593088E-03  5.68501556E-08  4.50677303E-06
  2.09869130E-05  2.38981874E-05  2.38458326E-05  3.12098500E-09  2.66604809E-07
  6.94546637E-10  3.20098501E-06  3.18499587E-03  2.01485185E-04  2.59832071E-05
  2.63826767E-07 -1.22197490E-04  3.16334774E-06  3.18580750E-03  2.11724482E-04
  2.62213966E-05  1.05898315E-04  6.14238411E-05  3.15380999E-06  3.18586256E-03
  2.11863090E-04  2.62320459E-05 -1.06153489E-04  6.09692556E-05 -6.12215884E-03
 -4.42324632E-04  2.68393035E-04 -3.23030297E-09 -3.19277466E-07  3.54082476E-03
 -9.48793699E-03  2.64163577E-07  1.47355387E-05 -5.25380974E-02  1.33624972E-02
 -2.23671607E-07 -3.49533917E-05 -8.35240604E-04 -3.17188581E-06 -3.21561150E-06
  2.89463684E-08  1.41801205E-06 -7.05362531E-10 -1.82634032E-05 -5.08936612E-05
 -2.48277625E-04  1.04657522E-08  6.31185406E-07  5.37003836E-03 -1.77183852E-03
  2.33782074E-07  1.35063734E-06  4.91141444E-03 -2.50721493E-03  8.57131081E-08
  1.09118458E-05  1.48600805E-04 -7.51444662E-05 -7.51330973E-05 -4.50864510E-08
 -3.86506038E-07  3.59322698E-10  5.35794849E-05  3.37980841E-04  1.68410086E-04
  6.73029206E-09  1.80120640E-07 -4.45231773E-03 -3.69266623E-03 -1.00552679E-08
  7.62811665E-06  1.19182244E-02  5.82818002E-03 -2.41674097E-09  4.63861256E-06
 -1.70544795E-04  9.92480649E-05  9.89312652E-05 -2.26249389E-10  2.67989499E-07
  1.17085772E-11 -2.84643399E-01  1.02264490E+00  2.53453183E-04 -1.97422064E-09
  2.52413802E-07  7.49860406E-02  3.96561795E-04  3.01687097E-09  4.40605289E-07
 -2.05968164E-02 -1.15073768E-03 -8.04130989E-09 -1.01266580E-06  1.06194706E-02
  3.30139186E-03  9.66506224E-09  1.52230162E-06 -1.56678519E-02 -1.56701010E-02
 -1.56700056E-02 -1.49395880E-09 -6.90512395E-08 -6.47497417E-10  2.07497466E-06
 -8.08161701E-04 -2.79535006E-03  1.14420910E-04  1.30677714E-07 -6.00986058E-05
  3.64404396E-06 -8.17699220E-04 -2.77060606E-03  1.14990179E-04  5.28089627E-05
  3.04433192E-05  3.60297410E-06 -8.17631866E-04 -2.77108336E-03  1.14983338E-04
 -5.29291827E-05  3.02141007E-05 -3.85549046E-05 -2.49261198E-04 -2.25916095E-05
  1.64498349E-09  4.31472719E-08 -2.16728216E-04 -6.09614407E-03  2.09854030E-07
  8.55891425E-06 -5.42426353E-03  9.46208863E-04 -2.02868799E-07 -1.62461835E-05
  9.09882708E-05 -3.27824618E-05 -3.28615524E-05  3.57068460E-09 -1.62250173E-07
  7.01408680E-10 -1.16854673E-04 -4.69256603E-04  2.58170890E-05 -8.56345502E-09
  6.67735088E-08  5.97989924E-03 -1.82601663E-03  1.72513555E-07  2.34810184E-06
 -1.95264585E-03  9.47119607E-04  2.97007590E-08  3.61024500E-06 -1.80940603E-04
 -2.33482335E-04 -2.33449345E-04 -1.29010876E-08 -1.14286955E-07 -3.50430578E-10
 -2.41047053E-07 -1.27301882E-06 -3.88823855E-07  3.02227759E-08 -4.60763175E-06
  1.07704946E-05  3.19630080E-08  3.73682861E-06 -5.69891910E-04 -7.99926061E-05
 -3.16269786E-05 -2.40138554E-06  3.66384556E-04  1.44254785E-08 -3.75007066E-05
  3.70779184E-05 -2.34776923E-07  3.57155382E-05  6.64293614E-09 -1.56532982E-07
  3.94417316E-07 -2.44041728E-03 -6.48973489E-03  9.90810163E-01 -6.43487890E-07
 -7.32077310E-05 -1.93815089E-04  2.95904494E-02  3.07240281E-06  2.83418017E-05
  7.44433762E-05 -1.13655953E-02 -1.14555124E-05 -1.59105938E-05 -3.12627215E-05
  4.77340389E-03 -3.93539096E-07  2.84140845E-06 -3.07162696E-06 -2.74861553E-07
  4.19959839E-05 -1.29075930E-09  1.34888744E-04 -9.09959290E-04  3.93298935E-03
 -1.06806206E-05  1.66187270E-07 -9.65792934E-05 -6.61753641E-05  4.42440565E-04
 -1.95258202E-03  5.33547131E-06 -4.49036440E-05 -1.70375206E-05 -6.72035245E-05
  4.49367594E-04 -1.98262722E-03  5.41704450E-06  4.55954378E-05 -1.72470193E-05
 -3.87894905E-08 -1.29828214E-07 -2.68818839E-08 -2.05202011E-07  3.13508102E-05
 -6.93123896E-06 -1.28540982E-06  1.76475704E-07 -2.75154785E-05  9.82089732E-05
 -3.43186454E-05 -7.36333188E-06  1.13050417E-03 -4.20322941E-07 -4.17834042E-06
  4.25100799E-06  1.15300929E-07 -1.76698052E-05  8.05187793E-10 -1.52089042E-07
 -6.05119367E-07  4.93126096E-08  5.51201906E-08 -8.67858680E-06  5.86424009E-06
 -3.12322603E-06 -3.53490267E-07  5.53340313E-05 -2.45643439E-06  7.76287975E-06
  2.79696024E-06 -4.31837552E-04  3.86438920E-08  2.61389287E-06 -3.38753034E-06
  2.79915169E-08 -4.28597436E-06 -6.92796046E-10 -6.13366859E-09 -4.00665986E-08
 -1.42400403E-08 -5.16026212E-06 -3.37699924E-08  5.47135190E-07  2.56302887E-07
 -5.63669499E-04 -3.68821313E-06  3.99233851E-06  1.48907738E-06  3.57497989E-04
  2.33845889E-06  1.38533091E-08 -8.00900957E-09  2.36885739E-10  3.50857933E-05
  2.28940314E-07 -4.26350388E-05 -8.81045801E-09  2.28543842E-08 -8.51613136E-05
  9.90813308E-01  6.48954557E-03 -2.52178491E-08 -2.57675300E-06  2.95898330E-02
  1.93805164E-04  1.24673354E-07  1.06047725E-06 -1.13637034E-02 -7.44293850E-05
  8.33286561E-09 -3.92141191E-07  4.76893711E-03  3.12384200E-05 -1.45521110E-08
 -1.54454258E-08 -1.53280538E-08  4.19707420E-05  2.75132351E-07  3.54796116E-06
  6.04974204E-07 -4.05519825E-06  1.73653835E-05 -5.51577049E-08  8.80416127E-06
 -4.07512011E-07 -1.16886451E-04  7.79996299E-04 -3.39286253E-03  9.33206852E-06
 -6.95891297E-05 -4.54544712E-05  1.16317118E-04 -7.76253285E-04  3.37586652E-03
 -9.29985083E-06 -6.93951250E-05  4.50101419E-05  7.09765236E-09  3.57135472E-08
 -3.15094779E-12  3.11605705E-05  2.04232166E-07 -1.87745480E-07  4.81561537E-07
 -2.78420070E-05 -1.87036172E-07 -4.48688058E-06  1.18727535E-06  1.12514329E-03
  7.40709502E-06 -3.00297678E-09  1.06262109E-08  1.14553503E-08 -1.74911361E-05
 -1.15003953E-07 -4.75590415E-06  4.68558337E-09  2.18741974E-08 -1.79352333E-09
 -8.64305813E-06 -5.83280769E-08 -3.45148932E-07  1.13671118E-07  5.51013892E-05
  3.69474475E-07  2.20240540E-07 -1.45373570E-07 -4.28756729E-04 -2.83894121E-06
  4.54662302E-09  8.14916601E-09  7.75062091E-09 -4.29373170E-06 -2.81715465E-08
  3.45600360E-06  2.55670305E-05  3.27762691E-04  2.11336276E-04  7.60699993E-09
  6.68857140E-08 -6.97605342E-03 -5.89570962E-03 -9.18878142E-09  1.14699403E-05
 -9.42539873E-02 -3.62012316E-02  2.49606273E-07  2.82611345E-05 -3.44869041E-04
 -8.09858409E-06 -8.36092659E-06  3.00426316E-09  4.68737293E-07 -3.12620744E-09
  1.07287564E-04 -2.58328591E-04  9.90724403E-01  6.91801159E-05  2.44080552E-03
  3.54328051E-04  3.01661370E-02  2.07387010E-06  7.38452039E-05 -1.54422298E-03
 -1.29900051E-02 -8.12024421E-07 -3.00887735E-05 -3.65554065E-03  3.13675188E-03
  2.35398517E-07  3.36389415E-06  1.63633438E-04  2.44108395E-04  2.44112536E-04
 -2.30948031E-09 -3.93840183E-07  2.77058783E-11 -9.67324150E-05 -3.85474253E-04
 -2.54986437E-03  1.88859595E-04  7.69437383E-08 -3.57560751E-05 -9.55174454E-05
 -3.95570319E-04 -2.55836018E-03  1.90734749E-04  3.21150039E-05  1.81416801E-05
 -9.55495284E-05 -3.95556641E-04 -2.55818574E-03  1.90711102E-04 -3.21863487E-05
  1.80012126E-05 -1.51340052E-04 -7.54688234E-04  2.42057472E-05  1.49037815E-08