RxCoord=-7.88677 DE=0.77                                                
Freq      RB3LYP                                                      6-31++G(d,p)        
Number of atoms                            I                7
Info1-9                                    I   N=           9
          16          16           0           0           0         100
           6          18        -502
Full Title                                 C   N=           2
RxCoord=-7.88677 DE=0.77
Route                                      C   N=           6
#p b3lyp 6-31++g(d,p) scf=verytight NoSymm freq=noraman int=
ultrafine   
Charge                                     I               -1
Multiplicity                               I                1
Number of electrons                        I               40
Number of alpha electrons                  I               20
Number of beta electrons                   I               20
Number of basis functions                  I               98
Number of independent functions            I               98
Number of point charges in /Mol/           I                0
Number of translation vectors              I                0
Atomic numbers                             I   N=           7
           6          17           1           1           1           6
           7
Nuclear charges                            R   N=           7
  6.00000000E+00  1.70000000E+01  1.00000000E+00  1.00000000E+00  1.00000000E+00
  6.00000000E+00  7.00000000E+00
Current cartesian coordinates              R   N=          21
  1.56487464E+00  1.13383567E-04  5.03800985E-03 -4.70019107E+00 -1.32280829E-05
 -1.91429256E-03  8.43454689E-01  4.24999405E-03 -1.92698774E+00  8.46748482E-01
  1.67173866E+00  9.76275980E-01  8.46669113E-01 -1.67566362E+00  9.69062895E-01
  4.31758200E+00  0.00000000E+00  1.21320417E-03  6.51386138E+00 -8.69274017E-05
 -1.89728503E-03
Number of symbols in /Mol/                 I                0
Force Field                                I                0
Atom Types                                 C   N=           7
                                                            
                        
Int Atom Types                             I   N=           7
           0           0           0           0           0           0
           0
MM charges                                 R   N=           7
  0.00000000E+00  0.00000000E+00  0.00000000E+00  0.00000000E+00  0.00000000E+00
  0.00000000E+00  0.00000000E+00
Integer atomic weights                     I   N=           7
          12          35           1           1           1          12
          14
Real atomic weights                        R   N=           7
  1.20000000E+01  3.49688527E+01  1.00782504E+00  1.00782504E+00  1.00782504E+00
  1.20000000E+01  1.40030740E+01
Atom fragment info                         I   N=           7
           0           0           0           0           0           0
           0
Atom residue num                           I   N=           7
           0           0           0           0           0           0
           0
Nuclear spins                              I   N=           7
           0           3           1           1           1           0
           2
Nuclear ZEff                               R   N=           7
 -3.60000000E+00 -1.42400000E+01 -1.00000000E+00 -1.00000000E+00 -1.00000000E+00
 -3.60000000E+00 -4.55000000E+00
Nuclear ZNuc                               R   N=           7
  6.00000000E+00  1.70000000E+01  1.00000000E+00  1.00000000E+00  1.00000000E+00
  6.00000000E+00  7.00000000E+00
Nuclear QMom                               R   N=           7
  0.00000000E+00 -8.16500000E+00  0.00000000E+00  0.00000000E+00  0.00000000E+00
  0.00000000E+00  2.04400000E+00
Nuclear GFac                               R   N=           7
  0.00000000E+00  8.21874000E-01  2.79284600E+00  2.79284600E+00  2.79284600E+00
  0.00000000E+00  4.03761000E-01
MicOpt                                     I   N=           7
          -1          -1          -1          -1          -1          -1
          -1
Number of residues                         I                0
Number of secondary structures             I                0
Number of contracted shells                I               33
Number of primitive shells                 I               72
Pure/Cartesian d shells                    I                1
Pure/Cartesian f shells                    I                0
Highest angular momentum                   I                2
Largest degree of contraction              I                6
Shell types                                I   N=          33
           0          -1          -1          -1           2           0
          -1          -1          -1          -1           2           0
           0           0           1           0           0           0
           1           0           0           0           1           0
          -1          -1          -1           2           0          -1
          -1          -1           2
Number of primitives per shell             I   N=          33
           6           3           1           1           1           6
           6           3           1           1           1           3
           1           1           1           3           1           1
           1           3           1           1           1           6
           3           1           1           1           6           3
           1           1           1
Shell to atom map                          I   N=          33
           1           1           1           1           1           2
           2           2           2           2           2           3
           3           3           3           4           4           4
           4           5           5           5           5           6
           6           6           6           6           7           7
           7           7           7
Primitive exponents                        R   N=          72
  3.04752488E+03  4.57369518E+02  1.03948685E+02  2.92101553E+01  9.28666296E+00
  3.16392696E+00  7.86827235E+00  1.88128854E+00  5.44249258E-01  1.68714478E-01
  4.38000000E-02  8.00000000E-01  2.51801000E+04  3.78035000E+03  8.60474000E+02
  2.42145000E+02  7.73349000E+01  2.62470000E+01  4.91765000E+02  1.16984000E+02
  3.74153000E+01  1.37834000E+01  5.45215000E+00  2.22588000E+00  3.18649000E+00
  1.14427000E+00  4.20377000E-01  1.42657000E-01  4.83000000E-02  7.50000000E-01
  1.87311370E+01  2.82539436E+00  6.40121692E-01  1.61277759E-01  3.60000000E-02
  1.10000000E+00  1.87311370E+01  2.82539436E+00  6.40121692E-01  1.61277759E-01
  3.60000000E-02  1.10000000E+00  1.87311370E+01  2.82539436E+00  6.40121692E-01
  1.61277759E-01  3.60000000E-02  1.10000000E+00  3.04752488E+03  4.57369518E+02
  1.03948685E+02  2.92101553E+01  9.28666296E+00  3.16392696E+00  7.86827235E+00
  1.88128854E+00  5.44249258E-01  1.68714478E-01  4.38000000E-02  8.00000000E-01
  4.17351146E+03  6.27457911E+02  1.42902093E+02  4.02343293E+01  1.28202129E+01
  4.39043701E+00  1.16263619E+01  2.71627981E+00  7.72218397E-01  2.12031498E-01
  6.39000000E-02  8.00000000E-01
Contraction coefficients                   R   N=          72
  1.83473713E-03  1.40373228E-02  6.88426223E-02  2.32184443E-01  4.67941348E-01
  3.62311985E-01 -1.19332420E-01 -1.60854152E-01  1.14345644E+00  1.00000000E+00
  1.00000000E+00  1.00000000E+00  1.83295985E-03  1.40341988E-02  6.90973943E-02
  2.37451980E-01  4.83033960E-01  3.39855972E-01 -2.29739142E-03 -3.07137189E-02
 -1.12528069E-01  4.50163278E-02  5.89353363E-01  4.65206287E-01 -2.51828028E-01
  6.15892514E-02  1.06018433E+00  1.00000000E+00  1.00000000E+00  1.00000000E+00
  3.34946043E-02  2.34726953E-01  8.13757326E-01  1.00000000E+00  1.00000000E+00
  1.00000000E+00  3.34946043E-02  2.34726953E-01  8.13757326E-01  1.00000000E+00
  1.00000000E+00  1.00000000E+00  3.34946043E-02  2.34726953E-01  8.13757326E-01
  1.00000000E+00  1.00000000E+00  1.00000000E+00  1.83473713E-03  1.40373228E-02
  6.88426223E-02  2.32184443E-01  4.67941348E-01  3.62311985E-01 -1.19332420E-01
 -1.60854152E-01  1.14345644E+00  1.00000000E+00  1.00000000E+00  1.00000000E+00
  1.83477216E-03  1.39946270E-02  6.85865518E-02  2.32240873E-01  4.69069948E-01
  3.60455199E-01 -1.14961182E-01 -1.69117479E-01  1.14585195E+00  1.00000000E+00
  1.00000000E+00  1.00000000E+00
P(S=P) Contraction coefficients            R   N=          72
  0.00000000E+00  0.00000000E+00  0.00000000E+00  0.00000000E+00  0.00000000E+00
  0.00000000E+00  6.89990666E-02  3.16423961E-01  7.44308291E-01  1.00000000E+00
  1.00000000E+00  0.00000000E+00  0.00000000E+00  0.00000000E+00  0.00000000E+00
  0.00000000E+00  0.00000000E+00  0.00000000E+00  3.98940088E-03  3.03177067E-02
  1.29880029E-01  3.27951072E-01  4.53527100E-01  2.52154056E-01 -1.42993147E-02
  3.23572333E-01  7.43507765E-01  1.00000000E+00  1.00000000E+00  0.00000000E+00
  0.00000000E+00  0.00000000E+00  0.00000000E+00  0.00000000E+00  0.00000000E+00
  0.00000000E+00  0.00000000E+00  0.00000000E+00  0.00000000E+00  0.00000000E+00
  0.00000000E+00  0.00000000E+00  0.00000000E+00  0.00000000E+00  0.00000000E+00
  0.00000000E+00  0.00000000E+00  0.00000000E+00  0.00000000E+00  0.00000000E+00
  0.00000000E+00  0.00000000E+00  0.00000000E+00  0.00000000E+00  6.89990666E-02
  3.16423961E-01  7.44308291E-01  1.00000000E+00  1.00000000E+00  0.00000000E+00
  0.00000000E+00  0.00000000E+00  0.00000000E+00  0.00000000E+00  0.00000000E+00
  0.00000000E+00  6.75797439E-02  3.23907296E-01  7.40895140E-01  1.00000000E+00
  1.00000000E+00  0.00000000E+00
Coordinates of each shell                  R   N=          99
  1.56487464E+00  1.13383567E-04  5.03800985E-03  1.56487464E+00  1.13383567E-04
  5.03800985E-03  1.56487464E+00  1.13383567E-04  5.03800985E-03  1.56487464E+00
  1.13383567E-04  5.03800985E-03  1.56487464E+00  1.13383567E-04  5.03800985E-03
 -4.70019107E+00 -1.32280829E-05 -1.91429256E-03 -4.70019107E+00 -1.32280829E-05
 -1.91429256E-03 -4.70019107E+00 -1.32280829E-05 -1.91429256E-03 -4.70019107E+00
 -1.32280829E-05 -1.91429256E-03 -4.70019107E+00 -1.32280829E-05 -1.91429256E-03
 -4.70019107E+00 -1.32280829E-05 -1.91429256E-03  8.43454689E-01  4.24999405E-03
 -1.92698774E+00  8.43454689E-01  4.24999405E-03 -1.92698774E+00  8.43454689E-01
  4.24999405E-03 -1.92698774E+00  8.43454689E-01  4.24999405E-03 -1.92698774E+00
  8.46748482E-01  1.67173866E+00  9.76275980E-01  8.46748482E-01  1.67173866E+00
  9.76275980E-01  8.46748482E-01  1.67173866E+00  9.76275980E-01  8.46748482E-01
  1.67173866E+00  9.76275980E-01  8.46669113E-01 -1.67566362E+00  9.69062895E-01
  8.46669113E-01 -1.67566362E+00  9.69062895E-01  8.46669113E-01 -1.67566362E+00
  9.69062895E-01  8.46669113E-01 -1.67566362E+00  9.69062895E-01  4.31758200E+00
  0.00000000E+00  1.21320417E-03  4.31758200E+00  0.00000000E+00  1.21320417E-03
  4.31758200E+00  0.00000000E+00  1.21320417E-03  4.31758200E+00  0.00000000E+00
  1.21320417E-03  4.31758200E+00  0.00000000E+00  1.21320417E-03  6.51386138E+00
 -8.69274017E-05 -1.89728503E-03  6.51386138E+00 -8.69274017E-05 -1.89728503E-03
  6.51386138E+00 -8.69274017E-05 -1.89728503E-03  6.51386138E+00 -8.69274017E-05
 -1.89728503E-03  6.51386138E+00 -8.69274017E-05 -1.89728503E-03
Num ILSW                                   I              100
ILSW                                       I   N=         100
           0           1           0           0           2           0
           0           0           0           0         402          -1
           5           0           0           0           2           0
           0           0           0           0           1           0
           1           1           0           0           0           0
           0           0      100000           0          -1           0
           0           0           0           0           0           0
           0           0           0           1           0           0
           0 -2000000000           1           0           0           0
           0           0           4          52           0           0
           0           0           5           0           0           0
           0           0           0           7           0           1
           0           0           0           0           0           0
           0           0           0           0           0           0
           0           0           0           0           0           0
           0           0           0           0           0           0
           0           0           0           0
Num RLSW                                   I               52
RLSW                                       R   N=          52
  8.00000000E-01  7.20000000E-01  1.00000000E+00  8.10000000E-01  2.00000000E-01
  0.00000000E+00  0.00000000E+00  1.00000000E+00  0.00000000E+00  0.00000000E+00
  0.00000000E+00  0.00000000E+00  1.00000000E+00  0.00000000E+00  0.00000000E+00
  0.00000000E+00  0.00000000E+00  1.00000000E+00  0.00000000E+00  0.00000000E+00
  0.00000000E+00  0.00000000E+00  1.00000000E+00  0.00000000E+00  0.00000000E+00
  0.00000000E+00  0.00000000E+00  1.00000000E+00  0.00000000E+00  0.00000000E+00
  0.00000000E+00  0.00000000E+00  1.00000000E+00  0.00000000E+00  0.00000000E+00
  0.00000000E+00  0.00000000E+00  0.00000000E+00  1.00000000E+00  1.00000000E+00
  0.00000000E+00  1.00000000E+00  0.00000000E+00  0.00000000E+00  0.00000000E+00
  0.00000000E+00  0.00000000E+00  0.00000000E+00  0.00000000E+00  0.00000000E+00
  0.00000000E+00  0.00000000E+00
MxBond                                     I                4
NBond                                      I   N=           7
           4           0           1           1           1           2
           1
IBond                                      I   N=          28
           3           4           5           6           0           0
           0           0           1           0           0           0
           1           0           0           0           1           0
           0           0           1           7           0           0
           6           0           0           0
RBond                                      R   N=          28
  1.00000000E+00  1.00000000E+00  1.00000000E+00  1.00000000E+00  0.00000000E+00
  0.00000000E+00  0.00000000E+00  0.00000000E+00  1.00000000E+00  0.00000000E+00
  0.00000000E+00  0.00000000E+00  1.00000000E+00  0.00000000E+00  0.00000000E+00
  0.00000000E+00  1.00000000E+00  0.00000000E+00  0.00000000E+00  0.00000000E+00
  1.00000000E+00  3.00000000E+00  0.00000000E+00  0.00000000E+00  3.00000000E+00
  0.00000000E+00  0.00000000E+00  0.00000000E+00
Virial Ratio                               R      2.004707835012755E+00
SCF Energy                                 R     -5.930600345914672E+02
Total Energy                               R     -5.930600345914672E+02
RMS Force                                  R      1.719908768714656E-03
RMS Density                                R      1.816327586551701E-09
NImag                                      I                2
Job Status                                 I                1
Nuclear derivative order                   I                2
External E-field                           R   N=          35
  0.00000000E+00  0.00000000E+00  0.00000000E+00  0.00000000E+00  0.00000000E+00
  0.00000000E+00  0.00000000E+00  0.00000000E+00  0.00000000E+00  0.00000000E+00
  0.00000000E+00  0.00000000E+00  0.00000000E+00  0.00000000E+00  0.00000000E+00
  0.00000000E+00  0.00000000E+00  0.00000000E+00  0.00000000E+00  0.00000000E+00
  0.00000000E+00  0.00000000E+00  0.00000000E+00  0.00000000E+00  0.00000000E+00
  0.00000000E+00  0.00000000E+00  0.00000000E+00  0.00000000E+00  0.00000000E+00
  0.00000000E+00  0.00000000E+00  0.00000000E+00  0.00000000E+00  0.00000000E+00
IOpCl                                      I                0
IROHF                                      I                0
Alpha Orbital Energies                     R   N=          98
 -1.01254666E+02 -1.42301328E+01 -1.01272288E+01 -1.00986328E+01 -9.16805909E+00
 -6.92588622E+00 -6.92588557E+00 -6.92577505E+00 -7.99898877E-01 -6.45707383E-01
 -5.05983556E-01 -3.83415756E-01 -3.29212242E-01 -3.29170809E-01 -2.60477798E-01
 -2.18857756E-01 -2.18854454E-01 -5.30057337E-02 -5.20419419E-02 -5.20389365E-02
  9.99978019E-02  1.34744574E-01  1.34811969E-01  1.42517252E-01  1.45975839E-01
  1.45995094E-01  1.98624461E-01  2.04662864E-01  2.04708269E-01  2.19432177E-01
  2.30265121E-01  2.30343423E-01  2.51584541E-01  2.59196743E-01  2.59241437E-01
  2.90458500E-01  3.26413092E-01  3.34518436E-01  3.34534624E-01  3.41614175E-01
  3.41659348E-01  3.46797620E-01  3.93577291E-01  4.08075781E-01  4.83674564E-01
  6.91509249E-01  7.85435156E-01  7.85441082E-01  8.44631801E-01  8.44720204E-01
  8.49529821E-01  8.49611850E-01  8.53375713E-01  8.84259583E-01  9.85539867E-01
  1.02319787E+00  1.02329335E+00  1.02515802E+00  1.09759727E+00  1.11731371E+00
  1.11732280E+00  1.15397230E+00  1.15397990E+00  1.15911885E+00  1.15913099E+00
  1.20478340E+00  1.24310837E+00  1.27144941E+00  1.45090491E+00  1.45096590E+00
  1.53768653E+00  1.62452296E+00  1.62452726E+00  1.85993591E+00  1.86001604E+00
  1.89766395E+00  2.05143541E+00  2.05143674E+00  2.14523024E+00  2.23338626E+00
  2.23344131E+00  2.30389693E+00  2.39479407E+00  2.39488283E+00  2.76241768E+00
  2.79941314E+00  2.79944692E+00  3.04909187E+00  3.08740770E+00  3.08763807E+00
  3.28154249E+00  3.44931057E+00  3.54846579E+00  3.54848976E+00  4.24772221E+00
  4.43794628E+00  4.57549194E+00  4.80669410E+00
Alpha MO coefficients                      R   N=        9604
  6.71401334E-07  4.71188875E-06 -6.52220488E-06  2.71729825E-10  1.21648938E-08
  3.72769810E-05  4.83760427E-05 -2.31000339E-09 -8.31462155E-08  1.19434249E-03
  4.04068004E-04 -1.30968898E-08 -4.25592841E-07 -3.04635686E-06  3.27888576E-06
  3.26371202E-06  1.02281173E-12  2.80335809E-09  1.61476317E-10  9.95997990E-01
  1.51389676E-02  4.73758612E-06  7.42251860E-11  5.04735741E-09 -2.10654347E-02
 -1.32746995E-05 -2.04448469E-10 -1.28079365E-08  1.99101309E-03  3.33920749E-05
  3.71232723E-10  2.60071114E-08 -3.21387306E-04 -3.15119337E-05  2.01140782E-09
  7.11003696E-08  7.50261638E-03  7.50177246E-03  7.50177224E-03  1.28816976E-10
  4.78344089E-09 -4.33084289E-12  6.36589253E-06 -1.81998538E-05  5.92344400E-05
  3.84966190E-07  6.64945669E-09 -2.94220399E-06  6.40247705E-06 -1.80862011E-05
  5.89489726E-05  2.78312700E-07  2.52378815E-06  1.48300509E-06  6.40157285E-06
 -1.80891791E-05  5.89554928E-05  2.80842743E-07 -2.53027307E-06  1.47260184E-06
  1.30428537E-06  5.05278173E-06  1.23159573E-06  2.04431644E-10  5.76222419E-09
 -7.62409270E-05  1.69199951E-05 -1.62008367E-09 -4.60803127E-08 -1.43004449E-03
  3.89520792E-04 -2.08994031E-08 -7.44564743E-07  7.52037091E-07  2.40638978E-06
  2.40863132E-06  7.91112343E-11  4.36766671E-09 -3.06271950E-11  5.18324339E-07
  1.42668765E-06 -1.37836491E-08  5.14377685E-11  2.55889327E-09 -1.06417266E-05
 -5.37775456E-06  7.16440701E-11 -4.44402200E-09  1.41124684E-04 -8.02358923E-05
  6.49419877E-09  2.44941456E-07  1.87121110E-06  9.06312936E-07  9.05733326E-07
 -1.59572069E-10 -4.51500534E-09  6.35087806E-12  9.58954668E-06 -1.87393359E-04
  2.70455649E-04 -9.56414956E-09 -3.52127547E-07  9.74338578E-04  6.34295263E-04
 -3.21222306E-08 -9.12641704E-07  1.00808066E-02  2.66944239E-03 -8.82105070E-08
 -2.38127627E-06  4.72353598E-04  2.70470571E-05  2.70356834E-05 -2.25576279E-08
 -7.19068135E-07  8.04649743E-10  2.00402538E-08 -1.40550757E-07  4.42399395E-06
  2.47918570E-10  1.04058625E-08  3.98190335E-06 -2.49047494E-05 -1.31195836E-09
 -5.52340044E-08 -4.31688155E-05  5.58710731E-05  2.52525093E-09  1.02593216E-07
  3.70243320E-04  1.13981764E-04  8.74115425E-09  3.90497433E-07  1.73850208E-06
 -5.54648827E-06 -5.54254666E-06  5.89524153E-10  2.44949912E-08 -5.69026008E-11
  5.51513697E-07 -6.99302442E-05 -2.24946920E-04 -2.42146602E-06  4.62043694E-09
 -1.95271969E-06  5.50685068E-07 -7.00044517E-05 -2.24071822E-04 -2.43822233E-06
  1.70768231E-06  9.96043076E-07  5.51534109E-07 -7.00096620E-05 -2.24106786E-04
 -2.43845785E-06 -1.70912563E-06  9.87563904E-07  7.69491677E-05  3.25788687E-04
 -5.59208677E-04  2.24292023E-08  8.10612296E-07  3.17676873E-07  1.31881379E-03
 -5.32951764E-08 -1.87762013E-06 -7.63135301E-03  4.20774216E-03 -2.11360788E-07
 -7.54394369E-06 -1.44548533E-03  1.81775177E-05  1.81779495E-05  6.75706166E-08
  2.38952506E-06 -1.98828958E-10  9.92763877E-01  3.47150383E-02 -2.14454935E-03
  8.37173782E-08  3.05270385E-06  3.58751464E-03  8.19128286E-04 -3.42161229E-08
 -1.26845675E-06 -3.34059257E-03 -4.30723371E-04  3.67563974E-08  1.36284758E-06
 -7.31271567E-03 -8.36401408E-03 -8.36400816E-03 -4.81354712E-08 -1.72671832E-06
 -1.39324295E-10  5.79708439E-03  1.06827434E-04 -4.34203908E-04  2.69766894E-08
  7.68615177E-07  7.10171599E-03  2.54949514E-03 -1.68086581E-07 -4.18828908E-06
  7.60882131E-02  2.68502704E-02 -7.56958218E-07 -2.16227096E-05 -1.01962431E-03
 -2.00993067E-04 -2.00987008E-04  4.43052049E-08  1.34773127E-06  2.56713151E-09
  5.51127240E-08 -1.68626508E-07  2.37026442E-05  1.42892150E-09  6.15569085E-08
  8.44113041E-06 -1.42758912E-04 -7.87984304E-09 -3.41630390E-07 -2.87987049E-04
  4.71533744E-04  1.54516251E-08  7.06568430E-07  4.22021287E-03  1.61333171E-03
  1.26557391E-07  5.58799764E-06  2.85310106E-05 -2.64709992E-05 -2.64464002E-05
  6.20892631E-09  2.59560606E-07 -4.05943105E-10 -1.20719552E-04 -7.41385018E-04
  8.92102575E-05  4.43988340E-05 -2.48045873E-08  1.27847131E-05 -1.20700530E-04
 -7.41790794E-04  9.63935986E-05  4.39228657E-05 -1.12957164E-05 -6.59148503E-06
 -1.20705668E-04 -7.41819991E-04  9.61119494E-05  4.39511663E-05  1.13116987E-05
 -6.53279162E-06  9.92767059E-01  5.03892086E-02  2.48742436E-04 -1.12084291E-08
 -3.05614671E-07 -1.05292165E-02  7.40616945E-03 -2.97220409E-07 -1.06839281E-05
 -8.39925257E-02  2.35564841E-02 -1.42597458E-06 -5.12880044E-05 -7.84036995E-03
 -9.89602687E-03 -9.89599814E-03 -9.38072685E-08 -3.27638928E-06 -1.76315964E-10
 -4.71526862E-04  3.36348866E-04  3.33758052E-04 -6.16748277E-09 -2.22814838E-07
 -7.66897026E-03  3.14006584E-03 -1.56131963E-07 -5.70021762E-06  8.16336290E-03
 -6.24591005E-03  4.66384347E-07  1.73095666E-05 -2.57570931E-05  3.31352753E-04
  3.31358201E-04  1.42002012E-08  5.42180180E-07 -1.50475995E-10  9.93016618E-01
  5.06462279E-02  7.53103421E-04 -2.95793854E-08  2.19534154E-07 -2.45466500E-02
 -4.59643607E-03  3.10503026E-07  4.26550988E-06  4.54121975E-02  1.91073919E-02
 -3.65500185E-07 -1.50436387E-05 -8.94299910E-03 -8.86449515E-03 -8.86447732E-03
 -8.47314902E-09 -7.74431006E-08  1.33624662E-08  9.89339100E-07  1.47737457E-05
  5.46933817E-06  9.97299511E-10  5.74166442E-08  4.93542474E-05 -3.02524151E-05
 -5.83260266E-09 -3.36193036E-07 -3.61737163E-04  2.03430242E-04  1.48588922E-08
  9.28622728E-07  3.71110527E-03  1.47236974E-03  9.32312485E-08  4.28135126E-06
  2.04006695E-05  2.41754779E-05  2.41251793E-05  5.13685766E-09  2.52146820E-07
  7.68693728E-10  3.20271960E-06  3.18659891E-03  2.08905023E-04  2.59915140E-05
  2.52854644E-07 -1.22027198E-04  3.10749482E-06  3.18711261E-03  2.18785608E-04
  2.62559163E-05  1.05753342E-04  6.13298053E-05  3.14343759E-06  3.18724171E-03
  2.18680527E-04  2.62449670E-05 -1.06016496E-04  6.08643365E-05 -6.09682557E-03
 -4.40151071E-04  2.68592863E-04 -8.83356815E-09 -3.10125853E-07  3.53695258E-03
 -9.48370003E-03  3.64560536E-07  1.39874117E-05 -5.29113190E-02  1.34554728E-02
 -9.62298551E-07 -3.35993833E-05 -8.35543560E-04 -3.02817483E-06 -3.07811291E-06
  4.17209642E-08  1.34782097E-06  5.92702821E-10 -1.81992220E-05 -5.04823446E-05
 -2.48406850E-04  1.52271965E-08  5.99884704E-07  5.36594687E-03 -1.77018584E-03
  4.24277709E-08  1.14958654E-06  4.92548460E-03 -2.51780270E-03  2.80439901E-07
  1.04162831E-05  1.48650559E-04 -7.50253157E-05 -7.50142031E-05 -1.02230943E-08
 -3.41610244E-07  1.79331459E-11  5.37741598E-05  3.39843399E-04  1.71680350E-04
  5.13659650E-09  1.68292659E-07 -4.51408371E-03 -3.74690079E-03  1.54577867E-07
  7.30582746E-06  1.18634903E-02  5.89600603E-03 -1.41725920E-08  4.41563469E-06
 -1.71763487E-04  9.89105947E-05  9.86181523E-05  1.20258477E-08  2.71587268E-07
  3.38778705E-09 -2.84643200E-01  1.02264629E+00  2.50149970E-04  4.14792742E-09
  2.43779755E-07  7.49920458E-02  4.00659106E-04  6.18648004E-09  4.22322438E-07
 -2.06297742E-02 -1.16310400E-03 -1.28399776E-08 -9.66350430E-07  1.07052361E-02
  3.33945535E-03  1.37655386E-08  1.44827048E-06 -1.56661339E-02 -1.56664159E-02
 -1.56663259E-02 -1.78848699E-09 -6.52124316E-08 -8.23179458E-10 -3.44620361E-07
 -8.00643155E-04 -2.79341567E-03  1.15259043E-04  1.22664573E-07 -5.96699711E-05
  1.09312098E-06 -8.09678285E-04 -2.76995877E-03  1.15839664E-04  5.23906994E-05
  3.02077285E-05  1.06082191E-06 -8.09496050E-04 -2.77065577E-03  1.15819163E-04
 -5.25081305E-05  2.99690763E-05 -3.92500289E-05 -2.53082334E-04 -2.26908041E-05
 -1.61576420E-10  4.00197393E-08 -1.90177294E-04 -6.16547835E-03  2.55985598E-07
  8.22635080E-06 -5.45900404E-03  9.39254655E-04 -3.76313170E-07 -1.55400626E-05
  9.17484991E-05 -3.37582845E-05 -3.38317846E-05 -5.89475533E-09 -1.62992809E-07
  1.03031029E-09 -1.17447246E-04 -4.72029758E-04  2.60141436E-05  2.45373617E-09
  7.17689758E-08  6.02617681E-03 -1.84056872E-03  5.35960575E-08  2.15109132E-06
 -1.94545689E-03  9.49081112E-04  7.81837367E-08  3.46503166E-06 -1.81826555E-04
 -2.34393975E-04 -2.34362912E-04 -1.49832691E-09 -9.95381028E-08 -4.65298502E-10
 -2.16340520E-07 -1.11453284E-06 -3.50462897E-07  4.70061940E-08 -5.40329052E-06
  8.67917433E-06 -9.34628506E-07  4.92236947E-06 -5.73355029E-04 -9.49466311E-05
 -3.71449567E-05 -3.12446402E-06  3.66963744E-04 -3.58081112E-08 -3.76842835E-05
  3.72976583E-05 -3.09029531E-07  3.58568490E-05  9.40326512E-08 -1.28733651E-07
  3.20864798E-07 -2.15987949E-03 -8.51720595E-03  9.90794972E-01 -5.62664227E-07
 -6.47273610E-05 -2.54383621E-04  2.95920037E-02  2.69569008E-06  2.48648744E-05
  9.77342572E-05 -1.13688628E-02 -1.16709112E-05 -1.46818389E-05 -4.11095109E-05
  4.78080830E-03 -3.47155812E-07  2.89395437E-06 -3.03865195E-06 -3.61312155E-07
  4.20109187E-05 -7.95952383E-09  1.36726952E-04 -9.22070204E-04  3.95406770E-03
 -9.20830957E-06  1.49888441E-07 -9.79771135E-05 -6.69060229E-05  4.47376795E-04
 -1.95652525E-03  4.63854502E-06 -4.55015278E-05 -1.70997972E-05 -6.84334345E-05
  4.57626049E-04 -2.00075397E-03  4.74011288E-06  4.64921730E-05 -1.74999694E-05
 -6.75592477E-08 -2.71504466E-07 -1.75521865E-08 -2.75400582E-07  3.20005603E-05
 -6.31990212E-06 -3.25976835E-06  2.60617895E-07 -2.96793713E-05  1.14449613E-04
 -3.88731298E-05 -9.76033228E-06  1.13131539E-03 -4.18712855E-07 -4.33666846E-06
  4.32188156E-06  1.51848982E-07 -1.76959749E-05  1.18419873E-08 -1.69743758E-07
 -6.91489006E-07  5.46342957E-08  7.65270472E-08 -8.80919657E-06  7.27150979E-06
 -3.61222277E-06 -4.87370097E-07  5.61435745E-05 -2.83090922E-06  8.27211008E-06
  3.71472693E-06 -4.30280554E-04  2.47607715E-08  2.60727381E-06 -3.43662620E-06
  3.91163892E-08 -4.50647680E-06 -7.54967013E-09 -4.49161786E-09 -1.82313406E-08
 -5.44380253E-09 -5.92179916E-06 -5.03530829E-08 -4.02534176E-08 -2.19284453E-07
 -5.67522695E-04 -4.88436103E-06 -6.07653085E-06 -2.25982672E-06  3.58755981E-04
  3.11486134E-06 -1.07263234E-08 -8.36082322E-08  7.44766807E-08  3.52635072E-05
  3.02352074E-07 -4.28927244E-05 -8.68978451E-10  2.05389278E-09 -3.24515590E-05
  9.90797462E-01  8.51715682E-03 -3.76277033E-09 -9.58970988E-07  2.95914044E-02
  2.54374727E-04  4.38745027E-08  3.28621480E-07 -1.13670621E-02 -9.77106339E-05
 -4.65026490E-07 -3.33321812E-07  4.77657296E-03  4.10483835E-05 -6.83460653E-09
  7.78621649E-09 -4.95972419E-09  4.19888536E-05  3.60762596E-07  3.55613544E-06
  8.88094008E-07 -6.01747641E-06  2.52388458E-05 -5.43414415E-08  9.09528331E-06
 -6.15118614E-07 -1.18654263E-04  7.91987989E-04 -3.41693766E-03  8.11321590E-06
 -7.07007389E-05 -4.62451473E-05  1.17799677E-04 -7.86424040E-04  3.39148497E-03
 -8.03818574E-06 -7.03245149E-05  4.57270392E-05 -7.64735338E-09 -3.55701188E-08
  9.39648596E-10  3.18215123E-05  2.73216175E-07 -1.40159792E-07 -4.85336870E-07
 -2.99691823E-05 -2.51653357E-07  6.88524426E-06 -2.22394535E-06  1.12605668E-03
  9.64656128E-06 -1.59896364E-08 -1.58316370E-08  4.97391920E-10 -1.75290002E-05
 -1.50963758E-07 -4.89138935E-06 -9.43737497E-09 -4.13969943E-08  3.28106905E-09
 -8.77091540E-06 -7.46098184E-08  5.29446831E-07 -2.30240371E-07  5.58969827E-05
  4.75971830E-07 -1.07125302E-07  3.89804824E-07 -4.27281584E-04 -3.65767405E-06
 -6.67720038E-10 -1.39522987E-08 -2.68422040E-08 -4.51262239E-06 -3.84185189E-08
  3.48182889E-06  2.44929867E-05  3.22491634E-04  2.14601489E-04 -6.62103879E-10
  4.68768046E-08 -6.98584383E-03 -5.93166830E-03  3.04529194E-07  1.10605681E-05
 -9.52551636E-02 -3.66335761E-02  8.30114899E-07  2.73436910E-05 -3.43589482E-04
 -1.09069664E-05 -1.11579182E-05  1.66104302E-08  4.59075507E-07  4.09323223E-09
  1.06691070E-04 -2.54529632E-04  9.90723609E-01  1.38787366E-05  2.15994800E-03
  3.57553220E-04  3.01742638E-02  4.31581884E-07  6.54234413E-05 -1.55820485E-03
 -1.30148519E-02 -1.93960576E-07 -2.67929162E-05 -3.77103433E-03  3.10312801E-03
 -1.20395728E-07  2.39752928E-06  1.64588622E-04  2.47956618E-04  2.47959601E-04
 -9.47962173E-09 -3.81439060E-07  2.86888687E-11 -1.01085988E-04 -3.66570021E-04
 -2.54245659E-03  1.88031621E-04  5.92255735E-08 -3.41694048E-05 -1.00013066E-04
 -3.76363299E-04 -2.54977976E-03  1.89871868E-04  3.06938248E-05  1.73348308E-05
 -1.00037157E-04 -3.76087798E-04 -2.54981939E-03  1.89816427E-04 -3.07503407E-05
  1.71762301E-05 -1.52159253E-04 -7.58237893E-04  2.39038282E-05 -2.10825239E-08