RxCoord=-7.78679 DE=0.83                                                
Freq      RB3LYP                                                      6-31++G(d,p)        
Number of atoms                            I                7
Info1-9                                    I   N=           9
          16          16           0           0           0         100
           6          18        -502
Full Title                                 C   N=           2
RxCoord=-7.78679 DE=0.83
Route                                      C   N=           6
#p b3lyp 6-31++g(d,p) scf=verytight NoSymm freq=noraman int=
ultrafine   
Charge                                     I               -1
Multiplicity                               I                1
Number of electrons                        I               40
Number of alpha electrons                  I               20
Number of beta electrons                   I               20
Number of basis functions                  I               98
Number of independent functions            I               98
Number of point charges in /Mol/           I                0
Number of translation vectors              I                0
Atomic numbers                             I   N=           7
           6          17           1           1           1           6
           7
Nuclear charges                            R   N=           7
  6.00000000E+00  1.70000000E+01  1.00000000E+00  1.00000000E+00  1.00000000E+00
  6.00000000E+00  7.00000000E+00
Current cartesian coordinates              R   N=          21
  1.55442635E+00  1.11493841E-04  4.68463106E-03 -4.68776990E+00 -1.88972612E-05
 -1.72909940E-03  8.32864664E-01  4.27645022E-03 -1.92720506E+00  8.35933579E-01
  1.67160449E+00  9.75790320E-01  8.35867439E-01 -1.67552756E+00  9.68558338E-01
  4.30695418E+00  4.34637009E-05  1.09037197E-03  6.50322223E+00 -1.11493841E-04
 -1.86326996E-03
Number of symbols in /Mol/                 I                0
Force Field                                I                0
Atom Types                                 C   N=           7
                                                            
                        
Int Atom Types                             I   N=           7
           0           0           0           0           0           0
           0
MM charges                                 R   N=           7
  0.00000000E+00  0.00000000E+00  0.00000000E+00  0.00000000E+00  0.00000000E+00
  0.00000000E+00  0.00000000E+00
Integer atomic weights                     I   N=           7
          12          35           1           1           1          12
          14
Real atomic weights                        R   N=           7
  1.20000000E+01  3.49688527E+01  1.00782504E+00  1.00782504E+00  1.00782504E+00
  1.20000000E+01  1.40030740E+01
Atom fragment info                         I   N=           7
           0           0           0           0           0           0
           0
Atom residue num                           I   N=           7
           0           0           0           0           0           0
           0
Nuclear spins                              I   N=           7
           0           3           1           1           1           0
           2
Nuclear ZEff                               R   N=           7
 -3.60000000E+00 -1.42400000E+01 -1.00000000E+00 -1.00000000E+00 -1.00000000E+00
 -3.60000000E+00 -4.55000000E+00
Nuclear ZNuc                               R   N=           7
  6.00000000E+00  1.70000000E+01  1.00000000E+00  1.00000000E+00  1.00000000E+00
  6.00000000E+00  7.00000000E+00
Nuclear QMom                               R   N=           7
  0.00000000E+00 -8.16500000E+00  0.00000000E+00  0.00000000E+00  0.00000000E+00
  0.00000000E+00  2.04400000E+00
Nuclear GFac                               R   N=           7
  0.00000000E+00  8.21874000E-01  2.79284600E+00  2.79284600E+00  2.79284600E+00
  0.00000000E+00  4.03761000E-01
MicOpt                                     I   N=           7
          -1          -1          -1          -1          -1          -1
          -1
Number of residues                         I                0
Number of secondary structures             I                0
Number of contracted shells                I               33
Number of primitive shells                 I               72
Pure/Cartesian d shells                    I                1
Pure/Cartesian f shells                    I                0
Highest angular momentum                   I                2
Largest degree of contraction              I                6
Shell types                                I   N=          33
           0          -1          -1          -1           2           0
          -1          -1          -1          -1           2           0
           0           0           1           0           0           0
           1           0           0           0           1           0
          -1          -1          -1           2           0          -1
          -1          -1           2
Number of primitives per shell             I   N=          33
           6           3           1           1           1           6
           6           3           1           1           1           3
           1           1           1           3           1           1
           1           3           1           1           1           6
           3           1           1           1           6           3
           1           1           1
Shell to atom map                          I   N=          33
           1           1           1           1           1           2
           2           2           2           2           2           3
           3           3           3           4           4           4
           4           5           5           5           5           6
           6           6           6           6           7           7
           7           7           7
Primitive exponents                        R   N=          72
  3.04752488E+03  4.57369518E+02  1.03948685E+02  2.92101553E+01  9.28666296E+00
  3.16392696E+00  7.86827235E+00  1.88128854E+00  5.44249258E-01  1.68714478E-01
  4.38000000E-02  8.00000000E-01  2.51801000E+04  3.78035000E+03  8.60474000E+02
  2.42145000E+02  7.73349000E+01  2.62470000E+01  4.91765000E+02  1.16984000E+02
  3.74153000E+01  1.37834000E+01  5.45215000E+00  2.22588000E+00  3.18649000E+00
  1.14427000E+00  4.20377000E-01  1.42657000E-01  4.83000000E-02  7.50000000E-01
  1.87311370E+01  2.82539436E+00  6.40121692E-01  1.61277759E-01  3.60000000E-02
  1.10000000E+00  1.87311370E+01  2.82539436E+00  6.40121692E-01  1.61277759E-01
  3.60000000E-02  1.10000000E+00  1.87311370E+01  2.82539436E+00  6.40121692E-01
  1.61277759E-01  3.60000000E-02  1.10000000E+00  3.04752488E+03  4.57369518E+02
  1.03948685E+02  2.92101553E+01  9.28666296E+00  3.16392696E+00  7.86827235E+00
  1.88128854E+00  5.44249258E-01  1.68714478E-01  4.38000000E-02  8.00000000E-01
  4.17351146E+03  6.27457911E+02  1.42902093E+02  4.02343293E+01  1.28202129E+01
  4.39043701E+00  1.16263619E+01  2.71627981E+00  7.72218397E-01  2.12031498E-01
  6.39000000E-02  8.00000000E-01
Contraction coefficients                   R   N=          72
  1.83473713E-03  1.40373228E-02  6.88426223E-02  2.32184443E-01  4.67941348E-01
  3.62311985E-01 -1.19332420E-01 -1.60854152E-01  1.14345644E+00  1.00000000E+00
  1.00000000E+00  1.00000000E+00  1.83295985E-03  1.40341988E-02  6.90973943E-02
  2.37451980E-01  4.83033960E-01  3.39855972E-01 -2.29739142E-03 -3.07137189E-02
 -1.12528069E-01  4.50163278E-02  5.89353363E-01  4.65206287E-01 -2.51828028E-01
  6.15892514E-02  1.06018433E+00  1.00000000E+00  1.00000000E+00  1.00000000E+00
  3.34946043E-02  2.34726953E-01  8.13757326E-01  1.00000000E+00  1.00000000E+00
  1.00000000E+00  3.34946043E-02  2.34726953E-01  8.13757326E-01  1.00000000E+00
  1.00000000E+00  1.00000000E+00  3.34946043E-02  2.34726953E-01  8.13757326E-01
  1.00000000E+00  1.00000000E+00  1.00000000E+00  1.83473713E-03  1.40373228E-02
  6.88426223E-02  2.32184443E-01  4.67941348E-01  3.62311985E-01 -1.19332420E-01
 -1.60854152E-01  1.14345644E+00  1.00000000E+00  1.00000000E+00  1.00000000E+00
  1.83477216E-03  1.39946270E-02  6.85865518E-02  2.32240873E-01  4.69069948E-01
  3.60455199E-01 -1.14961182E-01 -1.69117479E-01  1.14585195E+00  1.00000000E+00
  1.00000000E+00  1.00000000E+00
P(S=P) Contraction coefficients            R   N=          72
  0.00000000E+00  0.00000000E+00  0.00000000E+00  0.00000000E+00  0.00000000E+00
  0.00000000E+00  6.89990666E-02  3.16423961E-01  7.44308291E-01  1.00000000E+00
  1.00000000E+00  0.00000000E+00  0.00000000E+00  0.00000000E+00  0.00000000E+00
  0.00000000E+00  0.00000000E+00  0.00000000E+00  3.98940088E-03  3.03177067E-02
  1.29880029E-01  3.27951072E-01  4.53527100E-01  2.52154056E-01 -1.42993147E-02
  3.23572333E-01  7.43507765E-01  1.00000000E+00  1.00000000E+00  0.00000000E+00
  0.00000000E+00  0.00000000E+00  0.00000000E+00  0.00000000E+00  0.00000000E+00
  0.00000000E+00  0.00000000E+00  0.00000000E+00  0.00000000E+00  0.00000000E+00
  0.00000000E+00  0.00000000E+00  0.00000000E+00  0.00000000E+00  0.00000000E+00
  0.00000000E+00  0.00000000E+00  0.00000000E+00  0.00000000E+00  0.00000000E+00
  0.00000000E+00  0.00000000E+00  0.00000000E+00  0.00000000E+00  6.89990666E-02
  3.16423961E-01  7.44308291E-01  1.00000000E+00  1.00000000E+00  0.00000000E+00
  0.00000000E+00  0.00000000E+00  0.00000000E+00  0.00000000E+00  0.00000000E+00
  0.00000000E+00  6.75797439E-02  3.23907296E-01  7.40895140E-01  1.00000000E+00
  1.00000000E+00  0.00000000E+00
Coordinates of each shell                  R   N=          99
  1.55442635E+00  1.11493841E-04  4.68463106E-03  1.55442635E+00  1.11493841E-04
  4.68463106E-03  1.55442635E+00  1.11493841E-04  4.68463106E-03  1.55442635E+00
  1.11493841E-04  4.68463106E-03  1.55442635E+00  1.11493841E-04  4.68463106E-03
 -4.68776990E+00 -1.88972612E-05 -1.72909940E-03 -4.68776990E+00 -1.88972612E-05
 -1.72909940E-03 -4.68776990E+00 -1.88972612E-05 -1.72909940E-03 -4.68776990E+00
 -1.88972612E-05 -1.72909940E-03 -4.68776990E+00 -1.88972612E-05 -1.72909940E-03
 -4.68776990E+00 -1.88972612E-05 -1.72909940E-03  8.32864664E-01  4.27645022E-03
 -1.92720506E+00  8.32864664E-01  4.27645022E-03 -1.92720506E+00  8.32864664E-01
  4.27645022E-03 -1.92720506E+00  8.32864664E-01  4.27645022E-03 -1.92720506E+00
  8.35933579E-01  1.67160449E+00  9.75790320E-01  8.35933579E-01  1.67160449E+00
  9.75790320E-01  8.35933579E-01  1.67160449E+00  9.75790320E-01  8.35933579E-01
  1.67160449E+00  9.75790320E-01  8.35867439E-01 -1.67552756E+00  9.68558338E-01
  8.35867439E-01 -1.67552756E+00  9.68558338E-01  8.35867439E-01 -1.67552756E+00
  9.68558338E-01  8.35867439E-01 -1.67552756E+00  9.68558338E-01  4.30695418E+00
  4.34637009E-05  1.09037197E-03  4.30695418E+00  4.34637009E-05  1.09037197E-03
  4.30695418E+00  4.34637009E-05  1.09037197E-03  4.30695418E+00  4.34637009E-05
  1.09037197E-03  4.30695418E+00  4.34637009E-05  1.09037197E-03  6.50322223E+00
 -1.11493841E-04 -1.86326996E-03  6.50322223E+00 -1.11493841E-04 -1.86326996E-03
  6.50322223E+00 -1.11493841E-04 -1.86326996E-03  6.50322223E+00 -1.11493841E-04
 -1.86326996E-03  6.50322223E+00 -1.11493841E-04 -1.86326996E-03
Num ILSW                                   I              100
ILSW                                       I   N=         100
           0           1           0           0           2           0
           0           0           0           0         402          -1
           5           0           0           0           2           0
           0           0           0           0           1           0
           1           1           0           0           0           0
           0           0      100000           0          -1           0
           0           0           0           0           0           0
           0           0           0           1           0           0
           0 -2000000000           1           0           0           0
           0           0           4          52           0           0
           0           0           5           0           0           0
           0           0           0           7           0           1
           0           0           0           0           0           0
           0           0           0           0           0           0
           0           0           0           0           0           0
           0           0           0           0           0           0
           0           0           0           0
Num RLSW                                   I               52
RLSW                                       R   N=          52
  8.00000000E-01  7.20000000E-01  1.00000000E+00  8.10000000E-01  2.00000000E-01
  0.00000000E+00  0.00000000E+00  1.00000000E+00  0.00000000E+00  0.00000000E+00
  0.00000000E+00  0.00000000E+00  1.00000000E+00  0.00000000E+00  0.00000000E+00
  0.00000000E+00  0.00000000E+00  1.00000000E+00  0.00000000E+00  0.00000000E+00
  0.00000000E+00  0.00000000E+00  1.00000000E+00  0.00000000E+00  0.00000000E+00
  0.00000000E+00  0.00000000E+00  1.00000000E+00  0.00000000E+00  0.00000000E+00
  0.00000000E+00  0.00000000E+00  1.00000000E+00  0.00000000E+00  0.00000000E+00
  0.00000000E+00  0.00000000E+00  0.00000000E+00  1.00000000E+00  1.00000000E+00
  0.00000000E+00  1.00000000E+00  0.00000000E+00  0.00000000E+00  0.00000000E+00
  0.00000000E+00  0.00000000E+00  0.00000000E+00  0.00000000E+00  0.00000000E+00
  0.00000000E+00  0.00000000E+00
MxBond                                     I                4
NBond                                      I   N=           7
           4           0           1           1           1           2
           1
IBond                                      I   N=          28
           3           4           5           6           0           0
           0           0           1           0           0           0
           1           0           0           0           1           0
           0           0           1           7           0           0
           6           0           0           0
RBond                                      R   N=          28
  1.00000000E+00  1.00000000E+00  1.00000000E+00  1.00000000E+00  0.00000000E+00
  0.00000000E+00  0.00000000E+00  0.00000000E+00  1.00000000E+00  0.00000000E+00
  0.00000000E+00  0.00000000E+00  1.00000000E+00  0.00000000E+00  0.00000000E+00
  0.00000000E+00  1.00000000E+00  0.00000000E+00  0.00000000E+00  0.00000000E+00
  1.00000000E+00  3.00000000E+00  0.00000000E+00  0.00000000E+00  3.00000000E+00
  0.00000000E+00  0.00000000E+00  0.00000000E+00
Virial Ratio                               R      2.004705198068057E+00
SCF Energy                                 R     -5.930600324999625E+02
Total Energy                               R     -5.930600324999625E+02
RMS Force                                  R      1.732361136801163E-03
RMS Density                                R      1.791630126551939E-09
NImag                                      I                2
Job Status                                 I                1
Nuclear derivative order                   I                2
External E-field                           R   N=          35
  0.00000000E+00  0.00000000E+00  0.00000000E+00  0.00000000E+00  0.00000000E+00
  0.00000000E+00  0.00000000E+00  0.00000000E+00  0.00000000E+00  0.00000000E+00
  0.00000000E+00  0.00000000E+00  0.00000000E+00  0.00000000E+00  0.00000000E+00
  0.00000000E+00  0.00000000E+00  0.00000000E+00  0.00000000E+00  0.00000000E+00
  0.00000000E+00  0.00000000E+00  0.00000000E+00  0.00000000E+00  0.00000000E+00
  0.00000000E+00  0.00000000E+00  0.00000000E+00  0.00000000E+00  0.00000000E+00
  0.00000000E+00  0.00000000E+00  0.00000000E+00  0.00000000E+00  0.00000000E+00
IOpCl                                      I                0
IROHF                                      I                0
Alpha Orbital Energies                     R   N=          98
 -1.01254707E+02 -1.42298113E+01 -1.01268939E+01 -1.00981560E+01 -9.16811059E+00
 -6.92593949E+00 -6.92593887E+00 -6.92582014E+00 -7.99597423E-01 -6.45318273E-01
 -5.06098804E-01 -3.83037257E-01 -3.28805236E-01 -3.28762510E-01 -2.60194025E-01
 -2.18535767E-01 -2.18532059E-01 -5.30705455E-02 -5.21438351E-02 -5.21409729E-02
  1.00175867E-01  1.34990517E-01  1.35054308E-01  1.42625758E-01  1.46209466E-01
  1.46227069E-01  1.98726867E-01  2.04830370E-01  2.04873058E-01  2.19433401E-01
  2.30496370E-01  2.30569044E-01  2.51829311E-01  2.59265371E-01  2.59307292E-01
  2.90902844E-01  3.26594052E-01  3.34769683E-01  3.34786023E-01  3.41969258E-01
  3.42013929E-01  3.47464587E-01  3.93679506E-01  4.08385867E-01  4.83931736E-01
  6.91255313E-01  7.85713115E-01  7.85718744E-01  8.45083526E-01  8.45162882E-01
  8.49441108E-01  8.49515132E-01  8.53783269E-01  8.84703658E-01  9.85637100E-01
  1.02353260E+00  1.02362591E+00  1.02637633E+00  1.09767852E+00  1.11774603E+00
  1.11775385E+00  1.15391362E+00  1.15392093E+00  1.15910538E+00  1.15911991E+00
  1.20601298E+00  1.24433659E+00  1.27197252E+00  1.45130552E+00  1.45136412E+00
  1.53804722E+00  1.62482264E+00  1.62482697E+00  1.86029958E+00  1.86037386E+00
  1.89886482E+00  2.05175073E+00  2.05175686E+00  2.14573899E+00  2.23398019E+00
  2.23401996E+00  2.30484967E+00  2.39518211E+00  2.39527057E+00  2.76438121E+00
  2.79980330E+00  2.79983023E+00  3.04974150E+00  3.08789534E+00  3.08811652E+00
  3.28202944E+00  3.44985486E+00  3.54908079E+00  3.54908841E+00  4.24836807E+00
  4.43871339E+00  4.57607411E+00  4.80717548E+00
Alpha MO coefficients                      R   N=        9604
  7.28919176E-07  5.65543206E-06 -6.31375655E-06  2.68147127E-10  1.25169783E-08
  2.94105855E-05  4.25271739E-05 -2.18469422E-09 -6.96380752E-08  1.21843283E-03
  4.14791605E-04 -7.52703944E-09 -4.06966471E-07 -3.91772779E-06  3.31388460E-06
  3.29874601E-06  4.79452433E-12  3.16281117E-09  1.56265735E-10  9.95997986E-01
  1.51390044E-02  4.69511575E-06  6.08942335E-11  4.67502300E-09 -2.10654679E-02
 -1.31558579E-05 -1.99481841E-10 -1.16492754E-08  1.99083611E-03  3.31728553E-05
  3.94880700E-10  2.37370748E-08 -3.19712143E-04 -3.07644577E-05  1.65591094E-09
  6.87721624E-08  7.50265517E-03  7.50185468E-03  7.50185448E-03  1.04126328E-10
  4.41016408E-09 -1.13359596E-12  6.29419976E-06 -1.88797818E-05  5.97655981E-05
  7.98466325E-07  7.05202265E-09 -3.10335473E-06  6.33231424E-06 -1.87818455E-05
  5.94987761E-05  6.97305834E-07  2.66545974E-06  1.56431737E-06  6.33122822E-06
 -1.87847411E-05  5.95092686E-05  6.99688937E-07 -2.67229919E-06  1.55329362E-06
  1.23402888E-06  4.53245775E-06  1.25767800E-06 -1.40056130E-10  5.18130264E-09
 -7.72369828E-05  5.44058964E-06  1.37790727E-09 -2.71614469E-08 -1.45969793E-03
  3.95748436E-04 -8.80336465E-09 -7.13315015E-07  1.08217164E-06  2.32772242E-06
  2.32971129E-06  1.67916436E-10  3.45362484E-09 -2.26991560E-11  3.64396376E-07
  7.35647181E-07  1.02737717E-07 -7.30647153E-11  2.35282713E-09 -1.04434736E-06
 -8.86980136E-06  4.40946742E-10  3.77758277E-11  1.45766425E-04 -8.15771275E-05
  3.48698991E-09  2.34139441E-07  1.66235738E-06  6.14869308E-07  6.14334698E-07
 -2.38808495E-11 -4.33116607E-09  8.11237848E-12  9.59245185E-06 -1.87400804E-04
  2.70511192E-04 -4.63873746E-09 -3.30576767E-07  9.76580458E-04  6.36280307E-04
  4.64014649E-09 -8.54265167E-07  1.01399745E-02  2.69772032E-03 -2.41963646E-08
 -2.25280574E-06  4.72509486E-04  2.70505849E-05  2.70392915E-05 -8.21636630E-10
 -6.72266321E-07  1.43134976E-09  1.74044812E-08 -2.81792591E-07  4.46711140E-06
  2.28781940E-10  9.89524497E-09  3.80943980E-06 -2.52548080E-05 -1.24712557E-09
 -5.26634945E-08 -4.16997616E-05  5.75626830E-05  3.08131191E-09  9.93590072E-08
  3.76328693E-04  1.15200949E-04  1.74692538E-09  3.68029632E-07  1.69625820E-06
 -5.92981178E-06 -5.92609724E-06  2.75047028E-10  2.35028625E-08 -4.16788899E-11
  5.06990218E-07 -6.92891646E-05 -2.22834603E-04 -2.48127810E-06  2.87245995E-09
 -1.93689026E-06  5.03951758E-07 -6.93717396E-05 -2.22006146E-04 -2.50114767E-06
  1.69001200E-06  9.86209123E-07  5.06764468E-07 -6.93524951E-05 -2.22048297E-04
 -2.49715447E-06 -1.69617552E-06  9.78511625E-07  7.70348532E-05  3.26112540E-04
 -5.59044728E-04  4.12993584E-08  7.70219000E-07 -7.33710214E-07  1.32270696E-03
 -4.81575314E-08 -1.77605887E-06 -7.70614163E-03  4.22756636E-03 -1.87493389E-07
 -7.14304174E-06 -1.44536655E-03  1.82902370E-05  1.82908189E-05  1.01920091E-07
  2.26391287E-06 -2.10893921E-11  9.92763869E-01  3.47155421E-02 -2.14422394E-03
  1.64160086E-07  2.90125632E-06  3.58414812E-03  8.20224323E-04 -7.43527311E-08
 -1.20887041E-06 -3.33740710E-03 -4.33433187E-04  1.44443244E-08  1.28560013E-06
 -7.31284885E-03 -8.36399077E-03 -8.36398533E-03 -8.73977868E-08 -1.63997656E-06
 -2.15205101E-11  5.77218489E-03  1.05148415E-04 -4.34274631E-04  9.43648883E-09
  7.21621502E-07  7.11291993E-03  2.55956264E-03 -6.05167482E-08 -3.93967559E-06
  7.67609907E-02  2.71743519E-02 -3.48060567E-07 -2.05671778E-05 -1.01866383E-03
 -2.00569577E-04 -2.00566286E-04  1.85893797E-08  1.26344557E-06  1.88806750E-09
  4.09315346E-08 -5.46964231E-07  2.38777195E-05  1.06316181E-09  5.87278152E-08
  7.50937678E-06 -1.44079554E-04 -5.98640673E-09 -3.26313874E-07 -2.83797548E-04
  4.79446562E-04  1.36656733E-08  6.81969564E-07  4.30411037E-03  1.63895093E-03
  1.06130924E-07  5.28375574E-06  2.85014019E-05 -2.72968987E-05 -2.72736850E-05
  4.55478869E-09  2.45516261E-07 -1.36908963E-10 -1.20934516E-04 -7.37590787E-04
  1.07305649E-04  4.39538984E-05 -3.06757180E-08  1.29990770E-05 -1.20936229E-04
 -7.37948890E-04  1.13784418E-04  4.35094791E-05 -1.14607401E-05 -6.68235453E-06
 -1.20928916E-04 -7.37950609E-04  1.13847239E-04  4.35125553E-05  1.14845624E-05
 -6.63311184E-06  9.92767832E-01  5.03928353E-02  2.50073459E-04 -5.27376391E-08
 -3.02239987E-07 -1.05382554E-02  7.42768233E-03 -2.56245789E-07 -1.01083004E-05
 -8.48279098E-02  2.37788932E-02 -7.11001604E-07 -4.85456932E-05 -7.83899590E-03
 -9.89527459E-03 -9.89524667E-03 -1.32424994E-07 -3.10196019E-06  4.10679377E-10
 -4.71264403E-04  3.37752961E-04  3.34069391E-04 -2.39767382E-08 -2.15675629E-07
 -7.68932230E-03  3.14866461E-03 -3.07655522E-07 -5.42952005E-06  8.19556363E-03
 -6.27592127E-03  3.14814805E-07  1.63532681E-05 -2.63897784E-05  3.32056048E-04
  3.32061025E-04  5.83339190E-08  5.24809162E-07 -1.05371262E-10  9.93016595E-01
  5.06474968E-02  7.54068942E-04 -5.35471196E-09  2.03329164E-07 -2.45465124E-02
 -4.59404337E-03  1.01054859E-07  3.98482397E-06  4.57007090E-02  1.92666970E-02
 -1.82070750E-07 -1.43560697E-05 -8.94287161E-03 -8.86508891E-03 -8.86505138E-03
 -6.41603921E-09 -7.10190230E-08  2.73437491E-09  1.01352792E-06  1.49066448E-05
  5.45287506E-06  1.04231568E-09  5.37599550E-08  5.05380934E-05 -3.01589893E-05
 -5.98368003E-09 -3.15557943E-07 -3.63451327E-04  2.02530000E-04  1.44714075E-08
  8.79745173E-07  3.76677003E-03  1.48899584E-03  9.01494979E-08  4.02888430E-06
  1.98251615E-05  2.44446166E-05  2.43959597E-05  4.68721833E-09  2.37702733E-07
  8.29267134E-10  3.16877795E-06  3.18805422E-03  2.16441982E-04  2.60243750E-05
  2.62768338E-07 -1.21857334E-04  3.11410048E-06  3.18854223E-03  2.25653229E-04
  2.62686961E-05  1.05604804E-04  6.12420606E-05  3.11280641E-06  3.18859682E-03
  2.25691671E-04  2.62706161E-05 -1.05861590E-04  6.07825079E-05 -6.07174161E-03
 -4.38001242E-04  2.68805113E-04 -6.89247480E-09 -2.93463534E-07  3.53306971E-03
 -9.47951792E-03  3.72032443E-07  1.31959504E-05 -5.32853209E-02  1.35483726E-02
 -4.87032966E-07 -3.16228484E-05 -8.35853847E-04 -2.88680821E-06 -2.93697214E-06
  3.81350361E-08  1.26980296E-06  1.55533466E-10 -1.81357347E-05 -5.00749829E-05
 -2.48536238E-04  1.52482334E-08  5.65395907E-07  5.36191034E-03 -1.76856349E-03
  2.29401239E-07  1.13927949E-06  4.93956588E-03 -2.52831078E-03  1.62192878E-07
  9.77184715E-06  1.48702504E-04 -7.49083062E-05 -7.48977703E-05 -4.52752694E-08
 -3.31853227E-07  2.80250677E-10  5.39521331E-05  3.41514334E-04  1.74913940E-04
  8.44934960E-09  1.55828190E-07 -4.57452688E-03 -3.80035397E-03  4.30946533E-08
  6.89347366E-06  1.18045037E-02  5.96354502E-03  4.63245092E-08  4.21385669E-06
 -1.72809064E-04  9.85572736E-05  9.82897573E-05  2.44065094E-09  2.60633762E-07
  7.21864869E-10 -2.84642998E-01  1.02264770E+00  2.46691042E-04  2.31345293E-09
  2.25822468E-07  7.49981893E-02  4.04753310E-04  6.64783893E-09  4.00153747E-07
 -2.06632416E-02 -1.17565744E-03 -1.67515010E-08 -9.13396575E-07  1.07924941E-02
  3.37806157E-03  2.60824546E-08  1.35513637E-06 -1.56644426E-02 -1.56626793E-02
 -1.56625941E-02 -1.96546359E-09 -6.17991837E-08 -8.57852981E-10 -2.78668940E-06
 -7.92915959E-04 -2.79147011E-03  1.16022816E-04  1.28190175E-07 -5.92055211E-05
 -1.44080000E-06 -8.01374166E-04 -2.76949995E-03  1.16590227E-04  5.19406741E-05
  2.99517940E-05 -1.48703607E-06 -8.01242267E-04 -2.77011628E-03  1.16577366E-04
 -5.20559813E-05  2.97204800E-05 -3.99331583E-05 -2.56814656E-04 -2.28026470E-05
  2.30306457E-09  3.83342941E-08 -1.63123583E-04 -6.23277829E-03  2.71915739E-07
  7.85955598E-06 -5.49034051E-03  9.31506060E-04 -3.34058984E-07 -1.46699243E-05
  9.24599036E-05 -3.47210781E-05 -3.47899302E-05  1.87323811E-09 -1.54266958E-07
  7.87245413E-10 -1.18012090E-04 -4.74674363E-04  2.61932313E-05 -7.58415343E-09
  6.57278132E-08  6.07066274E-03 -1.85444046E-03  1.84385427E-07  2.07911119E-06
 -1.93918167E-03  9.51313384E-04  6.14579728E-08  3.26630745E-06 -1.82682168E-04
 -2.35254498E-04 -2.35225280E-04 -1.33351619E-08 -9.64524498E-08 -4.56521798E-10
 -1.98639666E-07 -1.01164706E-06 -3.26561913E-07  6.17878936E-08 -6.19071053E-06
  7.62733937E-06 -1.23890114E-06  5.73054385E-06 -5.76811875E-04 -9.63023588E-05
 -3.77063332E-05 -3.64965447E-06  3.67530323E-04 -5.14129963E-08 -3.78652410E-05
  3.75072119E-05 -3.58079967E-07  3.59888008E-05  1.51626344E-07 -1.14527578E-07
  2.83667417E-07 -1.97616339E-03 -9.84291261E-03  9.90782570E-01 -5.17306577E-07
 -5.92024446E-05 -2.93997905E-04  2.95937004E-02  2.46493846E-06  2.26757083E-05
  1.12977311E-04 -1.13722451E-02 -1.13695206E-05 -1.36974257E-05 -4.75684182E-05
  4.78832193E-03 -3.16122185E-07  2.92019962E-06 -3.03040760E-06 -4.17246272E-07
  4.20157624E-05 -1.26736244E-08  1.38527269E-04 -9.34273002E-04  3.97556133E-03
 -7.69860498E-06  1.39499820E-07 -9.93731248E-05 -6.76879402E-05  4.52822767E-04
 -1.96274700E-03  3.90115623E-06 -4.61537210E-05 -1.71791705E-05 -6.95503431E-05
  4.65352326E-04 -2.01631952E-03  4.00508221E-06  4.73487678E-05 -1.77100964E-05
 -7.49774379E-08 -3.09937497E-07 -1.08942192E-08 -3.24551396E-07  3.26560607E-05
 -5.85587145E-06 -3.82934397E-06  3.15955747E-07 -3.18729701E-05  1.15684761E-04
 -3.89051907E-05 -1.12144618E-05  1.13213968E-03 -4.01729955E-07 -4.46580158E-06
  4.42014214E-06  1.75589619E-07 -1.77227174E-05  1.81144500E-08 -1.69236376E-07
 -6.94579018E-07  5.34242950E-08  8.73908226E-08 -8.94192825E-06  7.48109692E-06
 -3.63432390E-06 -5.58832350E-07  5.69672095E-05 -2.86570854E-06  8.11179731E-06
  4.23185877E-06 -4.28727416E-04  1.74590469E-08  2.63598554E-06 -3.45083156E-06
  4.70945390E-08 -4.72950596E-06 -1.23972334E-08 -6.24475731E-09 -3.46291172E-08
 -1.17779301E-08 -6.68347601E-06 -6.61213289E-08  3.43083709E-07  5.46234666E-08
 -5.71272202E-04 -5.67499634E-06 -4.85228567E-07 -1.98976767E-07  3.59820636E-04
  3.57561650E-06  2.80826377E-09 -1.33545692E-07  1.24050832E-07  3.54253151E-05
  3.51371401E-07 -4.31403824E-05 -5.67771087E-09  1.42538606E-08 -7.36495806E-05
  9.90784668E-01  9.84278638E-03 -1.81332931E-08 -2.21607316E-06  2.95931231E-02
  2.93988178E-04  1.00551823E-07  8.76259091E-07 -1.13705341E-02 -1.12958726E-04
 -2.32211881E-07 -4.34670099E-07  4.78432010E-03  4.75303546E-05 -1.29078681E-08
  1.54146103E-09 -1.90576291E-08  4.19976934E-05  4.17388721E-07  3.56171788E-06
  1.08824602E-06 -7.33018731E-06  3.07893401E-05 -6.20371628E-08  9.40058061E-06
 -7.54210970E-07 -1.20343599E-04  8.03721547E-04 -3.43946948E-03  6.81147819E-06
 -7.17780635E-05 -4.70303933E-05  1.19294834E-04 -7.96844759E-04  3.40878064E-03
 -6.75163891E-06 -7.12695583E-05  4.64576157E-05  7.27538079E-10  5.11117993E-09
  8.98078868E-10  3.24886107E-05  3.22593963E-07 -1.82066273E-07  7.27749176E-08
 -3.21618782E-05 -3.20591632E-07  6.13018700E-07 -3.70154858E-07  1.12717201E-03
  1.12293416E-05 -9.36149557E-09 -1.17353252E-08  1.78759074E-08 -1.75655675E-05
 -1.74996583E-07 -5.02824767E-06 -1.57617054E-09 -6.19676831E-09  4.52094445E-10
 -8.90723981E-06 -8.99348334E-08  3.50872905E-08 -3.65994961E-08  5.67436595E-05
  5.70616584E-07  8.76785980E-08  1.06416221E-07 -4.25907315E-04 -4.25832160E-06
  1.98179406E-09  5.84041162E-09 -1.48453632E-08 -4.73622663E-06 -4.69102499E-08
  3.50757884E-06  2.33665311E-05  3.16714169E-04  2.17674733E-04  7.06976660E-09
  3.60305858E-08 -6.99025334E-03 -5.96409827E-03  9.99214316E-08  1.03776640E-05
 -9.62791151E-02 -3.70789262E-02  4.57219202E-07  2.60395489E-05 -3.41899715E-04
 -1.37686132E-05 -1.39963107E-05  6.36989806E-09  4.34250433E-07 -7.67181141E-10
  1.06049501E-04 -2.50556461E-04  9.90722550E-01  5.40149374E-05  1.97666749E-03
  3.60800088E-04  3.01823577E-02  1.62876072E-06  5.99059498E-05 -1.57221634E-03
 -1.30399089E-02 -6.55566443E-07 -2.45983261E-05 -3.89068834E-03  3.06817826E-03
  9.97918970E-08  1.97291969E-06  1.65496067E-04  2.51831535E-04  2.51833497E-04
 -6.54181289E-09 -3.61238993E-07 -2.44239074E-11 -1.05394240E-04 -3.47645685E-04
 -2.53554290E-03  1.87017484E-04  6.59681181E-08 -3.25312218E-05 -1.04421393E-04
 -3.56752270E-04 -2.54229311E-03  1.88774610E-04  2.92024924E-05  1.64866371E-05
 -1.04457903E-04 -3.56614813E-04 -2.54224767E-03  1.88734829E-04 -2.92588275E-05
  1.63474189E-05 -1.52934419E-04 -7.61493951E-04  2.35719392E-05  7.15773335E-09