RxCoord=-7.38687 DE=1.09                                                
Freq      RB3LYP                                                      6-31++G(d,p)        
Number of atoms                            I                7
Info1-9                                    I   N=           9
          16          16           0           0           0         100
           6          18        -502
Full Title                                 C   N=           2
RxCoord=-7.38687 DE=1.09
Route                                      C   N=           6
#p b3lyp 6-31++g(d,p) scf=verytight NoSymm freq=noraman int=
ultrafine   
Charge                                     I               -1
Multiplicity                               I                1
Number of electrons                        I               40
Number of alpha electrons                  I               20
Number of beta electrons                   I               20
Number of basis functions                  I               98
Number of independent functions            I               98
Number of point charges in /Mol/           I                0
Number of translation vectors              I                0
Atomic numbers                             I   N=           7
           6          17           1           1           1           6
           7
Nuclear charges                            R   N=           7
  6.00000000E+00  1.70000000E+01  1.00000000E+00  1.00000000E+00  1.00000000E+00
  6.00000000E+00  7.00000000E+00
Current cartesian coordinates              R   N=          21
  1.51275600E+00  1.58736994E-04  3.02545153E-03 -4.63809278E+00 -3.21253441E-05
 -8.57935661E-04  7.90973215E-01  4.48998927E-03 -1.92851464E+00  7.93057583E-01
  1.67101678E+00  9.73790990E-01  7.92934751E-01 -1.67496442E+00  9.66320902E-01
  4.26437298E+00  3.59047964E-05  4.10070569E-04  6.46055788E+00 -1.26611650E-04
 -1.63272337E-03
Number of symbols in /Mol/                 I                0
Force Field                                I                0
Atom Types                                 C   N=           7
                                                            
                        
Int Atom Types                             I   N=           7
           0           0           0           0           0           0
           0
MM charges                                 R   N=           7
  0.00000000E+00  0.00000000E+00  0.00000000E+00  0.00000000E+00  0.00000000E+00
  0.00000000E+00  0.00000000E+00
Integer atomic weights                     I   N=           7
          12          35           1           1           1          12
          14
Real atomic weights                        R   N=           7
  1.20000000E+01  3.49688527E+01  1.00782504E+00  1.00782504E+00  1.00782504E+00
  1.20000000E+01  1.40030740E+01
Atom fragment info                         I   N=           7
           0           0           0           0           0           0
           0
Atom residue num                           I   N=           7
           0           0           0           0           0           0
           0
Nuclear spins                              I   N=           7
           0           3           1           1           1           0
           2
Nuclear ZEff                               R   N=           7
 -3.60000000E+00 -1.42400000E+01 -1.00000000E+00 -1.00000000E+00 -1.00000000E+00
 -3.60000000E+00 -4.55000000E+00
Nuclear ZNuc                               R   N=           7
  6.00000000E+00  1.70000000E+01  1.00000000E+00  1.00000000E+00  1.00000000E+00
  6.00000000E+00  7.00000000E+00
Nuclear QMom                               R   N=           7
  0.00000000E+00 -8.16500000E+00  0.00000000E+00  0.00000000E+00  0.00000000E+00
  0.00000000E+00  2.04400000E+00
Nuclear GFac                               R   N=           7
  0.00000000E+00  8.21874000E-01  2.79284600E+00  2.79284600E+00  2.79284600E+00
  0.00000000E+00  4.03761000E-01
MicOpt                                     I   N=           7
          -1          -1          -1          -1          -1          -1
          -1
Number of residues                         I                0
Number of secondary structures             I                0
Number of contracted shells                I               33
Number of primitive shells                 I               72
Pure/Cartesian d shells                    I                1
Pure/Cartesian f shells                    I                0
Highest angular momentum                   I                2
Largest degree of contraction              I                6
Shell types                                I   N=          33
           0          -1          -1          -1           2           0
          -1          -1          -1          -1           2           0
           0           0           1           0           0           0
           1           0           0           0           1           0
          -1          -1          -1           2           0          -1
          -1          -1           2
Number of primitives per shell             I   N=          33
           6           3           1           1           1           6
           6           3           1           1           1           3
           1           1           1           3           1           1
           1           3           1           1           1           6
           3           1           1           1           6           3
           1           1           1
Shell to atom map                          I   N=          33
           1           1           1           1           1           2
           2           2           2           2           2           3
           3           3           3           4           4           4
           4           5           5           5           5           6
           6           6           6           6           7           7
           7           7           7
Primitive exponents                        R   N=          72
  3.04752488E+03  4.57369518E+02  1.03948685E+02  2.92101553E+01  9.28666296E+00
  3.16392696E+00  7.86827235E+00  1.88128854E+00  5.44249258E-01  1.68714478E-01
  4.38000000E-02  8.00000000E-01  2.51801000E+04  3.78035000E+03  8.60474000E+02
  2.42145000E+02  7.73349000E+01  2.62470000E+01  4.91765000E+02  1.16984000E+02
  3.74153000E+01  1.37834000E+01  5.45215000E+00  2.22588000E+00  3.18649000E+00
  1.14427000E+00  4.20377000E-01  1.42657000E-01  4.83000000E-02  7.50000000E-01
  1.87311370E+01  2.82539436E+00  6.40121692E-01  1.61277759E-01  3.60000000E-02
  1.10000000E+00  1.87311370E+01  2.82539436E+00  6.40121692E-01  1.61277759E-01
  3.60000000E-02  1.10000000E+00  1.87311370E+01  2.82539436E+00  6.40121692E-01
  1.61277759E-01  3.60000000E-02  1.10000000E+00  3.04752488E+03  4.57369518E+02
  1.03948685E+02  2.92101553E+01  9.28666296E+00  3.16392696E+00  7.86827235E+00
  1.88128854E+00  5.44249258E-01  1.68714478E-01  4.38000000E-02  8.00000000E-01
  4.17351146E+03  6.27457911E+02  1.42902093E+02  4.02343293E+01  1.28202129E+01
  4.39043701E+00  1.16263619E+01  2.71627981E+00  7.72218397E-01  2.12031498E-01
  6.39000000E-02  8.00000000E-01
Contraction coefficients                   R   N=          72
  1.83473713E-03  1.40373228E-02  6.88426223E-02  2.32184443E-01  4.67941348E-01
  3.62311985E-01 -1.19332420E-01 -1.60854152E-01  1.14345644E+00  1.00000000E+00
  1.00000000E+00  1.00000000E+00  1.83295985E-03  1.40341988E-02  6.90973943E-02
  2.37451980E-01  4.83033960E-01  3.39855972E-01 -2.29739142E-03 -3.07137189E-02
 -1.12528069E-01  4.50163278E-02  5.89353363E-01  4.65206287E-01 -2.51828028E-01
  6.15892514E-02  1.06018433E+00  1.00000000E+00  1.00000000E+00  1.00000000E+00
  3.34946043E-02  2.34726953E-01  8.13757326E-01  1.00000000E+00  1.00000000E+00
  1.00000000E+00  3.34946043E-02  2.34726953E-01  8.13757326E-01  1.00000000E+00
  1.00000000E+00  1.00000000E+00  3.34946043E-02  2.34726953E-01  8.13757326E-01
  1.00000000E+00  1.00000000E+00  1.00000000E+00  1.83473713E-03  1.40373228E-02
  6.88426223E-02  2.32184443E-01  4.67941348E-01  3.62311985E-01 -1.19332420E-01
 -1.60854152E-01  1.14345644E+00  1.00000000E+00  1.00000000E+00  1.00000000E+00
  1.83477216E-03  1.39946270E-02  6.85865518E-02  2.32240873E-01  4.69069948E-01
  3.60455199E-01 -1.14961182E-01 -1.69117479E-01  1.14585195E+00  1.00000000E+00
  1.00000000E+00  1.00000000E+00
P(S=P) Contraction coefficients            R   N=          72
  0.00000000E+00  0.00000000E+00  0.00000000E+00  0.00000000E+00  0.00000000E+00
  0.00000000E+00  6.89990666E-02  3.16423961E-01  7.44308291E-01  1.00000000E+00
  1.00000000E+00  0.00000000E+00  0.00000000E+00  0.00000000E+00  0.00000000E+00
  0.00000000E+00  0.00000000E+00  0.00000000E+00  3.98940088E-03  3.03177067E-02
  1.29880029E-01  3.27951072E-01  4.53527100E-01  2.52154056E-01 -1.42993147E-02
  3.23572333E-01  7.43507765E-01  1.00000000E+00  1.00000000E+00  0.00000000E+00
  0.00000000E+00  0.00000000E+00  0.00000000E+00  0.00000000E+00  0.00000000E+00
  0.00000000E+00  0.00000000E+00  0.00000000E+00  0.00000000E+00  0.00000000E+00
  0.00000000E+00  0.00000000E+00  0.00000000E+00  0.00000000E+00  0.00000000E+00
  0.00000000E+00  0.00000000E+00  0.00000000E+00  0.00000000E+00  0.00000000E+00
  0.00000000E+00  0.00000000E+00  0.00000000E+00  0.00000000E+00  6.89990666E-02
  3.16423961E-01  7.44308291E-01  1.00000000E+00  1.00000000E+00  0.00000000E+00
  0.00000000E+00  0.00000000E+00  0.00000000E+00  0.00000000E+00  0.00000000E+00
  0.00000000E+00  6.75797439E-02  3.23907296E-01  7.40895140E-01  1.00000000E+00
  1.00000000E+00  0.00000000E+00
Coordinates of each shell                  R   N=          99
  1.51275600E+00  1.58736994E-04  3.02545153E-03  1.51275600E+00  1.58736994E-04
  3.02545153E-03  1.51275600E+00  1.58736994E-04  3.02545153E-03  1.51275600E+00
  1.58736994E-04  3.02545153E-03  1.51275600E+00  1.58736994E-04  3.02545153E-03
 -4.63809278E+00 -3.21253441E-05 -8.57935661E-04 -4.63809278E+00 -3.21253441E-05
 -8.57935661E-04 -4.63809278E+00 -3.21253441E-05 -8.57935661E-04 -4.63809278E+00
 -3.21253441E-05 -8.57935661E-04 -4.63809278E+00 -3.21253441E-05 -8.57935661E-04
 -4.63809278E+00 -3.21253441E-05 -8.57935661E-04  7.90973215E-01  4.48998927E-03
 -1.92851464E+00  7.90973215E-01  4.48998927E-03 -1.92851464E+00  7.90973215E-01
  4.48998927E-03 -1.92851464E+00  7.90973215E-01  4.48998927E-03 -1.92851464E+00
  7.93057583E-01  1.67101678E+00  9.73790990E-01  7.93057583E-01  1.67101678E+00
  9.73790990E-01  7.93057583E-01  1.67101678E+00  9.73790990E-01  7.93057583E-01
  1.67101678E+00  9.73790990E-01  7.92934751E-01 -1.67496442E+00  9.66320902E-01
  7.92934751E-01 -1.67496442E+00  9.66320902E-01  7.92934751E-01 -1.67496442E+00
  9.66320902E-01  7.92934751E-01 -1.67496442E+00  9.66320902E-01  4.26437298E+00
  3.59047964E-05  4.10070569E-04  4.26437298E+00  3.59047964E-05  4.10070569E-04
  4.26437298E+00  3.59047964E-05  4.10070569E-04  4.26437298E+00  3.59047964E-05
  4.10070569E-04  4.26437298E+00  3.59047964E-05  4.10070569E-04  6.46055788E+00
 -1.26611650E-04 -1.63272337E-03  6.46055788E+00 -1.26611650E-04 -1.63272337E-03
  6.46055788E+00 -1.26611650E-04 -1.63272337E-03  6.46055788E+00 -1.26611650E-04
 -1.63272337E-03  6.46055788E+00 -1.26611650E-04 -1.63272337E-03
Num ILSW                                   I              100
ILSW                                       I   N=         100
           0           1           0           0           2           0
           0           0           0           0         402          -1
           5           0           0           0           2           0
           0           0           0           0           1           0
           1           1           0           0           0           0
           0           0      100000           0          -1           0
           0           0           0           0           0           0
           0           0           0           1           0           0
           0 -2000000000           1           0           0           0
           0           0           4          52           0           0
           0           0           5           0           0           0
           0           0           0           7           0           1
           0           0           0           0           0           0
           0           0           0           0           0           0
           0           0           0           0           0           0
           0           0           0           0           0           0
           0           0           0           0
Num RLSW                                   I               52
RLSW                                       R   N=          52
  8.00000000E-01  7.20000000E-01  1.00000000E+00  8.10000000E-01  2.00000000E-01
  0.00000000E+00  0.00000000E+00  1.00000000E+00  0.00000000E+00  0.00000000E+00
  0.00000000E+00  0.00000000E+00  1.00000000E+00  0.00000000E+00  0.00000000E+00
  0.00000000E+00  0.00000000E+00  1.00000000E+00  0.00000000E+00  0.00000000E+00
  0.00000000E+00  0.00000000E+00  1.00000000E+00  0.00000000E+00  0.00000000E+00
  0.00000000E+00  0.00000000E+00  1.00000000E+00  0.00000000E+00  0.00000000E+00
  0.00000000E+00  0.00000000E+00  1.00000000E+00  0.00000000E+00  0.00000000E+00
  0.00000000E+00  0.00000000E+00  0.00000000E+00  1.00000000E+00  1.00000000E+00
  0.00000000E+00  1.00000000E+00  0.00000000E+00  0.00000000E+00  0.00000000E+00
  0.00000000E+00  0.00000000E+00  0.00000000E+00  0.00000000E+00  0.00000000E+00
  0.00000000E+00  0.00000000E+00
MxBond                                     I                4
NBond                                      I   N=           7
           4           0           1           1           1           2
           1
IBond                                      I   N=          28
           3           4           5           6           0           0
           0           0           1           0           0           0
           1           0           0           0           1           0
           0           0           1           7           0           0
           6           0           0           0
RBond                                      R   N=          28
  1.00000000E+00  1.00000000E+00  1.00000000E+00  1.00000000E+00  0.00000000E+00
  0.00000000E+00  0.00000000E+00  0.00000000E+00  1.00000000E+00  0.00000000E+00
  0.00000000E+00  0.00000000E+00  1.00000000E+00  0.00000000E+00  0.00000000E+00
  0.00000000E+00  1.00000000E+00  0.00000000E+00  0.00000000E+00  0.00000000E+00
  1.00000000E+00  3.00000000E+00  0.00000000E+00  0.00000000E+00  3.00000000E+00
  0.00000000E+00  0.00000000E+00  0.00000000E+00
Virial Ratio                               R      2.004693270923091E+00
SCF Energy                                 R     -5.930599757699108E+02
Total Energy                               R     -5.930599757699108E+02
RMS Force                                  R      1.808074240224678E-03
RMS Density                                R      1.736770480422794E-09
NImag                                      I                2
Job Status                                 I                1
Nuclear derivative order                   I                2
External E-field                           R   N=          35
  0.00000000E+00  0.00000000E+00  0.00000000E+00  0.00000000E+00  0.00000000E+00
  0.00000000E+00  0.00000000E+00  0.00000000E+00  0.00000000E+00  0.00000000E+00
  0.00000000E+00  0.00000000E+00  0.00000000E+00  0.00000000E+00  0.00000000E+00
  0.00000000E+00  0.00000000E+00  0.00000000E+00  0.00000000E+00  0.00000000E+00
  0.00000000E+00  0.00000000E+00  0.00000000E+00  0.00000000E+00  0.00000000E+00
  0.00000000E+00  0.00000000E+00  0.00000000E+00  0.00000000E+00  0.00000000E+00
  0.00000000E+00  0.00000000E+00  0.00000000E+00  0.00000000E+00  0.00000000E+00
IOpCl                                      I                0
IROHF                                      I                0
Alpha Orbital Energies                     R   N=          98
 -1.01254849E+02 -1.42284958E+01 -1.01255178E+01 -1.00962237E+01 -9.16830091E+00
 -6.92613701E+00 -6.92613654E+00 -6.92598310E+00 -7.98381125E-01 -6.43778646E-01
 -5.06564121E-01 -3.81494372E-01 -3.27200710E-01 -3.27139062E-01 -2.59039505E-01
 -2.17233546E-01 -2.17223825E-01 -5.33072689E-02 -5.25501999E-02 -5.25479187E-02
  1.00883169E-01  1.35973389E-01  1.36019095E-01  1.43057319E-01  1.47171655E-01
  1.47182286E-01  1.99134045E-01  2.05497818E-01  2.05528662E-01  2.19431099E-01
  2.31419968E-01  2.31466585E-01  2.52795354E-01  2.59539197E-01  2.59567426E-01
  2.92694185E-01  3.27321909E-01  3.35776525E-01  3.35791995E-01  3.43399053E-01
  3.43441526E-01  3.50201797E-01  3.94050994E-01  4.09671389E-01  4.84926056E-01
  6.90456630E-01  7.86828361E-01  7.86834430E-01  8.46771251E-01  8.46782094E-01
  8.49277519E-01  8.49299632E-01  8.55439221E-01  8.86818946E-01  9.85880423E-01
  1.02478753E+00  1.02488087E+00  1.03089828E+00  1.09783171E+00  1.11946288E+00
  1.11947525E+00  1.15369325E+00  1.15369871E+00  1.15914110E+00  1.15916054E+00
  1.21086585E+00  1.25000298E+00  1.27432106E+00  1.45291863E+00  1.45298381E+00
  1.53953940E+00  1.62603250E+00  1.62603791E+00  1.86186244E+00  1.86192317E+00
  1.90371220E+00  2.05304092E+00  2.05304775E+00  2.14774069E+00  2.23629220E+00
  2.23636670E+00  2.30896607E+00  2.39679540E+00  2.39689744E+00  2.77224737E+00
  2.80145838E+00  2.80147922E+00  3.05248930E+00  3.08993285E+00  3.09017881E+00
  3.28403075E+00  3.45220022E+00  3.55146444E+00  3.55150305E+00  4.25108385E+00
  4.44186992E+00  4.57845058E+00  4.80918082E+00
Alpha MO coefficients                      R   N=        9604
  9.25894535E-07  9.53496245E-06 -5.32316818E-06  6.23833775E-10  1.12762243E-08
 -3.39579673E-06  1.72437166E-05 -2.09722276E-09 -1.95231737E-08  1.31505545E-03
  4.59401839E-04 -1.48990118E-08 -3.27311708E-07 -7.68536526E-06  3.32901858E-06
  3.31613764E-06  1.62557989E-10  3.64020224E-09  3.36418993E-10  9.95997968E-01
  1.51392018E-02  4.49129456E-06  9.90309914E-11  3.35134310E-09 -2.10655846E-02
 -1.25541303E-05 -2.69976639E-10 -6.79039688E-09  1.98962915E-03  3.18959372E-05
  5.38779976E-10  1.37065400E-08 -3.11988008E-04 -2.72440769E-05  2.87870269E-09
  5.29754497E-08  7.50285357E-03  7.50231050E-03  7.50231034E-03  1.53981562E-10
  2.72785258E-09 -3.58409377E-12  5.86922860E-06 -2.16578814E-05  6.21503086E-05
  2.58368042E-06  9.04501642E-09 -3.77156274E-06  5.90348986E-06 -2.16146424E-05
  6.19885993E-05  2.51295072E-06  3.25217980E-06  1.90017699E-06  5.90126336E-06
 -2.16175518E-05  6.20008517E-05  2.51703969E-06 -3.26058810E-06  1.88634908E-06
  9.32919421E-07  2.29867729E-06  1.35884822E-06 -1.47997027E-11  3.51974136E-09
 -8.05961172E-05 -4.28924851E-05  3.21065516E-09  2.44592306E-08 -1.58090343E-03
  4.20693993E-04 -2.29703481E-08 -5.61302054E-07  2.52376986E-06  1.98255966E-06
  1.98378662E-06  1.09380589E-10  2.80116328E-11 -2.71006143E-11 -2.75583602E-07
 -2.15113489E-06  6.07280917E-07 -5.67859570E-11  1.69538863E-09  3.90255591E-05
 -2.34036524E-05  1.56554671E-09  1.19778808E-08  1.65059739E-04 -8.69822961E-05
  7.82368590E-09  1.79816368E-07  7.74282154E-07 -5.85121864E-07 -5.85490241E-07
 -1.59023329E-10 -3.52839605E-09  1.04770979E-11  9.60007905E-06 -1.87439254E-04
  2.70836517E-04 -1.03037568E-08 -2.39965126E-07  9.87134015E-04  6.45460687E-04
 -1.71570689E-08 -6.42766036E-07  1.03841575E-02  2.81498423E-03 -7.14025535E-08
 -1.73734539E-06  4.73294529E-04  2.70348584E-05  2.70256605E-05 -1.56044488E-08
 -5.06590778E-07  1.07369977E-09  7.28428873E-09 -8.67217752E-07  4.61689157E-06
  3.56012384E-10  6.96443045E-09  3.07401445E-06 -2.65639162E-05 -1.92848600E-09
 -3.73083200E-08 -3.55329199E-05  6.44622523E-05  4.27164420E-09  7.22629837E-08
  4.02169589E-04  1.20433668E-04  8.89276883E-09  2.68074818E-07  1.58131694E-06
 -7.49770493E-06 -7.49505692E-06  7.21505855E-10  1.78015197E-08 -7.03270349E-11
  3.38705906E-07 -6.66734958E-05 -2.14073894E-04 -2.75166362E-06  3.46290304E-09
 -1.84886705E-06  3.33952357E-07 -6.67197034E-05 -2.13560848E-04 -2.76478955E-06
  1.61808056E-06  9.44602398E-07  3.35921547E-07 -6.67072939E-05 -2.13605957E-04
 -2.76193753E-06 -1.62295318E-06  9.36993235E-07  7.73943078E-05  3.27440263E-04
 -5.58456733E-04  4.28787277E-08  5.32785955E-07 -5.62454247E-06  1.34022314E-03
 -7.05565443E-08 -1.30484092E-06 -8.01507288E-03  4.30908035E-03 -2.79239807E-07
 -5.21510242E-06 -1.44517219E-03  1.87851615E-05  1.87873264E-05  1.14060565E-07
  1.58474784E-06 -7.84553016E-11  9.92763832E-01  3.47178820E-02 -2.14308905E-03
  1.66991968E-07  1.98499894E-06  3.56941076E-03  8.24963376E-04 -7.37020182E-08
 -8.19284320E-07 -3.32474494E-03 -4.44327842E-04  3.78237651E-08  9.48641568E-07
 -7.31326977E-03 -8.36394075E-03 -8.36393780E-03 -9.10275416E-08 -1.13326242E-06
 -5.68208692E-11  5.68149746E-03  9.83731659E-05 -4.35002899E-04  2.19894406E-08
  5.25040986E-07  7.16527329E-03  2.60568580E-03 -1.33687080E-07 -2.74242315E-06
  7.95327934E-02  2.85177316E-02 -7.39050182E-07 -1.61962673E-05 -1.01482281E-03
 -1.99074494E-04 -1.99083064E-04  4.02119691E-08  9.14760636E-07  9.97438515E-10
 -1.77590712E-08 -2.07999354E-06  2.45412521E-05  1.95251792E-09  4.32196758E-08
  3.62390118E-06 -1.49187187E-04 -1.09281901E-08 -2.40589845E-07 -2.66430764E-04
  5.11568524E-04  2.41672518E-08  5.11971152E-07  4.66000067E-03  1.74680414E-03
  1.79723676E-07  3.68966795E-06  2.84865900E-05 -3.05842917E-05 -3.05677305E-05
  8.11073146E-09  1.74261077E-07 -3.81903385E-10 -1.21694253E-04 -7.22049938E-04
  1.81978022E-04  4.22332215E-05 -3.28658084E-08  1.38963119E-05 -1.21748597E-04
 -7.22377694E-04  1.86557856E-04  4.18153971E-05 -1.21766658E-05 -7.09470721E-06
 -1.21744813E-04 -7.22379127E-04  1.86441836E-04  4.18281963E-05  1.21980228E-05
 -7.03658339E-06  9.92770874E-01  5.04088746E-02  2.55510025E-04 -3.99910658E-08
 -1.93445746E-07 -1.05772181E-02  7.52296739E-03 -3.89391224E-07 -7.47495070E-06
 -8.82783886E-02  2.46938154E-02 -1.55778562E-06 -3.62967787E-05 -7.83319757E-03
 -9.89242632E-03 -9.89239793E-03 -1.52514004E-07 -2.17421614E-06  5.41302026E-12
 -4.70243227E-04  3.43674540E-04  3.35426625E-04 -2.00611391E-08 -1.44555721E-07
 -7.77766147E-03  3.18564608E-03 -3.15085416E-07 -3.70259466E-06  8.32573613E-03
 -6.39778231E-03  5.60694884E-07  1.19185312E-05 -2.89958594E-05  3.35012110E-04
  3.35015149E-04  4.86464557E-08  3.26414145E-07 -1.22589689E-10  9.93016373E-01
  5.06533027E-02  7.58081036E-04 -2.52713190E-09  1.86980101E-07 -2.45490001E-02
 -4.58655746E-03  1.70429352E-07  2.35460361E-06  4.68409990E-02  1.99046556E-02
 -4.47839652E-07 -1.22094362E-05 -8.94247108E-03 -8.86761507E-03 -8.86746254E-03
 -6.33496833E-09 -6.42256696E-08  3.51571245E-09  1.11356143E-06  1.54413402E-05
  5.35640284E-06  1.74997519E-09  3.37918035E-08  5.54132961E-05 -2.97413304E-05
 -1.02815539E-08 -2.01733555E-07 -3.70822097E-04  1.98302649E-04  2.77334260E-08
  6.01502581E-07  3.99694770E-03  1.55668775E-03  1.39618489E-07  2.72711982E-06
  1.76655072E-05  2.54285782E-05  2.53931403E-05  8.03475871E-09  1.62902997E-07
  1.26297050E-09  3.11278981E-06  3.19298944E-03  2.46098195E-04  2.60935694E-05
  2.69411641E-07 -1.21253055E-04  3.10437815E-06  3.19403089E-03  2.53790203E-04
  2.63776212E-05  1.05007892E-04  6.09207379E-05  3.10995029E-06  3.19405588E-03
  2.53626172E-04  2.63735036E-05 -1.05271901E-04  6.04462920E-05 -5.98049453E-03
 -4.30180185E-04  2.69817081E-04 -1.03630882E-08 -2.39982933E-07  3.52008261E-03
 -9.46545259E-03  5.17494914E-07  9.73654182E-06 -5.47738838E-02  1.39151537E-02
 -1.01758004E-06 -2.25789366E-05 -8.36957137E-04 -2.25976791E-06 -2.31850744E-06
  5.26611348E-08  8.82218399E-07  4.24580186E-10 -1.79051474E-05 -4.85625382E-05
 -2.48993284E-04  2.15059292E-08  4.09585881E-07  5.34745702E-03 -1.76254641E-03
  1.72453677E-07  5.57982097E-07  4.99515619E-03 -2.56906247E-03  3.14415956E-07
  6.75812714E-06  1.48820062E-04 -7.44993792E-05 -7.44894281E-05 -3.60508096E-08
 -1.85015216E-07  7.61577140E-11  5.45115253E-05  3.46299868E-04  1.87341159E-04
  8.10644473E-09  8.55877775E-08 -4.80303321E-03 -4.00547754E-03  1.79250736E-07
  5.27923140E-06  1.15367759E-02  6.23531825E-03  9.72100166E-08  3.41555028E-06
 -1.75198481E-04  9.70443356E-05  9.68667349E-05  8.41527165E-09  2.01758830E-07
  3.18824885E-09 -2.84642148E-01  1.02265350E+00  2.31065227E-04  5.08085768E-09
  1.93339483E-07  7.50241543E-02  4.20949105E-04  1.10734046E-08  2.83333855E-07
 -2.08018580E-02 -1.22747833E-03 -2.68642346E-08 -6.26565025E-07  1.11566694E-02
  3.53787803E-03  3.63962410E-08  8.52334543E-07 -1.56580335E-02 -1.56472893E-02
 -1.56472265E-02 -3.34836342E-09 -3.70971288E-08 -1.40425576E-09 -1.22857444E-05
 -7.60248346E-04 -2.78230418E-03  1.18213943E-04  1.22778621E-07 -5.70279806E-05
 -1.14511286E-05 -7.66417277E-04 -2.76800548E-03  1.18678061E-04  4.98350859E-05
  2.87711392E-05 -1.15102154E-05 -7.66135240E-04 -2.76891550E-03  1.18651644E-04
 -4.99421456E-05  2.85313375E-05 -4.25331764E-05 -2.70787888E-04 -2.33718337E-05
  1.85919995E-09  3.91665748E-08 -4.99823994E-05 -6.48099060E-03  3.62925105E-07
  5.76132986E-06 -5.59317575E-03  8.95923061E-04 -5.19168964E-07 -1.04815477E-05
  9.48164259E-05 -3.84297780E-05 -3.84742693E-05 -2.71755650E-09 -1.25534064E-07
  1.40557538E-09 -1.19983450E-04 -4.83917897E-04  2.67198989E-05 -3.28763650E-09
  5.52758675E-08  6.23018843E-03 -1.90284169E-03  1.65166440E-07  1.42200550E-06
 -1.92329881E-03  9.62553909E-04  1.05382348E-07  2.30617129E-06 -1.85800653E-04
 -2.38159676E-04 -2.38139495E-04 -1.03587573E-08 -6.06990276E-08 -6.40463966E-10
 -1.07182082E-07 -4.76845313E-07 -1.75387571E-07  2.12402193E-07 -9.32405073E-06
  1.58858923E-06 -3.19124003E-06  1.34173332E-05 -5.89255879E-04 -1.14940460E-04
 -4.46953295E-05 -8.37619786E-06  3.68415218E-04 -1.39686236E-07 -3.84515001E-05
  3.82295887E-05 -8.27145059E-07  3.62970135E-05  7.12516517E-07 -2.13017615E-08
  3.62957738E-08 -9.60304743E-04 -2.25546932E-02  9.90574068E-01 -2.36106669E-07
 -2.85773731E-05 -6.73887007E-04  2.95962894E-02  1.09826509E-06  1.03740996E-05
  2.59221259E-04 -1.13846530E-02 -1.01413951E-05 -8.42127938E-06 -1.09710734E-04
  4.81829321E-03 -1.44324381E-07  3.06488759E-06 -2.92487880E-06 -9.54241948E-07
  4.19168156E-05 -5.71889163E-08  1.45200483E-04 -9.81718502E-04  4.06031048E-03
 -1.05083829E-06  1.08126206E-08 -1.04771411E-04 -6.96322605E-05  4.68108064E-04
 -1.96074925E-03  6.93553109E-07 -4.81901790E-05 -1.69849502E-05 -7.47909524E-05
  5.02921648E-04 -2.10524743E-03  7.34173046E-07  5.13808680E-05 -1.88169224E-05
 -1.25911606E-07 -5.70463291E-07  8.88089006E-09 -8.04529825E-07  3.53406098E-05
 -3.22322280E-06 -7.35995916E-06  9.40025157E-07 -4.13398980E-05  1.34980536E-04
 -4.28339437E-05 -2.58541977E-05  1.13642029E-03 -3.23464986E-07 -5.01245594E-06
  4.77689981E-06  4.05144323E-07 -1.78106401E-05  9.12779629E-08 -1.76620187E-07
 -7.53415782E-07  5.48265713E-08  2.16177146E-07 -9.53663797E-06  9.10469945E-06
 -3.97074111E-06 -1.37649922E-06  6.06811831E-05 -3.63142461E-06  7.91094100E-06
  9.61313874E-06 -4.22964286E-04 -2.20402952E-08  2.73707307E-06 -3.52147490E-06
  1.29137260E-07 -5.67239878E-06 -5.82084593E-08 -8.41820313E-09 -3.76500095E-08
 -1.03826304E-08 -9.69237696E-06 -2.20596442E-07  1.47827040E-07 -2.37120223E-07
 -5.85192431E-04 -1.33238494E-05 -7.34734620E-06 -2.87716550E-06  3.62749131E-04
  8.27189470E-06 -1.19070213E-08 -6.20227148E-07  6.03528323E-07  3.58867086E-05
  8.16424944E-07 -4.40165401E-05 -2.77077396E-09  6.67097672E-09 -6.69176433E-05
  9.90574628E-01  2.25546409E-02 -1.21473873E-08 -1.99346585E-06  2.95958313E-02
  6.73875103E-04  8.33979039E-08  7.24952246E-07 -1.13833799E-02 -2.59190515E-04
 -6.91112724E-07 -5.80553744E-07  4.81538185E-03  1.09641207E-04 -1.24099935E-08
  4.83668365E-08 -4.86839635E-08  4.19103412E-05  9.54443767E-07  3.56471895E-06
  2.99770668E-06 -2.02739958E-05  8.29729341E-05 -1.63574354E-08  1.07584701E-05
 -2.13089332E-06 -1.27216757E-04  8.53943307E-04 -3.54545022E-03  1.08854383E-06
 -7.63372941E-05 -5.03177475E-05  1.24271535E-04 -8.34466757E-04  3.46212967E-03
 -1.04330868E-06 -7.45446445E-05  4.92588805E-05 -8.27880787E-09 -3.77845735E-08
  2.05818732E-09  3.52159915E-05  8.01970364E-07 -2.07309530E-07 -4.95093314E-07
 -4.15358061E-05 -9.47136225E-07  8.62736617E-06 -2.77580469E-06  1.13265939E-03
  2.58111195E-05 -2.04833816E-08 -8.50554590E-08  6.94909033E-08 -1.76954015E-05
 -4.03318064E-07 -5.57842316E-06 -1.13174650E-08 -4.89638617E-08  3.65992293E-09
 -9.50792753E-06 -2.17458861E-07  5.96034199E-07 -2.59299110E-07  6.04977904E-05
  1.38254935E-06 -1.75685259E-07  5.07576615E-07 -4.20835722E-04 -9.59971878E-06
 -1.90958500E-09  2.56559229E-08 -7.46643056E-08 -5.67641495E-06 -1.29246026E-07
  3.61162359E-06  1.83939504E-05  2.88696739E-04  2.27806089E-04  3.48537626E-09
 -2.04017890E-08 -6.95449126E-03 -6.05709061E-03  3.01998398E-07  7.77037247E-06
 -1.00606191E-01 -3.89932802E-02  9.26703297E-07  2.09793130E-05 -3.30870097E-04
 -2.55339565E-05 -2.57062072E-05  1.35160033E-08  3.07876056E-07  2.56969460E-09
  1.02955170E-04 -2.32708922E-04  9.90718400E-01  4.50352620E-05  9.61439774E-04
  3.73907202E-04  3.02142502E-02  1.37218481E-06  2.93348103E-05 -1.62774771E-03
 -1.31416652E-02 -5.79119283E-07 -1.23874304E-05 -4.41389956E-03  2.91403163E-03
 -4.54481517E-08 -5.71204467E-07  1.68542806E-04  2.67440162E-04  2.67440714E-04
 -1.31207855E-08 -2.56075980E-07  4.13473225E-12 -1.21585352E-04 -2.70683733E-04
 -2.51685364E-03  1.80956873E-04  4.26102415E-08 -2.53802049E-05 -1.21061741E-04
 -2.77529974E-04 -2.52048443E-03  1.82280439E-04  2.27191611E-05  1.28310506E-05
 -1.21106596E-04 -2.77194050E-04 -2.52046568E-03  1.82207004E-04 -2.27504954E-05
  1.26985959E-05 -1.55577738E-04 -7.71492740E-04  2.19319053E-05 -1.11171340E-08