RxCoord=-7.28689 DE=1.15                                                
Freq      RB3LYP                                                      6-31++G(d,p)        
Number of atoms                            I                7
Info1-9                                    I   N=           9
          16          16           0           0           0         100
           6          18        -502
Full Title                                 C   N=           2
RxCoord=-7.28689 DE=1.15
Route                                      C   N=           6
#p b3lyp 6-31++g(d,p) scf=verytight NoSymm freq=noraman int=
ultrafine   
Charge                                     I               -1
Multiplicity                               I                1
Number of electrons                        I               40
Number of alpha electrons                  I               20
Number of beta electrons                   I               20
Number of basis functions                  I               98
Number of independent functions            I               98
Number of point charges in /Mol/           I                0
Number of translation vectors              I                0
Atomic numbers                             I   N=           7
           6          17           1           1           1           6
           7
Nuclear charges                            R   N=           7
  6.00000000E+00  1.70000000E+01  1.00000000E+00  1.00000000E+00  1.00000000E+00
  6.00000000E+00  7.00000000E+00
Current cartesian coordinates              R   N=          21
  1.50238707E+00  1.85193160E-04  2.59081452E-03 -4.62567350E+00 -3.40150702E-05
 -6.33058252E-04  7.80687436E-01  4.57313722E-03 -1.92890960E+00  7.82441102E-01
  1.67086560E+00  9.73265646E-01  7.82272916E-01 -1.67481891E+00  9.65697293E-01
  4.25369792E+00 -9.44863062E-06  2.30546587E-04  6.44985258E+00 -1.11493841E-04
 -1.55902405E-03
Number of symbols in /Mol/                 I                0
Force Field                                I                0
Atom Types                                 C   N=           7
                                                            
                        
Int Atom Types                             I   N=           7
           0           0           0           0           0           0
           0
MM charges                                 R   N=           7
  0.00000000E+00  0.00000000E+00  0.00000000E+00  0.00000000E+00  0.00000000E+00
  0.00000000E+00  0.00000000E+00
Integer atomic weights                     I   N=           7
          12          35           1           1           1          12
          14
Real atomic weights                        R   N=           7
  1.20000000E+01  3.49688527E+01  1.00782504E+00  1.00782504E+00  1.00782504E+00
  1.20000000E+01  1.40030740E+01
Atom fragment info                         I   N=           7
           0           0           0           0           0           0
           0
Atom residue num                           I   N=           7
           0           0           0           0           0           0
           0
Nuclear spins                              I   N=           7
           0           3           1           1           1           0
           2
Nuclear ZEff                               R   N=           7
 -3.60000000E+00 -1.42400000E+01 -1.00000000E+00 -1.00000000E+00 -1.00000000E+00
 -3.60000000E+00 -4.55000000E+00
Nuclear ZNuc                               R   N=           7
  6.00000000E+00  1.70000000E+01  1.00000000E+00  1.00000000E+00  1.00000000E+00
  6.00000000E+00  7.00000000E+00
Nuclear QMom                               R   N=           7
  0.00000000E+00 -8.16500000E+00  0.00000000E+00  0.00000000E+00  0.00000000E+00
  0.00000000E+00  2.04400000E+00
Nuclear GFac                               R   N=           7
  0.00000000E+00  8.21874000E-01  2.79284600E+00  2.79284600E+00  2.79284600E+00
  0.00000000E+00  4.03761000E-01
MicOpt                                     I   N=           7
          -1          -1          -1          -1          -1          -1
          -1
Number of residues                         I                0
Number of secondary structures             I                0
Number of contracted shells                I               33
Number of primitive shells                 I               72
Pure/Cartesian d shells                    I                1
Pure/Cartesian f shells                    I                0
Highest angular momentum                   I                2
Largest degree of contraction              I                6
Shell types                                I   N=          33
           0          -1          -1          -1           2           0
          -1          -1          -1          -1           2           0
           0           0           1           0           0           0
           1           0           0           0           1           0
          -1          -1          -1           2           0          -1
          -1          -1           2
Number of primitives per shell             I   N=          33
           6           3           1           1           1           6
           6           3           1           1           1           3
           1           1           1           3           1           1
           1           3           1           1           1           6
           3           1           1           1           6           3
           1           1           1
Shell to atom map                          I   N=          33
           1           1           1           1           1           2
           2           2           2           2           2           3
           3           3           3           4           4           4
           4           5           5           5           5           6
           6           6           6           6           7           7
           7           7           7
Primitive exponents                        R   N=          72
  3.04752488E+03  4.57369518E+02  1.03948685E+02  2.92101553E+01  9.28666296E+00
  3.16392696E+00  7.86827235E+00  1.88128854E+00  5.44249258E-01  1.68714478E-01
  4.38000000E-02  8.00000000E-01  2.51801000E+04  3.78035000E+03  8.60474000E+02
  2.42145000E+02  7.73349000E+01  2.62470000E+01  4.91765000E+02  1.16984000E+02
  3.74153000E+01  1.37834000E+01  5.45215000E+00  2.22588000E+00  3.18649000E+00
  1.14427000E+00  4.20377000E-01  1.42657000E-01  4.83000000E-02  7.50000000E-01
  1.87311370E+01  2.82539436E+00  6.40121692E-01  1.61277759E-01  3.60000000E-02
  1.10000000E+00  1.87311370E+01  2.82539436E+00  6.40121692E-01  1.61277759E-01
  3.60000000E-02  1.10000000E+00  1.87311370E+01  2.82539436E+00  6.40121692E-01
  1.61277759E-01  3.60000000E-02  1.10000000E+00  3.04752488E+03  4.57369518E+02
  1.03948685E+02  2.92101553E+01  9.28666296E+00  3.16392696E+00  7.86827235E+00
  1.88128854E+00  5.44249258E-01  1.68714478E-01  4.38000000E-02  8.00000000E-01
  4.17351146E+03  6.27457911E+02  1.42902093E+02  4.02343293E+01  1.28202129E+01
  4.39043701E+00  1.16263619E+01  2.71627981E+00  7.72218397E-01  2.12031498E-01
  6.39000000E-02  8.00000000E-01
Contraction coefficients                   R   N=          72
  1.83473713E-03  1.40373228E-02  6.88426223E-02  2.32184443E-01  4.67941348E-01
  3.62311985E-01 -1.19332420E-01 -1.60854152E-01  1.14345644E+00  1.00000000E+00
  1.00000000E+00  1.00000000E+00  1.83295985E-03  1.40341988E-02  6.90973943E-02
  2.37451980E-01  4.83033960E-01  3.39855972E-01 -2.29739142E-03 -3.07137189E-02
 -1.12528069E-01  4.50163278E-02  5.89353363E-01  4.65206287E-01 -2.51828028E-01
  6.15892514E-02  1.06018433E+00  1.00000000E+00  1.00000000E+00  1.00000000E+00
  3.34946043E-02  2.34726953E-01  8.13757326E-01  1.00000000E+00  1.00000000E+00
  1.00000000E+00  3.34946043E-02  2.34726953E-01  8.13757326E-01  1.00000000E+00
  1.00000000E+00  1.00000000E+00  3.34946043E-02  2.34726953E-01  8.13757326E-01
  1.00000000E+00  1.00000000E+00  1.00000000E+00  1.83473713E-03  1.40373228E-02
  6.88426223E-02  2.32184443E-01  4.67941348E-01  3.62311985E-01 -1.19332420E-01
 -1.60854152E-01  1.14345644E+00  1.00000000E+00  1.00000000E+00  1.00000000E+00
  1.83477216E-03  1.39946270E-02  6.85865518E-02  2.32240873E-01  4.69069948E-01
  3.60455199E-01 -1.14961182E-01 -1.69117479E-01  1.14585195E+00  1.00000000E+00
  1.00000000E+00  1.00000000E+00
P(S=P) Contraction coefficients            R   N=          72
  0.00000000E+00  0.00000000E+00  0.00000000E+00  0.00000000E+00  0.00000000E+00
  0.00000000E+00  6.89990666E-02  3.16423961E-01  7.44308291E-01  1.00000000E+00
  1.00000000E+00  0.00000000E+00  0.00000000E+00  0.00000000E+00  0.00000000E+00
  0.00000000E+00  0.00000000E+00  0.00000000E+00  3.98940088E-03  3.03177067E-02
  1.29880029E-01  3.27951072E-01  4.53527100E-01  2.52154056E-01 -1.42993147E-02
  3.23572333E-01  7.43507765E-01  1.00000000E+00  1.00000000E+00  0.00000000E+00
  0.00000000E+00  0.00000000E+00  0.00000000E+00  0.00000000E+00  0.00000000E+00
  0.00000000E+00  0.00000000E+00  0.00000000E+00  0.00000000E+00  0.00000000E+00
  0.00000000E+00  0.00000000E+00  0.00000000E+00  0.00000000E+00  0.00000000E+00
  0.00000000E+00  0.00000000E+00  0.00000000E+00  0.00000000E+00  0.00000000E+00
  0.00000000E+00  0.00000000E+00  0.00000000E+00  0.00000000E+00  6.89990666E-02
  3.16423961E-01  7.44308291E-01  1.00000000E+00  1.00000000E+00  0.00000000E+00
  0.00000000E+00  0.00000000E+00  0.00000000E+00  0.00000000E+00  0.00000000E+00
  0.00000000E+00  6.75797439E-02  3.23907296E-01  7.40895140E-01  1.00000000E+00
  1.00000000E+00  0.00000000E+00
Coordinates of each shell                  R   N=          99
  1.50238707E+00  1.85193160E-04  2.59081452E-03  1.50238707E+00  1.85193160E-04
  2.59081452E-03  1.50238707E+00  1.85193160E-04  2.59081452E-03  1.50238707E+00
  1.85193160E-04  2.59081452E-03  1.50238707E+00  1.85193160E-04  2.59081452E-03
 -4.62567350E+00 -3.40150702E-05 -6.33058252E-04 -4.62567350E+00 -3.40150702E-05
 -6.33058252E-04 -4.62567350E+00 -3.40150702E-05 -6.33058252E-04 -4.62567350E+00
 -3.40150702E-05 -6.33058252E-04 -4.62567350E+00 -3.40150702E-05 -6.33058252E-04
 -4.62567350E+00 -3.40150702E-05 -6.33058252E-04  7.80687436E-01  4.57313722E-03
 -1.92890960E+00  7.80687436E-01  4.57313722E-03 -1.92890960E+00  7.80687436E-01
  4.57313722E-03 -1.92890960E+00  7.80687436E-01  4.57313722E-03 -1.92890960E+00
  7.82441102E-01  1.67086560E+00  9.73265646E-01  7.82441102E-01  1.67086560E+00
  9.73265646E-01  7.82441102E-01  1.67086560E+00  9.73265646E-01  7.82441102E-01
  1.67086560E+00  9.73265646E-01  7.82272916E-01 -1.67481891E+00  9.65697293E-01
  7.82272916E-01 -1.67481891E+00  9.65697293E-01  7.82272916E-01 -1.67481891E+00
  9.65697293E-01  7.82272916E-01 -1.67481891E+00  9.65697293E-01  4.25369792E+00
 -9.44863062E-06  2.30546587E-04  4.25369792E+00 -9.44863062E-06  2.30546587E-04
  4.25369792E+00 -9.44863062E-06  2.30546587E-04  4.25369792E+00 -9.44863062E-06
  2.30546587E-04  4.25369792E+00 -9.44863062E-06  2.30546587E-04  6.44985258E+00
 -1.11493841E-04 -1.55902405E-03  6.44985258E+00 -1.11493841E-04 -1.55902405E-03
  6.44985258E+00 -1.11493841E-04 -1.55902405E-03  6.44985258E+00 -1.11493841E-04
 -1.55902405E-03  6.44985258E+00 -1.11493841E-04 -1.55902405E-03
Num ILSW                                   I              100
ILSW                                       I   N=         100
           0           1           0           0           2           0
           0           0           0           0         402          -1
           5           0           0           0           2           0
           0           0           0           0           1           0
           1           1           0           0           0           0
           0           0      100000           0          -1           0
           0           0           0           0           0           0
           0           0           0           1           0           0
           0 -2000000000           1           0           0           0
           0           0           4          52           0           0
           0           0           5           0           0           0
           0           0           0           7           0           1
           0           0           0           0           0           0
           0           0           0           0           0           0
           0           0           0           0           0           0
           0           0           0           0           0           0
           0           0           0           0
Num RLSW                                   I               52
RLSW                                       R   N=          52
  8.00000000E-01  7.20000000E-01  1.00000000E+00  8.10000000E-01  2.00000000E-01
  0.00000000E+00  0.00000000E+00  1.00000000E+00  0.00000000E+00  0.00000000E+00
  0.00000000E+00  0.00000000E+00  1.00000000E+00  0.00000000E+00  0.00000000E+00
  0.00000000E+00  0.00000000E+00  1.00000000E+00  0.00000000E+00  0.00000000E+00
  0.00000000E+00  0.00000000E+00  1.00000000E+00  0.00000000E+00  0.00000000E+00
  0.00000000E+00  0.00000000E+00  1.00000000E+00  0.00000000E+00  0.00000000E+00
  0.00000000E+00  0.00000000E+00  1.00000000E+00  0.00000000E+00  0.00000000E+00
  0.00000000E+00  0.00000000E+00  0.00000000E+00  1.00000000E+00  1.00000000E+00
  0.00000000E+00  1.00000000E+00  0.00000000E+00  0.00000000E+00  0.00000000E+00
  0.00000000E+00  0.00000000E+00  0.00000000E+00  0.00000000E+00  0.00000000E+00
  0.00000000E+00  0.00000000E+00
MxBond                                     I                4
NBond                                      I   N=           7
           4           0           1           1           1           2
           1
IBond                                      I   N=          28
           3           4           5           6           0           0
           0           0           1           0           0           0
           1           0           0           0           1           0
           0           0           1           7           0           0
           6           0           0           0
RBond                                      R   N=          28
  1.00000000E+00  1.00000000E+00  1.00000000E+00  1.00000000E+00  0.00000000E+00
  0.00000000E+00  0.00000000E+00  0.00000000E+00  1.00000000E+00  0.00000000E+00
  0.00000000E+00  0.00000000E+00  1.00000000E+00  0.00000000E+00  0.00000000E+00
  0.00000000E+00  1.00000000E+00  0.00000000E+00  0.00000000E+00  0.00000000E+00
  1.00000000E+00  3.00000000E+00  0.00000000E+00  0.00000000E+00  3.00000000E+00
  0.00000000E+00  0.00000000E+00  0.00000000E+00
Virial Ratio                               R      2.004689821705409E+00
SCF Energy                                 R     -5.930599482763615E+02
Total Energy                               R     -5.930599482763615E+02
RMS Force                                  R      1.834557322355972E-03
RMS Density                                R      1.754073359906011E-09
NImag                                      I                2
Job Status                                 I                1
Nuclear derivative order                   I                2
External E-field                           R   N=          35
  0.00000000E+00  0.00000000E+00  0.00000000E+00  0.00000000E+00  0.00000000E+00
  0.00000000E+00  0.00000000E+00  0.00000000E+00  0.00000000E+00  0.00000000E+00
  0.00000000E+00  0.00000000E+00  0.00000000E+00  0.00000000E+00  0.00000000E+00
  0.00000000E+00  0.00000000E+00  0.00000000E+00  0.00000000E+00  0.00000000E+00
  0.00000000E+00  0.00000000E+00  0.00000000E+00  0.00000000E+00  0.00000000E+00
  0.00000000E+00  0.00000000E+00  0.00000000E+00  0.00000000E+00  0.00000000E+00
  0.00000000E+00  0.00000000E+00  0.00000000E+00  0.00000000E+00  0.00000000E+00
IOpCl                                      I                0
IROHF                                      I                0
Alpha Orbital Energies                     R   N=          98
 -1.01254879E+02 -1.42281589E+01 -1.01251636E+01 -1.00957308E+01 -9.16834427E+00
 -6.92618218E+00 -6.92618176E+00 -6.92601917E+00 -7.98074467E-01 -6.43403216E-01
 -5.06681444E-01 -3.81103790E-01 -3.26807393E-01 -3.26740920E-01 -2.58745875E-01
 -2.16903046E-01 -2.16892329E-01 -5.33602557E-02 -5.26512475E-02 -5.26491726E-02
  1.01058894E-01  1.36218375E-01  1.36259090E-01  1.43164744E-01  1.47419369E-01
  1.47429537E-01  1.99235123E-01  2.05664298E-01  2.05691787E-01  2.19429067E-01
  2.31648934E-01  2.31691026E-01  2.53034186E-01  2.59607497E-01  2.59631884E-01
  2.93147488E-01  3.27506569E-01  3.36029828E-01  3.36043956E-01  3.43763280E-01
  3.43800156E-01  3.50904459E-01  3.94135627E-01  4.10006859E-01  4.85170379E-01
  6.90312955E-01  7.87108497E-01  7.87114618E-01  8.47099123E-01  8.47109992E-01
  8.49337281E-01  8.49338685E-01  8.55858513E-01  8.87435430E-01  9.85905519E-01
  1.02508216E+00  1.02517472E+00  1.03193034E+00  1.09784149E+00  1.11988841E+00
  1.11990020E+00  1.15364128E+00  1.15364607E+00  1.15917751E+00  1.15919627E+00
  1.21204147E+00  1.25161095E+00  1.27499864E+00  1.45332216E+00  1.45339393E+00
  1.53992956E+00  1.62633774E+00  1.62634340E+00  1.86228179E+00  1.86235188E+00
  1.90493754E+00  2.05336620E+00  2.05337802E+00  2.14823486E+00  2.23687514E+00
  2.23696769E+00  2.31009057E+00  2.39722404E+00  2.39732391E+00  2.77421820E+00
  2.80190754E+00  2.80193544E+00  3.05322576E+00  3.09048500E+00  3.09075626E+00
  3.28456423E+00  3.45284419E+00  3.55205678E+00  3.55212950E+00  4.25180174E+00
  4.44269098E+00  4.57905275E+00  4.80971032E+00
Alpha MO coefficients                      R   N=        9604
  9.66049755E-07  1.05239825E-05 -5.03619801E-06  7.94057726E-10  1.00239611E-08
 -1.19053204E-05  1.04572378E-05 -5.32972797E-10 -8.39762345E-09  1.33909678E-03
  4.70911015E-04 -2.50646128E-08 -3.06387295E-07 -8.69353259E-06  3.29977035E-06
  3.28833349E-06  3.94814179E-10  3.23978930E-09  4.83972241E-10  9.95997963E-01
  1.51392647E-02  4.43186222E-06  1.30704007E-10  3.13025084E-09 -2.10656087E-02
 -1.23722425E-05 -3.00531195E-10 -5.72388372E-09  1.98919144E-03  3.14692782E-05
  5.89200629E-10  1.14101579E-08 -3.09796014E-04 -2.62287495E-05  3.88974848E-09
  4.74601233E-08  7.50291350E-03  7.50245848E-03  7.50245832E-03  2.02457769E-10
  2.32054482E-09 -8.43669702E-12  5.72807891E-06 -2.23693813E-05  6.28060063E-05
  3.06100105E-06  9.57519267E-09 -3.94407666E-06  5.75815426E-06 -2.23370768E-05
  6.26781261E-05  3.00064847E-06  3.40342252E-06  1.98643435E-06  5.75556089E-06
 -2.23391897E-05  6.26864539E-05  3.00577620E-06 -3.41227968E-06  1.97173111E-06
  8.52529667E-07  1.70302761E-06  1.38326748E-06  4.01658051E-10  3.31153748E-09
 -8.12672287E-05 -5.55543849E-05  1.07241965E-09  3.04381954E-08 -1.61164156E-03
  4.26877652E-04 -4.36942593E-08 -5.14910799E-07  2.91239286E-06  1.88830137E-06
  1.88941494E-06 -1.59874314E-10 -7.53749991E-10 -3.07160273E-11 -4.41243817E-07
 -2.90165010E-06  7.42436225E-07  2.18145405E-10  1.53707229E-09  4.94403790E-05
 -2.71696241E-05  3.39144138E-10  1.33421747E-08  1.70040746E-04 -8.83303086E-05
  1.32087721E-08  1.63390951E-07  5.39864933E-07 -8.92918849E-07 -8.93245325E-07
 -2.60425811E-10 -3.35190304E-09  9.00729550E-12  9.60237705E-06 -1.87440240E-04
  2.70963824E-04 -1.80372456E-08 -2.14406485E-07  9.90228150E-04  6.48098605E-04
 -6.38812133E-08 -5.90987157E-07  1.04473991E-02  2.84539845E-03 -1.59335818E-07
 -1.60640261E-06  4.73548698E-04  2.70245281E-05  2.70138743E-05 -4.39937048E-08
 -4.67169774E-07  2.47069692E-10  4.85094735E-09 -1.01844570E-06  4.64836587E-06
  4.56324391E-10  6.12268803E-09  2.87783562E-06 -2.68667989E-05 -2.43310728E-09
 -3.28168110E-08 -3.39190470E-05  6.62199086E-05  4.58856969E-09  6.35216044E-08
  4.09023412E-04  1.21834628E-04  1.97436357E-08  2.40189112E-07  1.56771479E-06
 -7.89745110E-06 -7.89512164E-06  1.28753746E-09  1.60266131E-08 -1.06687803E-10
  3.00111454E-07 -6.60055232E-05 -2.11828296E-04 -2.82561995E-06  5.44774905E-09
 -1.82009406E-06  2.94770170E-07 -6.60275245E-05 -2.11403465E-04 -2.83361934E-06
  1.60105457E-06  9.33993602E-07  2.94375883E-07 -6.60421732E-05 -2.11443703E-04
 -2.83526275E-06 -1.60090827E-06  9.25780654E-07  7.74869509E-05  3.27784242E-04
 -5.58320203E-04  2.59461782E-08  4.66680714E-07 -7.05555919E-06  1.34515242E-03
 -8.76145492E-08 -1.17758592E-06 -8.09504925E-03  4.33006862E-03 -3.54049837E-07
 -4.68613972E-06 -1.44522592E-03  1.89197204E-05  1.89224638E-05  8.79995963E-08
  1.39833359E-06 -2.97950754E-10  9.92763823E-01  3.47185576E-02 -2.14285763E-03
  9.23317171E-08  1.72646378E-06  3.56537039E-03  8.26244647E-04 -3.49335563E-08
 -7.06810505E-07 -3.32161266E-03 -4.47059498E-04  7.21306673E-08  8.56699495E-07
 -7.31333746E-03 -8.36393944E-03 -8.36393687E-03 -5.58004069E-08 -9.92454444E-07
 -1.57308061E-10  5.66111260E-03  9.66321277E-05 -4.35337266E-04  4.52255989E-08
  4.79199812E-07  7.18065004E-03  2.61883047E-03 -2.76055972E-07 -2.42932849E-06
  8.02494402E-02  2.88662961E-02 -1.35687256E-06 -1.50406307E-05 -1.01388665E-03
 -1.98753065E-04 -1.98773928E-04  7.58143866E-08  8.27844389E-07  1.02729645E-09
 -3.29221705E-08 -2.46833087E-06  2.46977777E-05  2.86775126E-09  3.87747647E-08
  2.61242908E-06 -1.50419120E-04 -1.59000477E-08 -2.15817341E-07 -2.61930479E-04
  5.19720934E-04  3.29292068E-08  4.58749476E-07  4.75428439E-03  1.77515537E-03
  2.41061975E-07  3.22784360E-06  2.85097337E-05 -3.14022676E-05 -3.13877655E-05
  1.18003592E-08  1.54374987E-07 -8.03030976E-10 -1.21852477E-04 -7.18111670E-04
  2.01239191E-04  4.18410794E-05 -2.82782687E-08  1.41338493E-05 -1.21915825E-04
 -7.18438634E-04  2.05571479E-04  4.13865379E-05 -1.23761537E-05 -7.21114870E-06
 -1.21925829E-04 -7.18468102E-04  2.05026784E-04  4.14277459E-05  1.23890099E-05
 -7.13959014E-06  9.92771615E-01  5.04133510E-02  2.56867100E-04  7.68945031E-09
 -1.68793425E-07 -1.05877820E-02  7.54945115E-03 -5.02561214E-07 -6.76111490E-06
 -8.91720218E-02  2.49296747E-02 -2.73164461E-06 -3.29222587E-05 -7.83161624E-03
 -9.89177601E-03 -9.89174643E-03 -1.26160460E-07 -1.91850873E-06 -7.57171866E-10
 -4.69993876E-04  3.45231212E-04  3.35812942E-04 -7.94268424E-10 -1.23395499E-07
 -7.80171787E-03  3.19563835E-03 -1.73830581E-07 -3.20820125E-06  8.35856017E-03
 -6.42873104E-03  8.46579910E-07  1.07031498E-05 -2.96847899E-05  3.35793506E-04
  3.35795993E-04  1.06391873E-09  2.65338902E-07 -2.09927328E-10  9.93016260E-01
  5.06551764E-02  7.59134312E-04 -2.32485913E-08  1.63431735E-07 -2.45509569E-02
 -4.58530044E-03  4.02262841E-07  1.99134799E-06  4.71231531E-02  2.00643249E-02
 -7.73352781E-07 -1.16698103E-05 -8.94242820E-03 -8.86834117E-03 -8.86816422E-03
 -7.59023794E-09 -7.73312187E-08  1.34821931E-08  1.13915254E-06  1.55761459E-05
  5.32319231E-06  2.09837891E-09  2.71676433E-08  5.66549272E-05 -2.96204594E-05
 -1.25320740E-08 -1.63559804E-07 -3.72791643E-04  1.97086654E-04  3.57192057E-08
  5.05466095E-07  4.05634814E-03  1.57388531E-03  1.70111262E-07  2.35726002E-06
  1.71733070E-05  2.56527738E-05  2.56227634E-05  1.03717441E-08  1.39251376E-07
  1.47503333E-09  3.13451033E-06  3.19421846E-03  2.53544454E-04  2.60937304E-05
  2.63472973E-07 -1.21107256E-04  3.08921788E-06  3.19540262E-03  2.60984410E-04
  2.64219780E-05  1.04853946E-04  6.08360849E-05  3.13169338E-06  3.19548520E-03
  2.60569916E-04  2.64035035E-05 -1.05126663E-04  6.03486201E-05 -5.96003293E-03
 -4.28453839E-04  2.70138985E-04 -1.35185243E-08 -2.32322617E-07  3.51790039E-03
 -9.46270844E-03  5.85264621E-07  8.84697276E-06 -5.51448534E-02  1.40056670E-02
 -1.77066788E-06 -2.00746591E-05 -8.37187469E-04 -2.08682064E-06 -2.15178469E-06
  6.39325437E-08  7.74843032E-07  9.79669916E-10 -1.78528836E-05 -4.82123851E-05
 -2.49084106E-04  2.48567286E-08  3.69380837E-07  5.34421043E-03 -1.76112214E-03
 -3.47806744E-08  3.68117037E-07  5.00884677E-03 -2.57890896E-03  5.12839400E-07
  5.91360840E-06  1.48819342E-04 -7.44096743E-05 -7.43997644E-05  1.92575040E-09
 -1.39016006E-07 -2.58788337E-10  5.46171286E-05  3.47019359E-04  1.90291290E-04
  4.30761184E-09  6.97623776E-08 -4.85690028E-03 -4.05449016E-03  3.66545847E-07
  4.80713481E-06  1.14624905E-02  6.30379662E-03  6.87947083E-08  3.20087870E-06
 -1.75321682E-04  9.66516400E-05  9.64980416E-05  2.12185121E-08  1.85354713E-07
  7.16915665E-09 -2.84641925E-01  1.02265498E+00  2.26693120E-04  8.39546461E-09
  1.98813518E-07  7.50310037E-02  4.24924067E-04  1.32579158E-08  2.50727185E-07
 -2.08376669E-02 -1.24079122E-03 -2.90247101E-08 -5.44886032E-07  1.12515758E-02
  3.57917067E-03  2.92035327E-08  7.23518801E-07 -1.56565368E-02 -1.56433461E-02
 -1.56432905E-02 -4.02006532E-09 -2.77277190E-08 -1.67905242E-09 -1.45696457E-05
 -7.51711804E-04 -2.77976839E-03  1.18532751E-04  1.14209737E-07 -5.64045431E-05
 -1.38999358E-05 -7.57240571E-04 -2.76772821E-03  1.18958522E-04  4.92289959E-05
  2.84378256E-05 -1.39526317E-05 -7.56824387E-04 -2.76888735E-03  1.18916398E-04
 -4.93336275E-05  2.81860832E-05 -4.31482056E-05 -2.74028627E-04 -2.35469788E-05
 -8.86757298E-10  4.16063325E-08 -2.03399737E-05 -6.53768791E-03  3.98769624E-07
  5.14950826E-06 -5.61367494E-03  8.86017076E-04 -6.61099829E-07 -9.34888314E-06
  9.52761902E-05 -3.93190961E-05 -3.93551850E-05 -1.28290573E-08 -1.18377767E-07
  2.02254454E-09 -1.20402170E-04 -4.85884142E-04  2.68012971E-05  8.99841179E-09
  5.30745644E-08  6.26533927E-03 -1.91311486E-03  2.38580965E-08  1.22361110E-06
 -1.92172446E-03  9.65940622E-04  1.44768575E-07  2.04772649E-06 -1.86502271E-04
 -2.38748104E-04 -2.38730547E-04  3.15599896E-09 -5.03910067E-08 -7.47794295E-10
 -7.78225469E-08 -3.11185281E-07 -1.31034692E-07  3.08929027E-07 -1.01006461E-05
 -3.29079298E-07 -3.71750218E-06  1.80923986E-05 -5.91899809E-04 -1.21272624E-04
 -4.68575917E-05 -1.12112117E-05  3.68206754E-04 -1.58708774E-07 -3.85549694E-05
  3.83781350E-05 -1.11118477E-06  3.63080015E-05  1.05777991E-06  8.54425906E-09
 -4.41017002E-08 -6.68918934E-04 -3.02784513E-02  9.90367734E-01 -1.49801176E-07
 -1.97823679E-05 -9.04729404E-04  2.95924665E-02  6.87532817E-07  6.82779726E-06
  3.48112604E-04 -1.13861531E-02 -9.73514454E-06 -6.88314935E-06 -1.47535897E-04
  4.82518706E-03 -9.41778058E-08  3.10488263E-06 -2.88447288E-06 -1.27977657E-06
  4.18568088E-05 -8.43258553E-08  1.46710079E-04 -9.92999474E-04  4.08079655E-03
  7.58486048E-07 -7.79650375E-08 -1.06051065E-04 -6.94467142E-05  4.67830064E-04
 -1.94332841E-03 -1.60077403E-07 -4.83324995E-05 -1.66578856E-05 -7.66371358E-05
  5.16405283E-04 -2.14359541E-03 -1.93341735E-07  5.27531977E-05 -1.93019311E-05
 -1.41736544E-07 -6.50150969E-07  1.22324371E-08 -1.10104046E-06  3.60227140E-05
 -2.41020912E-06 -8.37845934E-06  1.34469844E-06 -4.38853361E-05  1.41093733E-04
 -4.42051605E-05 -3.48267981E-05  1.13759013E-03 -3.03594387E-07 -5.15327249E-06
  4.85974802E-06  5.44788418E-07 -1.78240743E-05  1.38603964E-07 -1.77467333E-07
 -7.65915949E-07  5.56260770E-08  2.97908132E-07 -9.69978337E-06  9.53650827E-06
 -4.06665027E-06 -1.89314508E-06  6.17076214E-05 -3.76721630E-06  7.87049881E-06
  1.29167790E-05 -4.21568146E-04 -2.96085743E-08  2.76527335E-06 -3.53591665E-06
  1.81075656E-07 -5.92077946E-06 -8.64907780E-08 -8.06335066E-09 -2.60874849E-08
 -5.97046178E-09 -1.04234976E-05 -3.18554310E-07 -2.93870957E-07 -6.25063623E-07
 -5.88368996E-04 -1.79915176E-05 -1.61046800E-05 -6.19775041E-06  3.63195108E-04
  1.11505335E-05 -2.92069243E-08 -9.19669837E-07  8.99038750E-07  3.59514981E-05
  1.09799917E-06 -4.42021075E-05  2.42077504E-09 -6.31050396E-09 -3.37357066E-05
  9.90368045E-01  3.02784381E-02  2.26866017E-09 -9.68208868E-07  2.95920561E-02
  9.04714674E-04  3.07822507E-08  2.39281550E-07 -1.13850273E-02 -3.48069069E-04
 -1.18502234E-06 -6.12020835E-07  4.82261948E-03  1.47425650E-04 -7.72842868E-09
  8.50345216E-08 -5.86490443E-08  4.18513359E-05  1.27941769E-06  3.56045402E-06
  4.16894543E-06 -2.82538316E-05  1.14864772E-04  3.54524205E-08  1.11341854E-05
 -2.98199571E-06 -1.29136834E-04  8.68622591E-04 -3.58128171E-03 -4.84423551E-07
 -7.76737443E-05 -5.12190723E-05  1.25023900E-04 -8.41331691E-04  3.46558825E-03
  5.11207532E-07 -7.50788226E-05  4.98724476E-05 -2.05511300E-08 -9.65146594E-08
  2.31647621E-09  3.59079615E-05  1.09810059E-06 -1.99279807E-07 -1.29146670E-06
 -4.40132617E-05 -1.34231014E-06  1.85910299E-05 -5.74174657E-06  1.13415647E-03
  3.46280834E-05 -3.41080764E-08 -1.39680637E-07  9.38785141E-08 -1.77228671E-05
 -5.41981475E-07 -5.71551951E-06 -2.35880760E-08 -1.03347436E-07  7.79516365E-09
 -9.67027235E-06 -2.94298334E-07  1.33896888E-06 -5.56322548E-07  6.15170881E-05
  1.87440416E-06 -4.75433348E-07  9.75063227E-07 -4.19634278E-04 -1.28014615E-05
 -5.29868926E-09  2.50930385E-08 -1.24823367E-07 -5.92126111E-06 -1.80987861E-07
  3.63737281E-06  1.70467291E-05  2.80488318E-04  2.29748258E-04 -5.68886243E-09
 -3.28579105E-08 -6.93237854E-03 -6.07091233E-03  5.92616205E-07  7.10257281E-06
 -1.01748825E-01 -3.95066205E-02  1.56828350E-06  1.96125703E-05 -3.26996289E-04
 -2.85273332E-05 -2.86920234E-05  2.69134785E-08  2.74052719E-07  8.31274066E-09
  1.02042488E-04 -2.27749321E-04  9.90717262E-01  1.32662546E-05  6.69493847E-04
  3.77195303E-04  3.02220499E-02  4.31336107E-07  2.05393386E-05 -1.64131434E-03
 -1.31673445E-02 -2.29077935E-07 -8.86002036E-06 -4.55664949E-03  2.87161728E-03
 -2.82702307E-07 -1.30831800E-06  1.69139019E-04  2.71328921E-04  2.71329651E-04
 -1.92098766E-08 -2.24510395E-07  1.46830756E-10 -1.25325592E-04 -2.51164473E-04
 -2.51455832E-03  1.78925150E-04  2.44610468E-08 -2.34414213E-05 -1.24932832E-04
 -2.57504161E-04 -2.51723879E-03  1.80115652E-04  2.09635158E-05  1.18503060E-05
 -1.24969328E-04 -2.56945854E-04 -2.51723088E-03  1.80007320E-04 -2.09832605E-05
  1.17031420E-05 -1.56121380E-04 -7.73215260E-04  2.14410635E-05 -4.84176741E-08