RxCoord=-7.18691 DE=1.22                                                
Freq      RB3LYP                                                      6-31++G(d,p)        
Number of atoms                            I                7
Info1-9                                    I   N=           9
          16          16           0           0           0         100
           6          18        -502
Full Title                                 C   N=           2
RxCoord=-7.18691 DE=1.22
Route                                      C   N=           6
#p b3lyp 6-31++g(d,p) scf=verytight NoSymm freq=noraman int=
ultrafine   
Charge                                     I               -1
Multiplicity                               I                1
Number of electrons                        I               40
Number of alpha electrons                  I               20
Number of beta electrons                   I               20
Number of basis functions                  I               98
Number of independent functions            I               98
Number of point charges in /Mol/           I                0
Number of translation vectors              I                0
Atomic numbers                             I   N=           7
           6          17           1           1           1           6
           7
Nuclear charges                            R   N=           7
  6.00000000E+00  1.70000000E+01  1.00000000E+00  1.00000000E+00  1.00000000E+00
  6.00000000E+00  7.00000000E+00
Current cartesian coordinates              R   N=          21
  1.49203326E+00  1.71965077E-04  2.15428778E-03 -4.61325611E+00 -3.40150702E-05
 -4.19519200E-04  7.70399767E-01  4.63738791E-03 -1.92925353E+00  7.71794385E-01
  1.67066907E+00  9.72728964E-01  7.71595964E-01 -1.67465828E+00  9.65068014E-01
  4.24302096E+00  1.51178090E-05  1.13383567E-04  6.43913594E+00 -1.24721924E-04
 -1.51178090E-03
Number of symbols in /Mol/                 I                0
Force Field                                I                0
Atom Types                                 C   N=           7
                                                            
                        
Int Atom Types                             I   N=           7
           0           0           0           0           0           0
           0
MM charges                                 R   N=           7
  0.00000000E+00  0.00000000E+00  0.00000000E+00  0.00000000E+00  0.00000000E+00
  0.00000000E+00  0.00000000E+00
Integer atomic weights                     I   N=           7
          12          35           1           1           1          12
          14
Real atomic weights                        R   N=           7
  1.20000000E+01  3.49688527E+01  1.00782504E+00  1.00782504E+00  1.00782504E+00
  1.20000000E+01  1.40030740E+01
Atom fragment info                         I   N=           7
           0           0           0           0           0           0
           0
Atom residue num                           I   N=           7
           0           0           0           0           0           0
           0
Nuclear spins                              I   N=           7
           0           3           1           1           1           0
           2
Nuclear ZEff                               R   N=           7
 -3.60000000E+00 -1.42400000E+01 -1.00000000E+00 -1.00000000E+00 -1.00000000E+00
 -3.60000000E+00 -4.55000000E+00
Nuclear ZNuc                               R   N=           7
  6.00000000E+00  1.70000000E+01  1.00000000E+00  1.00000000E+00  1.00000000E+00
  6.00000000E+00  7.00000000E+00
Nuclear QMom                               R   N=           7
  0.00000000E+00 -8.16500000E+00  0.00000000E+00  0.00000000E+00  0.00000000E+00
  0.00000000E+00  2.04400000E+00
Nuclear GFac                               R   N=           7
  0.00000000E+00  8.21874000E-01  2.79284600E+00  2.79284600E+00  2.79284600E+00
  0.00000000E+00  4.03761000E-01
MicOpt                                     I   N=           7
          -1          -1          -1          -1          -1          -1
          -1
Number of residues                         I                0
Number of secondary structures             I                0
Number of contracted shells                I               33
Number of primitive shells                 I               72
Pure/Cartesian d shells                    I                1
Pure/Cartesian f shells                    I                0
Highest angular momentum                   I                2
Largest degree of contraction              I                6
Shell types                                I   N=          33
           0          -1          -1          -1           2           0
          -1          -1          -1          -1           2           0
           0           0           1           0           0           0
           1           0           0           0           1           0
          -1          -1          -1           2           0          -1
          -1          -1           2
Number of primitives per shell             I   N=          33
           6           3           1           1           1           6
           6           3           1           1           1           3
           1           1           1           3           1           1
           1           3           1           1           1           6
           3           1           1           1           6           3
           1           1           1
Shell to atom map                          I   N=          33
           1           1           1           1           1           2
           2           2           2           2           2           3
           3           3           3           4           4           4
           4           5           5           5           5           6
           6           6           6           6           7           7
           7           7           7
Primitive exponents                        R   N=          72
  3.04752488E+03  4.57369518E+02  1.03948685E+02  2.92101553E+01  9.28666296E+00
  3.16392696E+00  7.86827235E+00  1.88128854E+00  5.44249258E-01  1.68714478E-01
  4.38000000E-02  8.00000000E-01  2.51801000E+04  3.78035000E+03  8.60474000E+02
  2.42145000E+02  7.73349000E+01  2.62470000E+01  4.91765000E+02  1.16984000E+02
  3.74153000E+01  1.37834000E+01  5.45215000E+00  2.22588000E+00  3.18649000E+00
  1.14427000E+00  4.20377000E-01  1.42657000E-01  4.83000000E-02  7.50000000E-01
  1.87311370E+01  2.82539436E+00  6.40121692E-01  1.61277759E-01  3.60000000E-02
  1.10000000E+00  1.87311370E+01  2.82539436E+00  6.40121692E-01  1.61277759E-01
  3.60000000E-02  1.10000000E+00  1.87311370E+01  2.82539436E+00  6.40121692E-01
  1.61277759E-01  3.60000000E-02  1.10000000E+00  3.04752488E+03  4.57369518E+02
  1.03948685E+02  2.92101553E+01  9.28666296E+00  3.16392696E+00  7.86827235E+00
  1.88128854E+00  5.44249258E-01  1.68714478E-01  4.38000000E-02  8.00000000E-01
  4.17351146E+03  6.27457911E+02  1.42902093E+02  4.02343293E+01  1.28202129E+01
  4.39043701E+00  1.16263619E+01  2.71627981E+00  7.72218397E-01  2.12031498E-01
  6.39000000E-02  8.00000000E-01
Contraction coefficients                   R   N=          72
  1.83473713E-03  1.40373228E-02  6.88426223E-02  2.32184443E-01  4.67941348E-01
  3.62311985E-01 -1.19332420E-01 -1.60854152E-01  1.14345644E+00  1.00000000E+00
  1.00000000E+00  1.00000000E+00  1.83295985E-03  1.40341988E-02  6.90973943E-02
  2.37451980E-01  4.83033960E-01  3.39855972E-01 -2.29739142E-03 -3.07137189E-02
 -1.12528069E-01  4.50163278E-02  5.89353363E-01  4.65206287E-01 -2.51828028E-01
  6.15892514E-02  1.06018433E+00  1.00000000E+00  1.00000000E+00  1.00000000E+00
  3.34946043E-02  2.34726953E-01  8.13757326E-01  1.00000000E+00  1.00000000E+00
  1.00000000E+00  3.34946043E-02  2.34726953E-01  8.13757326E-01  1.00000000E+00
  1.00000000E+00  1.00000000E+00  3.34946043E-02  2.34726953E-01  8.13757326E-01
  1.00000000E+00  1.00000000E+00  1.00000000E+00  1.83473713E-03  1.40373228E-02
  6.88426223E-02  2.32184443E-01  4.67941348E-01  3.62311985E-01 -1.19332420E-01
 -1.60854152E-01  1.14345644E+00  1.00000000E+00  1.00000000E+00  1.00000000E+00
  1.83477216E-03  1.39946270E-02  6.85865518E-02  2.32240873E-01  4.69069948E-01
  3.60455199E-01 -1.14961182E-01 -1.69117479E-01  1.14585195E+00  1.00000000E+00
  1.00000000E+00  1.00000000E+00
P(S=P) Contraction coefficients            R   N=          72
  0.00000000E+00  0.00000000E+00  0.00000000E+00  0.00000000E+00  0.00000000E+00
  0.00000000E+00  6.89990666E-02  3.16423961E-01  7.44308291E-01  1.00000000E+00
  1.00000000E+00  0.00000000E+00  0.00000000E+00  0.00000000E+00  0.00000000E+00
  0.00000000E+00  0.00000000E+00  0.00000000E+00  3.98940088E-03  3.03177067E-02
  1.29880029E-01  3.27951072E-01  4.53527100E-01  2.52154056E-01 -1.42993147E-02
  3.23572333E-01  7.43507765E-01  1.00000000E+00  1.00000000E+00  0.00000000E+00
  0.00000000E+00  0.00000000E+00  0.00000000E+00  0.00000000E+00  0.00000000E+00
  0.00000000E+00  0.00000000E+00  0.00000000E+00  0.00000000E+00  0.00000000E+00
  0.00000000E+00  0.00000000E+00  0.00000000E+00  0.00000000E+00  0.00000000E+00
  0.00000000E+00  0.00000000E+00  0.00000000E+00  0.00000000E+00  0.00000000E+00
  0.00000000E+00  0.00000000E+00  0.00000000E+00  0.00000000E+00  6.89990666E-02
  3.16423961E-01  7.44308291E-01  1.00000000E+00  1.00000000E+00  0.00000000E+00
  0.00000000E+00  0.00000000E+00  0.00000000E+00  0.00000000E+00  0.00000000E+00
  0.00000000E+00  6.75797439E-02  3.23907296E-01  7.40895140E-01  1.00000000E+00
  1.00000000E+00  0.00000000E+00
Coordinates of each shell                  R   N=          99
  1.49203326E+00  1.71965077E-04  2.15428778E-03  1.49203326E+00  1.71965077E-04
  2.15428778E-03  1.49203326E+00  1.71965077E-04  2.15428778E-03  1.49203326E+00
  1.71965077E-04  2.15428778E-03  1.49203326E+00  1.71965077E-04  2.15428778E-03
 -4.61325611E+00 -3.40150702E-05 -4.19519200E-04 -4.61325611E+00 -3.40150702E-05
 -4.19519200E-04 -4.61325611E+00 -3.40150702E-05 -4.19519200E-04 -4.61325611E+00
 -3.40150702E-05 -4.19519200E-04 -4.61325611E+00 -3.40150702E-05 -4.19519200E-04
 -4.61325611E+00 -3.40150702E-05 -4.19519200E-04  7.70399767E-01  4.63738791E-03
 -1.92925353E+00  7.70399767E-01  4.63738791E-03 -1.92925353E+00  7.70399767E-01
  4.63738791E-03 -1.92925353E+00  7.70399767E-01  4.63738791E-03 -1.92925353E+00
  7.71794385E-01  1.67066907E+00  9.72728964E-01  7.71794385E-01  1.67066907E+00
  9.72728964E-01  7.71794385E-01  1.67066907E+00  9.72728964E-01  7.71794385E-01
  1.67066907E+00  9.72728964E-01  7.71595964E-01 -1.67465828E+00  9.65068014E-01
  7.71595964E-01 -1.67465828E+00  9.65068014E-01  7.71595964E-01 -1.67465828E+00
  9.65068014E-01  7.71595964E-01 -1.67465828E+00  9.65068014E-01  4.24302096E+00
  1.51178090E-05  1.13383567E-04  4.24302096E+00  1.51178090E-05  1.13383567E-04
  4.24302096E+00  1.51178090E-05  1.13383567E-04  4.24302096E+00  1.51178090E-05
  1.13383567E-04  4.24302096E+00  1.51178090E-05  1.13383567E-04  6.43913594E+00
 -1.24721924E-04 -1.51178090E-03  6.43913594E+00 -1.24721924E-04 -1.51178090E-03
  6.43913594E+00 -1.24721924E-04 -1.51178090E-03  6.43913594E+00 -1.24721924E-04
 -1.51178090E-03  6.43913594E+00 -1.24721924E-04 -1.51178090E-03
Num ILSW                                   I              100
ILSW                                       I   N=         100
           0           1           0           0           2           0
           0           0           0           0         402          -1
           5           0           0           0           2           0
           0           0           0           0           1           0
           1           1           0           0           0           0
           0           0      100000           0          -1           0
           0           0           0           0           0           0
           0           0           0           1           0           0
           0 -2000000000           1           0           0           0
           0           0           4          52           0           0
           0           0           5           0           0           0
           0           0           0           7           0           1
           0           0           0           0           0           0
           0           0           0           0           0           0
           0           0           0           0           0           0
           0           0           0           0           0           0
           0           0           0           0
Num RLSW                                   I               52
RLSW                                       R   N=          52
  8.00000000E-01  7.20000000E-01  1.00000000E+00  8.10000000E-01  2.00000000E-01
  0.00000000E+00  0.00000000E+00  1.00000000E+00  0.00000000E+00  0.00000000E+00
  0.00000000E+00  0.00000000E+00  1.00000000E+00  0.00000000E+00  0.00000000E+00
  0.00000000E+00  0.00000000E+00  1.00000000E+00  0.00000000E+00  0.00000000E+00
  0.00000000E+00  0.00000000E+00  1.00000000E+00  0.00000000E+00  0.00000000E+00
  0.00000000E+00  0.00000000E+00  1.00000000E+00  0.00000000E+00  0.00000000E+00
  0.00000000E+00  0.00000000E+00  1.00000000E+00  0.00000000E+00  0.00000000E+00
  0.00000000E+00  0.00000000E+00  0.00000000E+00  1.00000000E+00  1.00000000E+00
  0.00000000E+00  1.00000000E+00  0.00000000E+00  0.00000000E+00  0.00000000E+00
  0.00000000E+00  0.00000000E+00  0.00000000E+00  0.00000000E+00  0.00000000E+00
  0.00000000E+00  0.00000000E+00
MxBond                                     I                4
NBond                                      I   N=           7
           4           0           1           1           1           2
           1
IBond                                      I   N=          28
           3           4           5           6           0           0
           0           0           1           0           0           0
           1           0           0           0           1           0
           0           0           1           7           0           0
           6           0           0           0
RBond                                      R   N=          28
  1.00000000E+00  1.00000000E+00  1.00000000E+00  1.00000000E+00  0.00000000E+00
  0.00000000E+00  0.00000000E+00  0.00000000E+00  1.00000000E+00  0.00000000E+00
  0.00000000E+00  0.00000000E+00  1.00000000E+00  0.00000000E+00  0.00000000E+00
  0.00000000E+00  1.00000000E+00  0.00000000E+00  0.00000000E+00  0.00000000E+00
  1.00000000E+00  3.00000000E+00  0.00000000E+00  0.00000000E+00  3.00000000E+00
  0.00000000E+00  0.00000000E+00  0.00000000E+00
Virial Ratio                               R      2.004686138607626E+00
SCF Energy                                 R     -5.930599157601268E+02
Total Energy                               R     -5.930599157601268E+02
RMS Force                                  R      1.863343657922932E-03
RMS Density                                R      1.689503780817109E-09
NImag                                      I                2
Job Status                                 I                1
Nuclear derivative order                   I                2
External E-field                           R   N=          35
  0.00000000E+00  0.00000000E+00  0.00000000E+00  0.00000000E+00  0.00000000E+00
  0.00000000E+00  0.00000000E+00  0.00000000E+00  0.00000000E+00  0.00000000E+00
  0.00000000E+00  0.00000000E+00  0.00000000E+00  0.00000000E+00  0.00000000E+00
  0.00000000E+00  0.00000000E+00  0.00000000E+00  0.00000000E+00  0.00000000E+00
  0.00000000E+00  0.00000000E+00  0.00000000E+00  0.00000000E+00  0.00000000E+00
  0.00000000E+00  0.00000000E+00  0.00000000E+00  0.00000000E+00  0.00000000E+00
  0.00000000E+00  0.00000000E+00  0.00000000E+00  0.00000000E+00  0.00000000E+00
IOpCl                                      I                0
IROHF                                      I                0
Alpha Orbital Energies                     R   N=          98
 -1.01254907E+02 -1.42278192E+01 -1.01248060E+01 -1.00952306E+01 -9.16838679E+00
 -6.92622653E+00 -6.92622616E+00 -6.92605425E+00 -7.97768189E-01 -6.43029506E-01
 -5.06800191E-01 -3.80717417E-01 -3.26415073E-01 -3.26340943E-01 -2.58451123E-01
 -2.16572446E-01 -2.16559817E-01 -5.34117057E-02 -5.27529554E-02 -5.27510797E-02
  1.01235210E-01  1.36464372E-01  1.36498970E-01  1.43271993E-01  1.47670380E-01
  1.47679002E-01  1.99336300E-01  2.05830887E-01  2.05854727E-01  2.19426316E-01
  2.31881411E-01  2.31914934E-01  2.53272683E-01  2.59675879E-01  2.59696042E-01
  2.93602431E-01  3.27692071E-01  3.36283522E-01  3.36297719E-01  3.44131790E-01
  3.44167290E-01  3.51613639E-01  3.94216366E-01  4.10348684E-01  4.85419711E-01
  6.90192219E-01  7.87387782E-01  7.87395557E-01  8.47350671E-01  8.47383001E-01
  8.49451588E-01  8.49470089E-01  8.56278795E-01  8.88086889E-01  9.85915186E-01
  1.02536639E+00  1.02546278E+00  1.03291884E+00  1.09784596E+00  1.12031061E+00
  1.12032430E+00  1.15358931E+00  1.15359358E+00  1.15922660E+00  1.15924377E+00
  1.21319402E+00  1.25330229E+00  1.27572839E+00  1.45372916E+00  1.45380654E+00
  1.54032274E+00  1.62664288E+00  1.62664872E+00  1.86270871E+00  1.86277458E+00
  1.90617054E+00  2.05370217E+00  2.05370871E+00  2.14874139E+00  2.23749365E+00
  2.23759686E+00  2.31123744E+00  2.39765679E+00  2.39775607E+00  2.77624884E+00
  2.80236650E+00  2.80240252E+00  3.05399126E+00  3.09106901E+00  3.09135084E+00
  3.28512979E+00  3.45350724E+00  3.55269779E+00  3.55278002E+00  4.25253364E+00
  4.44352075E+00  4.57965612E+00  4.81025198E+00
Alpha MO coefficients                      R   N=        9604
  1.00211129E-06  1.15171901E-05 -4.73305767E-06  9.50313932E-10  8.50259161E-09
 -2.05239413E-05  3.48208915E-06 -1.13402276E-09 -4.49385196E-10  1.36297720E-03
  4.82524868E-04 -1.94686338E-08 -2.75216989E-07 -9.72613644E-06  3.25606237E-06
  3.24639593E-06  4.76566527E-10  2.55164684E-09  5.68721523E-10  9.95997958E-01
  1.51393335E-02  4.36925424E-06  7.50035426E-11  2.90440358E-09 -2.10656305E-02
 -1.21778929E-05 -2.27257424E-10 -4.73000582E-09  1.98869512E-03  3.09964542E-05
  4.55025341E-10  9.26071541E-09 -3.07500131E-04 -2.51589884E-05  3.61553629E-09
  4.08962282E-08  7.50297730E-03  7.50262099E-03  7.50262083E-03  1.63704783E-10
  1.89359028E-09 -5.81320618E-12  5.57130792E-06 -2.30905367E-05  6.34897304E-05
  3.55212239E-06  1.02175965E-08 -4.11892985E-06  5.59674172E-06 -2.30662789E-05
  6.33842947E-05  3.50303844E-06  3.55638638E-06  2.07368498E-06  5.59339543E-06
 -2.30681948E-05  6.33976635E-05  3.50869973E-06 -3.56568610E-06  2.05820075E-06
  7.70077819E-07  1.09276768E-06  1.40728115E-06  9.26191680E-11  2.64715918E-09
 -8.18622422E-05 -6.84372031E-05  3.93704045E-09  3.77116616E-08 -1.64242391E-03
  4.33008977E-04 -3.39425212E-08 -4.46403290E-07  3.31151391E-06  1.79082571E-06
  1.79184649E-06 -7.04988653E-12 -1.11252673E-09 -1.94322378E-11 -6.08985040E-07
 -3.66283565E-06  8.80936200E-07  6.89544890E-11  1.03221897E-09  6.00038097E-05
 -3.09840923E-05  1.30075881E-09  1.61801405E-08  1.75072377E-04 -8.96715929E-05
  1.07731783E-08  1.41479993E-07  3.00761275E-07 -1.20346159E-06 -1.20375360E-06
 -1.72032200E-10 -3.09115220E-09  1.11994514E-11  9.60504474E-06 -1.87442607E-04
  2.71099825E-04 -1.50949329E-08 -1.81898134E-07  9.93463012E-04  6.50851236E-04
 -3.66724987E-08 -4.88260498E-07  1.05112274E-02  2.87618421E-03 -1.09098947E-07
 -1.38328674E-06  4.73823103E-04  2.70154438E-05  2.70017755E-05 -2.73881071E-08
 -3.97680606E-07  3.93493364E-11  2.45613168E-09 -1.17142866E-06  4.67725228E-06
  3.98893400E-10  5.19451890E-09  2.67644121E-06 -2.71588107E-05 -2.15044135E-09
 -2.78809243E-08 -3.22778315E-05  6.79893767E-05  4.44425166E-09  5.45058546E-08
  4.16041843E-04  1.23274508E-04  1.40340838E-08  2.00795897E-07  1.56101298E-06
 -8.29966922E-06 -8.29771781E-06  9.88687131E-10  1.36162026E-08 -9.55771068E-11
  2.63100561E-07 -6.53108260E-05 -2.09568353E-04 -2.89763047E-06  4.21488079E-09
 -1.79640780E-06  2.53837332E-07 -6.53593763E-05 -2.09216471E-04 -2.90913342E-06
  1.57971560E-06  9.20380351E-07  2.53737425E-07 -6.53566449E-05 -2.09258324E-04
 -2.90774591E-06 -1.58493209E-06  9.13842313E-07  7.75818799E-05  3.28118257E-04
 -5.58209677E-04  3.64346043E-08  4.25045965E-07 -8.55719618E-06  1.35025601E-03
 -8.02253399E-08 -1.03970288E-06 -8.17585311E-03  4.35122257E-03 -3.20425737E-07
 -4.10504799E-06 -1.44532062E-03  1.90616294E-05  1.90643394E-05  1.05329202E-07
  1.25596271E-06 -9.81927642E-11  9.92763811E-01  3.47192880E-02 -2.14266403E-03
  1.39487080E-07  1.57363655E-06  3.56122819E-03  8.27546941E-04 -5.93900123E-08
 -6.47451478E-07 -3.31848352E-03 -4.49790348E-04  5.43143494E-08  7.30214358E-07
 -7.31338453E-03 -8.36395055E-03 -8.36394840E-03 -7.76581563E-08 -9.02896715E-07
 -1.71313301E-11  5.64048499E-03  9.48178747E-05 -4.35711862E-04  2.94599474E-08
  4.09728682E-07  7.19692369E-03  2.63253216E-03 -1.87410513E-07 -1.96835539E-06
  8.09736885E-02  2.92194337E-02 -1.02771370E-06 -1.32596314E-05 -1.01294710E-03
 -1.98437361E-04 -1.98470059E-04  5.43453264E-08  7.05640357E-07 -1.75442111E-09
 -4.83006461E-08 -2.85907024E-06  2.48506812E-05  2.34169429E-09  3.34030656E-08
  1.58391229E-06 -1.51633445E-04 -1.30404761E-08 -1.85973823E-07 -2.57358891E-04
  5.27920990E-04  2.81044270E-08  3.95864044E-07  4.85070489E-03  1.80404553E-03
  2.15294880E-07  2.71504683E-06  2.85432269E-05 -3.22192026E-05 -3.22075403E-05
  9.78994005E-09  1.31086088E-07 -6.24427662E-10 -1.21996958E-04 -7.14182616E-04
  2.20999500E-04  4.14137971E-05 -3.41164185E-08  1.43894080E-05 -1.22093526E-04
 -7.14562524E-04  2.24331552E-04  4.09839590E-05 -1.25658408E-05 -7.32307913E-06
 -1.22096493E-04 -7.14572311E-04  2.24054655E-04  4.09910911E-05  1.25880616E-05
 -7.26038038E-06  9.92772357E-01  5.04179991E-02  2.58245108E-04 -1.46267337E-08
 -2.01438503E-07 -1.05985816E-02  7.57691037E-03 -4.53844506E-07 -5.96755922E-06
 -9.00761067E-02  2.51679666E-02 -2.13608273E-06 -2.83848471E-05 -7.83000436E-03
 -9.89114727E-03 -9.89111781E-03 -1.45289467E-07 -1.71219195E-06 -1.33848664E-10
 -4.69762254E-04  3.46815272E-04  3.36204544E-04 -1.23497818E-08 -1.26591539E-07
 -7.82652473E-03  3.20590965E-03 -2.62067371E-07 -2.91188842E-06  8.39147482E-03
 -6.45985250E-03  7.04447793E-07  9.22893763E-06 -3.03706898E-05  3.36584500E-04
  3.36586145E-04  2.96184817E-08  2.64055499E-07 -1.61557227E-10  9.93016115E-01
  5.06573120E-02  7.60160909E-04  2.08445748E-09  1.63874330E-07 -2.45534111E-02
 -4.58390482E-03  2.12901795E-07  1.38302022E-06  4.74052301E-02  2.02250152E-02
 -6.28323456E-07 -1.08181328E-05 -8.94242363E-03 -8.86917004E-03 -8.86894378E-03
  1.56483934E-09 -8.55318213E-08  2.97408944E-09  1.16491860E-06  1.57123011E-05
  5.28547931E-06  2.52770031E-09  2.05611245E-08  5.79022635E-05 -2.94894016E-05
 -1.49324213E-08 -1.25095526E-07 -3.74821219E-04  1.95816962E-04  4.06441245E-08
  4.04962669E-07  4.11672644E-03  1.59128439E-03  1.59939685E-07  1.97108767E-06
  1.67070410E-05  2.58709825E-05  2.58467172E-05  1.07947299E-08  1.14175750E-07
  1.72463258E-09  3.12454820E-06  3.19558266E-03  2.61258420E-04  2.61160239E-05
  2.76873704E-07 -1.20938783E-04  3.12814726E-06  3.19699217E-03  2.68062386E-04
  2.64541070E-05  1.04688333E-04  6.07443080E-05  3.12681136E-06  3.19702427E-03
  2.67752202E-04  2.64563898E-05 -1.04954117E-04  6.02579102E-05 -5.93934765E-03
 -4.26742406E-04  2.70478947E-04 -9.64547800E-09 -2.22288107E-07  3.51575556E-03
 -9.46010173E-03  5.55153030E-07  7.95033094E-06 -5.55172035E-02  1.40961583E-02
 -1.40003129E-06 -1.68505009E-05 -8.37426624E-04 -1.91821362E-06 -1.98877932E-06
  5.98914236E-08  6.62205644E-07 -1.52511194E-10 -1.78007893E-05 -4.78610514E-05
 -2.49174622E-04  2.29920314E-08  3.28182640E-07  5.34106551E-03 -1.75972855E-03
  8.67852857E-08  4.32008605E-07  5.02265420E-03 -2.58869951E-03  4.24643971E-07
  4.89173319E-06  1.48816120E-04 -7.43214709E-05 -7.43120463E-05 -2.04986590E-08
 -1.40079858E-07 -1.15126568E-10  5.47098348E-05  3.47535844E-04  1.93176170E-04
  4.45026928E-09  5.90500860E-08 -4.90931269E-03 -4.10254091E-03  2.96272163E-07
  4.14941456E-06  1.13835591E-02  6.37170212E-03  8.89810276E-08  3.02423735E-06
 -1.75233883E-04  9.62547631E-05  9.61311010E-05  1.36009427E-08  1.55368249E-07
  5.72956955E-09 -2.84641699E-01  1.02265647E+00  2.22156564E-04  2.43379229E-09
  2.01976045E-07  7.50380056E-02  4.28863148E-04  1.19607232E-08  2.16926945E-07
 -2.08739566E-02 -1.25424247E-03 -2.81608503E-08 -4.63609137E-07  1.13480412E-02
  3.62098134E-03  2.58261965E-08  6.05728192E-07 -1.56550855E-02 -1.56393693E-02
 -1.56393211E-02 -4.52485509E-09 -1.77330605E-08 -1.89395064E-09 -1.68530003E-05
 -7.43045039E-04 -2.77727620E-03  1.18761774E-04  1.18293809E-07 -5.57472633E-05
 -1.63175922E-05 -7.47764386E-04 -2.76770370E-03  1.19122140E-04  4.85857615E-05
  2.80854214E-05 -1.63888018E-05 -7.47365408E-04 -2.76887624E-03  1.19084938E-04
 -4.86879582E-05  2.78370546E-05 -4.37496795E-05 -2.77165827E-04 -2.37358596E-05
  7.31951385E-11  4.72703089E-08  9.76816257E-06 -6.59211572E-03  3.90433322E-07
  4.53357367E-06 -5.63006678E-03  8.75167660E-04 -5.86615072E-07 -8.11603767E-06
  9.56731101E-05 -4.01942242E-05 -4.02210772E-05 -6.92083898E-09 -9.96473529E-08
  2.15107635E-09 -1.20790785E-04 -4.87709645E-04  2.68609029E-05  2.00471510E-09
  3.64121490E-08  6.29855335E-03 -1.92264417E-03  1.08715683E-07  1.20531813E-06
 -1.92118631E-03  9.69632808E-04  1.21582101E-07  1.75601316E-06 -1.87168941E-04
 -2.39281616E-04 -2.39266683E-04 -4.58285656E-09 -5.67203256E-08 -7.49988632E-10
 -5.11132558E-08 -1.71105309E-07 -9.53657523E-08  4.36246022E-07 -1.08619658E-05
 -1.60936497E-06 -3.76790486E-06  2.39416449E-05 -5.94440325E-04 -1.17860657E-04
 -4.53248141E-05 -1.47892919E-05  3.67945110E-04 -1.55427219E-07 -3.86463527E-05
  3.85144804E-05 -1.46324146E-06  3.63007592E-05  1.48885191E-06  3.11462413E-08
 -1.06457054E-07 -4.36830552E-04 -3.98512768E-02  9.90028279E-01 -8.50409602E-08
 -1.28006317E-05 -1.19086424E-03  2.95847275E-02  3.63552639E-07  4.08752701E-06
  4.58327130E-04 -1.13862067E-02 -8.84056459E-06 -5.43674778E-06 -1.94486672E-04
  4.83151349E-03 -5.28440548E-08  3.12610681E-06 -2.85864759E-06 -1.68141873E-06
  4.17803078E-05 -1.18617131E-07  1.48133668E-04 -1.00413387E-03  4.10114617E-03
  2.61276197E-06 -1.94586429E-07 -1.07305311E-04 -6.89604901E-05  4.65722019E-04
 -1.91865444E-03 -1.02962164E-06 -4.83177645E-05 -1.62025951E-05 -7.86920500E-05
  5.31645591E-04 -2.18847094E-03 -1.19417429E-06  5.42855280E-05 -1.98754252E-05
 -1.42988882E-07 -6.59439915E-07  1.46764538E-08 -1.47610346E-06  3.67032961E-05
 -1.65174948E-06 -8.41981848E-06  1.85958357E-06 -4.64478191E-05  1.36138308E-04
 -4.23119959E-05 -4.58177558E-05  1.13859625E-03 -2.71004242E-07 -5.27380617E-06
  4.95953658E-06  7.17898133E-07 -1.78351599E-05  1.97456488E-07 -1.64341330E-07
 -7.15901875E-07  5.17951271E-08  3.96326876E-07 -9.86242363E-06  9.09403803E-06
 -3.82044275E-06 -2.51965428E-06  6.27342570E-05 -3.57483156E-06  7.33364683E-06
  1.69047825E-05 -4.20103774E-04 -3.23048171E-08  2.82158293E-06 -3.52208677E-06
  2.47619667E-07 -6.17053926E-06 -1.22289042E-07 -1.11358038E-08 -4.67693822E-08
 -1.09973969E-08 -1.11385039E-05 -4.49337255E-07  1.20872057E-07 -3.97179966E-07
 -5.91428416E-04 -2.37926659E-05 -1.11698341E-05 -4.42747298E-06  3.63502331E-04
  1.46532276E-05 -1.93582080E-08 -1.29321980E-06  1.26850000E-06  3.59991436E-05
  1.44701071E-06 -4.43738221E-05 -2.16761839E-09  5.50200464E-09 -6.77420529E-05
  9.90028447E-01  3.98512535E-02 -1.17582646E-08 -2.00817581E-06  2.95843721E-02
  1.19084881E-03  8.36560635E-08  6.95679479E-07 -1.13852434E-02 -4.58284075E-04
 -1.00202175E-06 -7.01122428E-07  4.82933203E-03  1.94388077E-04 -1.28437218E-08
  1.04298443E-07 -9.60187413E-08  4.17760692E-05  1.68195065E-06  3.55334496E-06
  5.64496312E-06 -3.82769933E-05  1.55060165E-04  1.07456471E-07  1.15294104E-05
 -4.05123178E-06 -1.31134553E-04  8.84238027E-04 -3.62070945E-03 -2.14732951E-06
 -7.90981005E-05 -5.21550496E-05  1.25551985E-04 -8.47051371E-04  3.46502235E-03
  2.08609579E-06 -7.54806884E-05  5.04497941E-05 -1.28410273E-08 -5.94149133E-08
  2.27405287E-09  3.65984390E-05  1.47449382E-06 -2.50581226E-07 -7.85794897E-07
 -4.65214280E-05 -1.88292752E-06  1.32330039E-05 -4.12657840E-06  1.13569822E-03
  4.57277119E-05 -2.75914663E-08 -1.81786035E-07  1.56094924E-07 -1.77486798E-05
 -7.14444973E-07 -5.85268132E-06 -1.72084295E-08 -7.40468413E-08  5.41706935E-09
 -9.83847236E-06 -3.96686582E-07  9.10929722E-07 -3.84818186E-07  6.25693487E-05
  2.52408610E-06 -3.69956114E-07  7.42542746E-07 -4.18493108E-04 -1.68507681E-05
 -4.25712851E-09  6.86574807E-08 -1.42979372E-07 -6.16791713E-06 -2.49033526E-07
  3.66251113E-06  1.56608183E-05  2.71788975E-04  2.31446024E-04 -8.94944263E-10
 -3.29013801E-08 -6.90478316E-03 -6.08079071E-03  4.33513834E-07  6.14551545E-06
 -1.02914365E-01 -4.00340035E-02  1.27567137E-06  1.76264680E-05 -3.22648594E-04
 -3.15382845E-05 -3.16858724E-05  1.88387968E-08  2.27491445E-07  4.14853682E-09
  1.01080170E-04 -2.22618867E-04  9.90716025E-01  5.01113666E-05  4.39063395E-04
  3.80484879E-04  3.02297630E-02  1.52883108E-06  1.35742171E-05 -1.65469371E-03
 -1.31930643E-02 -6.48734584E-07 -6.02586089E-06 -4.70446283E-03  2.82754888E-03
 -7.17770143E-08 -1.68594594E-06  1.69665554E-04  2.75194797E-04  2.75196184E-04
 -1.63260246E-08 -1.86640742E-07  9.09781647E-11 -1.28971959E-04 -2.31615667E-04
 -2.51315985E-03  1.76687916E-04  2.79534493E-08 -2.14437134E-05 -1.28676640E-04
 -2.37096129E-04 -2.51501643E-03  1.77691060E-04  1.91346948E-05  1.08298792E-05
 -1.28728618E-04 -2.36653970E-04 -2.51489486E-03  1.77592799E-04 -1.91532654E-05
  1.07000558E-05 -1.56617782E-04 -7.74617635E-04  2.09219141E-05 -2.68834600E-08