 Entering Gaussian System, Link 0=g16
 Initial command:
 /usr/local/g16_AVX//g16/l1.exe "/scratch/alanqf/0029-54471.ixchel.mda.cinvestav.mx/Gau-27921.inp" -scrdir="/scratch/alanqf/0029-54471.ixchel.mda.cinvestav.mx/"
 Entering Link 1 = /usr/local/g16_AVX//g16/l1.exe PID=     27922.
  
 Copyright (c) 1988-2017, Gaussian, Inc.  All Rights Reserved.
  
 This is part of the Gaussian(R) 16 program.  It is based on
 the Gaussian(R) 09 system (copyright 2009, Gaussian, Inc.),
 the Gaussian(R) 03 system (copyright 2003, Gaussian, Inc.),
 the Gaussian(R) 98 system (copyright 1998, Gaussian, Inc.),
 the Gaussian(R) 94 system (copyright 1995, Gaussian, Inc.),
 the Gaussian 92(TM) system (copyright 1992, Gaussian, Inc.),
 the Gaussian 90(TM) system (copyright 1990, Gaussian, Inc.),
 the Gaussian 88(TM) system (copyright 1988, Gaussian, Inc.),
 the Gaussian 86(TM) system (copyright 1986, Carnegie Mellon
 University), and the Gaussian 82(TM) system (copyright 1983,
 Carnegie Mellon University). Gaussian is a federally registered
 trademark of Gaussian, Inc.
  
 This software contains proprietary and confidential information,
 including trade secrets, belonging to Gaussian, Inc.
  
 This software is provided under written license and may be
 used, copied, transmitted, or stored only in accord with that
 written license.
  
 The following legend is applicable only to US Government
 contracts under FAR:
  
                    RESTRICTED RIGHTS LEGEND
  
 Use, reproduction and disclosure by the US Government is
 subject to restrictions as set forth in subparagraphs (a)
 and (c) of the Commercial Computer Software - Restricted
 Rights clause in FAR 52.227-19.
  
 Gaussian, Inc.
 340 Quinnipiac St., Bldg. 40, Wallingford CT 06492
  
  
 ---------------------------------------------------------------
 Warning -- This program may not be used in any manner that
 competes with the business of Gaussian, Inc. or will provide
 assistance to any competitor of Gaussian, Inc.  The licensee
 of this program is prohibited from giving any competitor of
 Gaussian, Inc. access to this program.  By using this program,
 the user acknowledges that Gaussian, Inc. is engaged in the
 business of creating and licensing software in the field of
 computational chemistry and represents and warrants to the
 licensee that it is not a competitor of Gaussian, Inc. and that
 it will not use this program in any manner prohibited above.
 ---------------------------------------------------------------
  

 Cite this work as:
 Gaussian 16, Revision B.01,
 M. J. Frisch, G. W. Trucks, H. B. Schlegel, G. E. Scuseria, 
 M. A. Robb, J. R. Cheeseman, G. Scalmani, V. Barone, 
 G. A. Petersson, H. Nakatsuji, X. Li, M. Caricato, A. V. Marenich, 
 J. Bloino, B. G. Janesko, R. Gomperts, B. Mennucci, H. P. Hratchian, 
 J. V. Ortiz, A. F. Izmaylov, J. L. Sonnenberg, D. Williams-Young, 
 F. Ding, F. Lipparini, F. Egidi, J. Goings, B. Peng, A. Petrone, 
 T. Henderson, D. Ranasinghe, V. G. Zakrzewski, J. Gao, N. Rega, 
 G. Zheng, W. Liang, M. Hada, M. Ehara, K. Toyota, R. Fukuda, 
 J. Hasegawa, M. Ishida, T. Nakajima, Y. Honda, O. Kitao, H. Nakai, 
 T. Vreven, K. Throssell, J. A. Montgomery, Jr., J. E. Peralta, 
 F. Ogliaro, M. J. Bearpark, J. J. Heyd, E. N. Brothers, K. N. Kudin, 
 V. N. Staroverov, T. A. Keith, R. Kobayashi, J. Normand, 
 K. Raghavachari, A. P. Rendell, J. C. Burant, S. S. Iyengar, 
 J. Tomasi, M. Cossi, J. M. Millam, M. Klene, C. Adamo, R. Cammi, 
 J. W. Ochterski, R. L. Martin, K. Morokuma, O. Farkas, 
 J. B. Foresman, and D. J. Fox, Gaussian, Inc., Wallingford CT, 2016.
 
 ******************************************
 Gaussian 16:  ES64L-G16RevB.01 20-Dec-2017
                13-Oct-2024 
 ******************************************
 %NProcShared=26
 Will use up to   26 processors via shared memory.
 %MEM=20GB
 %chk=CHKfiles/0029.chk
 ---------------------------------------------------------------------
 #p b3lyp 6-31++g(d,p) scf=verytight NoSymm freq=noraman int=ultrafine
 ---------------------------------------------------------------------
 1/10=4,30=1,38=1/1,3;
 2/12=2,15=1,17=6,18=5,40=1/2;
 3/5=1,6=6,7=1111,11=2,25=1,30=1,71=2,74=-5,75=-5,140=1/1,2,3;
 4//1;
 5/5=2,17=3,38=5,98=1/2;
 8/6=4,10=90,11=11/1;
 11/6=1,8=1,9=11,15=111,16=1,31=1/1,2,10;
 10/6=1,31=1/2;
 6/7=2,8=2,9=2,10=2,28=1/1;
 7/8=1,10=1,25=1,30=1/1,2,3,16;
 1/10=4,30=1/3;
 99//99;
 Leave Link    1 at Sun Oct 13 09:47:39 2024, MaxMem=  2684354560 cpu:              15.2 elap:               0.7
 (Enter /usr/local/g16_AVX//g16/l101.exe)
 ------------------------
 RxCoord=-7.18691 DE=1.22
 ------------------------
 Symbolic Z-matrix:
 Charge = -1 Multiplicity = 1
 C                     0.78955   0.00009   0.00114 
 Cl                   -2.44123  -0.00002  -0.00022 
 H                     0.40768   0.00245  -1.02092 
 H                     0.40842   0.88408   0.51475 
 H                     0.40831  -0.88619   0.51069 
 C                     2.24531   0.00001   0.00006 
 N                     3.40744  -0.00007  -0.0008 
 
 ITRead=  0  0  0  0  0  0  0
 MicOpt= -1 -1 -1 -1 -1 -1 -1
 NAtoms=      7 NQM=        7 NQMF=       0 NMMI=      0 NMMIF=      0
                NMic=       0 NMicF=      0.
                    Isotopes and Nuclear Properties:
 (Nuclear quadrupole moments (NQMom) in fm**2, nuclear magnetic moments (NMagM)
  in nuclear magnetons)

  Atom         1           2           3           4           5           6           7
 IAtWgt=          12          35           1           1           1          12          14
 AtmWgt=  12.0000000  34.9688527   1.0078250   1.0078250   1.0078250  12.0000000  14.0030740
 NucSpn=           0           3           1           1           1           0           2
 AtZEff=  -0.0000000  -0.0000000  -0.0000000  -0.0000000  -0.0000000  -0.0000000  -0.0000000
 NQMom=    0.0000000  -8.1650000   0.0000000   0.0000000   0.0000000   0.0000000   2.0440000
 NMagM=    0.0000000   0.8218740   2.7928460   2.7928460   2.7928460   0.0000000   0.4037610
 AtZNuc=   6.0000000  17.0000000   1.0000000   1.0000000   1.0000000   6.0000000   7.0000000
 Leave Link  101 at Sun Oct 13 09:47:41 2024, MaxMem=  2684354560 cpu:              29.6 elap:               1.5
 (Enter /usr/local/g16_AVX//g16/l103.exe)

 GradGradGradGradGradGradGradGradGradGradGradGradGradGradGradGradGradGrad
 Berny optimization.
 Initialization pass.
 Trust Radius=3.00D-01 FncErr=1.00D-07 GrdErr=1.00D-07 EigMax=2.50D+02 EigMin=1.00D-04
 Number of steps in this run=      2 maximum allowed number of steps=      2.
 GradGradGradGradGradGradGradGradGradGradGradGradGradGradGradGradGradGrad

 Leave Link  103 at Sun Oct 13 09:47:41 2024, MaxMem=  2684354560 cpu:               0.6 elap:               0.1
 (Enter /usr/local/g16_AVX//g16/l202.exe)
                          Input orientation:                          
 ---------------------------------------------------------------------
 Center     Atomic      Atomic             Coordinates (Angstroms)
 Number     Number       Type             X           Y           Z
 ---------------------------------------------------------------------
      1          6           0        0.789550    0.000091    0.001140
      2         17           0       -2.441230   -0.000018   -0.000222
      3          1           0        0.407678    0.002454   -1.020917
      4          1           0        0.408416    0.884080    0.514746
      5          1           0        0.408311   -0.886191    0.510692
      6          6           0        2.245310    0.000008    0.000060
      7          7           0        3.407444   -0.000066   -0.000800
 ---------------------------------------------------------------------
                    Distance matrix (angstroms):
                    1          2          3          4          5
     1  C    0.000000
     2  Cl   3.230780   0.000000
     3  H    1.091069   3.026235   0.000000
     4  H    1.091096   3.027756   1.770742   0.000000
     5  H    1.091092   3.027577   1.770739   1.770276   0.000000
     6  C    1.455760   4.686540   2.102211   2.102538   2.102536
     7  N    2.617895   5.848674   3.168476   3.168860   3.168855
                    6          7
     6  C    0.000000
     7  N    1.162134   0.000000
 Symmetry turned off by external request.
 Stoichiometry    C2H3ClN(1-)
 Framework group  C1[X(C2H3ClN)]
 Deg. of freedom    15
 Full point group                 C1      NOp   1
 Rotational constants (GHZ):         159.9535012           1.1458642           1.1458613
 Leave Link  202 at Sun Oct 13 09:47:41 2024, MaxMem=  2684354560 cpu:               0.2 elap:               0.0
 (Enter /usr/local/g16_AVX//g16/l301.exe)
 Standard basis: 6-31++G(d,p) (6D, 7F)
 Ernie: Thresh=  0.10000D-02 Tol=  0.10000D-05 Strict=F.
    98 basis functions,   176 primitive gaussians,    98 cartesian basis functions
    20 alpha electrons       20 beta electrons
       nuclear repulsion energy       106.2710732132 Hartrees.
 IExCor=  402 DFT=T Ex+Corr=B3LYP ExCW=0 ScaHFX=  0.200000
 ScaDFX=  0.800000  0.720000  1.000000  0.810000 ScalE2=  1.000000  1.000000
 IRadAn=      5 IRanWt=     -1 IRanGd=            0 ICorTp=0 IEmpDi=  4
 NAtoms=    7 NActive=    7 NUniq=    7 SFac= 1.00D+00 NAtFMM=   60 NAOKFM=F Big=F
 Integral buffers will be    131072 words long.
 Raffenetti 2 integral format.
 Two-electron integral symmetry is turned off.
 Leave Link  301 at Sun Oct 13 09:47:41 2024, MaxMem=  2684354560 cpu:               4.4 elap:               0.2
 (Enter /usr/local/g16_AVX//g16/l302.exe)
 NPDir=0 NMtPBC=     1 NCelOv=     1 NCel=       1 NClECP=     1 NCelD=      1
         NCelK=      1 NCelE2=     1 NClLst=     1 CellRange=     0.0.
 One-electron integrals computed using PRISM.
 NBasis=    98 RedAO= T EigKep=  1.46D-05  NBF=    98
 NBsUse=    98 1.00D-06 EigRej= -1.00D+00 NBFU=    98
 Precomputing XC quadrature grid using
 IXCGrd= 4 IRadAn=           5 IRanWt=          -1 IRanGd=           0 AccXCQ= 0.00D+00.
 Generated NRdTot=       0 NPtTot=           0 NUsed=           0 NTot=          32
 NSgBfM=    98    98    98    98    98 MxSgAt=     7 MxSgA2=     7.
 Leave Link  302 at Sun Oct 13 09:47:42 2024, MaxMem=  2684354560 cpu:              21.9 elap:               0.9
 (Enter /usr/local/g16_AVX//g16/l303.exe)
 DipDrv:  MaxL=1.
 Leave Link  303 at Sun Oct 13 09:47:42 2024, MaxMem=  2684354560 cpu:               0.7 elap:               0.1
 (Enter /usr/local/g16_AVX//g16/l401.exe)
 ExpMin= 3.60D-02 ExpMax= 2.52D+04 ExpMxC= 3.78D+03 IAcc=3 IRadAn=         5 AccDes= 0.00D+00
 Harris functional with IExCor=  402 and IRadAn=       5 diagonalized for initial guess.
 HarFok:  IExCor=  402 AccDes= 0.00D+00 IRadAn=         5 IDoV= 1 UseB2=F ITyADJ=14
 ICtDFT=  3500011 ScaDFX=  1.000000  1.000000  1.000000  1.000000
 FoFCou: FMM=F IPFlag=           0 FMFlag=      100000 FMFlg1=           0
         NFxFlg=           0 DoJE=T BraDBF=F KetDBF=T FulRan=T
         wScrn=  0.000000 ICntrl=       500 IOpCl=  0 I1Cent=   200000004 NGrid=           0
         NMat0=    1 NMatS0=      1 NMatT0=    0 NMatD0=    1 NMtDS0=    0 NMtDT0=    0
 Symmetry not used in FoFCou.
 Harris En= -593.113925761636    
 JPrj=0 DoOrth=F DoCkMO=F.
 Leave Link  401 at Sun Oct 13 09:47:44 2024, MaxMem=  2684354560 cpu:              27.9 elap:               1.1
 (Enter /usr/local/g16_AVX//g16/l502.exe)
 Keep R1 ints in memory in canonical form, NReq=35752935.
 FoFCou: FMM=F IPFlag=           0 FMFlag=           0 FMFlg1=           0
         NFxFlg=           0 DoJE=F BraDBF=F KetDBF=F FulRan=T
         wScrn=  0.000000 ICntrl=       600 IOpCl=  0 I1Cent=           0 NGrid=           0
         NMat0=    1 NMatS0=   4851 NMatT0=    0 NMatD0=    1 NMtDS0=    0 NMtDT0=    0
 Symmetry not used in FoFCou.
 Two-electron integral symmetry not used.
 Closed shell SCF:
 Using DIIS extrapolation, IDIIS=  1040.
 NGot=  2684354560 LenX=  2672563405 LenY=  2672553360
 Requested convergence on RMS density matrix=1.00D-08 within 128 cycles.
 Requested convergence on MAX density matrix=1.00D-06.
 Requested convergence on             energy=1.00D-06.
 No special actions if energy rises.

 Cycle   1  Pass 1  IDiag  1:
 E= -592.950100032461    
 DIIS: error= 2.79D-02 at cycle   1 NSaved=   1.
 NSaved= 1 IEnMin= 1 EnMin= -592.950100032461     IErMin= 1 ErrMin= 2.79D-02
 ErrMax= 2.79D-02  0.00D+00 EMaxC= 1.00D-01 BMatC= 1.04D-01 BMatP= 1.04D-01
 IDIUse=3 WtCom= 7.21D-01 WtEn= 2.79D-01
 Coeff-Com:  0.100D+01
 Coeff-En:   0.100D+01
 Coeff:      0.100D+01
 Gap=     0.170 Goal=   None    Shift=    0.000
 GapD=    0.170 DampG=1.000 DampE=0.500 DampFc=0.5000 IDamp=-1.
 Damping current iteration by 5.00D-01
 RMSDP=1.16D-02 MaxDP=2.19D-01              OVMax= 1.75D-01

 Cycle   2  Pass 1  IDiag  1:
 E= -592.990405359115     Delta-E=       -0.040305326654 Rises=F Damp=T
 DIIS: error= 1.66D-02 at cycle   2 NSaved=   2.
 NSaved= 2 IEnMin= 2 EnMin= -592.990405359115     IErMin= 2 ErrMin= 1.66D-02
 ErrMax= 1.66D-02  0.00D+00 EMaxC= 1.00D-01 BMatC= 1.42D-02 BMatP= 1.04D-01
 IDIUse=3 WtCom= 8.34D-01 WtEn= 1.66D-01
 Coeff-Com:  0.154D+00 0.846D+00
 Coeff-En:   0.234D+00 0.766D+00
 Coeff:      0.168D+00 0.832D+00
 Gap=     0.148 Goal=   None    Shift=    0.000
 RMSDP=4.94D-03 MaxDP=1.60D-01 DE=-4.03D-02 OVMax= 1.40D-01

 Cycle   3  Pass 1  IDiag  1:
 E= -593.042034375750     Delta-E=       -0.051629016634 Rises=F Damp=F
 DIIS: error= 1.39D-02 at cycle   3 NSaved=   3.
 NSaved= 3 IEnMin= 3 EnMin= -593.042034375750     IErMin= 3 ErrMin= 1.39D-02
 ErrMax= 1.39D-02  0.00D+00 EMaxC= 1.00D-01 BMatC= 1.94D-02 BMatP= 1.42D-02
 IDIUse=2 WtCom= 0.00D+00 WtEn= 1.00D+00
 Coeff-En:   0.000D+00 0.000D+00 0.100D+01
 Coeff:      0.000D+00 0.000D+00 0.100D+01
 Gap=     0.157 Goal=   None    Shift=    0.000
 RMSDP=7.44D-03 MaxDP=2.73D-01 DE=-5.16D-02 OVMax= 1.63D-01

 Cycle   4  Pass 1  IDiag  1:
 E= -592.947390229630     Delta-E=        0.094644146120 Rises=F Damp=F
 DIIS: error= 3.18D-02 at cycle   4 NSaved=   4.
 NSaved= 4 IEnMin= 3 EnMin= -593.042034375750     IErMin= 3 ErrMin= 1.39D-02
 ErrMax= 3.18D-02  0.00D+00 EMaxC= 1.00D-01 BMatC= 1.26D-01 BMatP= 1.42D-02
 IDIUse=2 WtCom= 0.00D+00 WtEn= 1.00D+00
 Coeff-En:   0.000D+00 0.000D+00 0.803D+00 0.197D+00
 Coeff:      0.000D+00 0.000D+00 0.803D+00 0.197D+00
 Gap=     0.153 Goal=   None    Shift=    0.000
 RMSDP=3.49D-03 MaxDP=1.25D-01 DE= 9.46D-02 OVMax= 8.34D-02

 Cycle   5  Pass 1  IDiag  1:
 E= -593.050457051007     Delta-E=       -0.103066821377 Rises=F Damp=F
 DIIS: error= 9.29D-03 at cycle   5 NSaved=   5.
 NSaved= 5 IEnMin= 5 EnMin= -593.050457051007     IErMin= 5 ErrMin= 9.29D-03
 ErrMax= 9.29D-03  0.00D+00 EMaxC= 1.00D-01 BMatC= 1.05D-02 BMatP= 1.42D-02
 IDIUse=3 WtCom= 9.07D-01 WtEn= 9.29D-02
 Coeff-Com: -0.102D-02 0.195D-01 0.322D+00-0.992D-01 0.758D+00
 Coeff-En:   0.000D+00 0.000D+00 0.387D+00 0.000D+00 0.613D+00
 Coeff:     -0.927D-03 0.177D-01 0.328D+00-0.900D-01 0.745D+00
 Gap=     0.155 Goal=   None    Shift=    0.000
 RMSDP=1.50D-03 MaxDP=5.33D-02 DE=-1.03D-01 OVMax= 3.27D-02

 Cycle   6  Pass 1  IDiag  1:
 E= -593.059910603755     Delta-E=       -0.009453552748 Rises=F Damp=F
 DIIS: error= 1.62D-04 at cycle   6 NSaved=   6.
 NSaved= 6 IEnMin= 6 EnMin= -593.059910603755     IErMin= 6 ErrMin= 1.62D-04
 ErrMax= 1.62D-04  0.00D+00 EMaxC= 1.00D-01 BMatC= 5.00D-06 BMatP= 1.05D-02
 IDIUse=3 WtCom= 9.98D-01 WtEn= 1.62D-03
 Coeff-Com: -0.182D-02 0.784D-02 0.118D+00-0.488D-01 0.323D+00 0.601D+00
 Coeff-En:   0.000D+00 0.000D+00 0.000D+00 0.000D+00 0.000D+00 0.100D+01
 Coeff:     -0.182D-02 0.783D-02 0.118D+00-0.487D-01 0.323D+00 0.602D+00
 Gap=     0.154 Goal=   None    Shift=    0.000
 RMSDP=3.78D-05 MaxDP=6.76D-04 DE=-9.45D-03 OVMax= 6.30D-04

 Cycle   7  Pass 1  IDiag  1:
 E= -593.059915241132     Delta-E=       -0.000004637377 Rises=F Damp=F
 DIIS: error= 6.85D-05 at cycle   7 NSaved=   7.
 NSaved= 7 IEnMin= 7 EnMin= -593.059915241132     IErMin= 7 ErrMin= 6.85D-05
 ErrMax= 6.85D-05  0.00D+00 EMaxC= 1.00D-01 BMatC= 5.27D-07 BMatP= 5.00D-06
 IDIUse=1 WtCom= 1.00D+00 WtEn= 0.00D+00
 Coeff-Com: -0.290D-03 0.103D-02 0.190D-01-0.100D-01 0.556D-01 0.189D+00
 Coeff-Com:  0.746D+00
 Coeff:     -0.290D-03 0.103D-02 0.190D-01-0.100D-01 0.556D-01 0.189D+00
 Coeff:      0.746D+00
 Gap=     0.154 Goal=   None    Shift=    0.000
 RMSDP=9.07D-06 MaxDP=1.34D-04 DE=-4.64D-06 OVMax= 2.50D-04

 Cycle   8  Pass 1  IDiag  1:
 E= -593.059915744371     Delta-E=       -0.000000503239 Rises=F Damp=F
 DIIS: error= 1.12D-05 at cycle   8 NSaved=   8.
 NSaved= 8 IEnMin= 8 EnMin= -593.059915744371     IErMin= 8 ErrMin= 1.12D-05
 ErrMax= 1.12D-05  0.00D+00 EMaxC= 1.00D-01 BMatC= 1.36D-08 BMatP= 5.27D-07
 IDIUse=1 WtCom= 1.00D+00 WtEn= 0.00D+00
 Coeff-Com:  0.286D-04-0.116D-03 0.396D-02-0.197D-02 0.106D-01 0.498D-01
 Coeff-Com:  0.263D+00 0.674D+00
 Coeff:      0.286D-04-0.116D-03 0.396D-02-0.197D-02 0.106D-01 0.498D-01
 Coeff:      0.263D+00 0.674D+00
 Gap=     0.154 Goal=   None    Shift=    0.000
 RMSDP=5.59D-06 MaxDP=1.73D-04 DE=-5.03D-07 OVMax= 3.70D-05

 Cycle   9  Pass 1  IDiag  1:
 E= -593.059915759426     Delta-E=       -0.000000015056 Rises=F Damp=F
 DIIS: error= 2.29D-06 at cycle   9 NSaved=   9.
 NSaved= 9 IEnMin= 9 EnMin= -593.059915759426     IErMin= 9 ErrMin= 2.29D-06
 ErrMax= 2.29D-06  0.00D+00 EMaxC= 1.00D-01 BMatC= 6.58D-10 BMatP= 1.36D-08
 IDIUse=1 WtCom= 1.00D+00 WtEn= 0.00D+00
 Coeff-Com:  0.312D-04-0.713D-04-0.628D-03 0.971D-04-0.138D-02-0.706D-03
 Coeff-Com:  0.156D-01 0.195D+00 0.792D+00
 Coeff:      0.312D-04-0.713D-04-0.628D-03 0.971D-04-0.138D-02-0.706D-03
 Coeff:      0.156D-01 0.195D+00 0.792D+00
 Gap=     0.154 Goal=   None    Shift=    0.000
 RMSDP=1.18D-06 MaxDP=4.26D-05 DE=-1.51D-08 OVMax= 7.14D-06

 Cycle  10  Pass 1  IDiag  1:
 E= -593.059915760114     Delta-E=       -0.000000000688 Rises=F Damp=F
 DIIS: error= 2.71D-07 at cycle  10 NSaved=  10.
 NSaved=10 IEnMin=10 EnMin= -593.059915760114     IErMin=10 ErrMin= 2.71D-07
 ErrMax= 2.71D-07  0.00D+00 EMaxC= 1.00D-01 BMatC= 1.38D-11 BMatP= 6.58D-10
 IDIUse=1 WtCom= 1.00D+00 WtEn= 0.00D+00
 Coeff-Com:  0.696D-05-0.188D-04-0.117D-03 0.555D-04-0.320D-03-0.334D-03
 Coeff-Com: -0.277D-02 0.235D-01 0.150D+00 0.830D+00
 Coeff:      0.696D-05-0.188D-04-0.117D-03 0.555D-04-0.320D-03-0.334D-03
 Coeff:     -0.277D-02 0.235D-01 0.150D+00 0.830D+00
 Gap=     0.154 Goal=   None    Shift=    0.000
 RMSDP=7.01D-08 MaxDP=1.25D-06 DE=-6.88D-10 OVMax= 1.22D-06

 Cycle  11  Pass 1  IDiag  1:
 E= -593.059915760128     Delta-E=       -0.000000000014 Rises=F Damp=F
 DIIS: error= 6.54D-08 at cycle  11 NSaved=  11.
 NSaved=11 IEnMin=11 EnMin= -593.059915760128     IErMin=11 ErrMin= 6.54D-08
 ErrMax= 6.54D-08  0.00D+00 EMaxC= 1.00D-01 BMatC= 4.57D-13 BMatP= 1.38D-11
 IDIUse=1 WtCom= 1.00D+00 WtEn= 0.00D+00
 Coeff-Com: -0.694D-06 0.128D-05-0.118D-04 0.525D-05-0.220D-04-0.590D-04
 Coeff-Com: -0.981D-03-0.204D-02 0.120D-02 0.710D-01 0.931D+00
 Coeff:     -0.694D-06 0.128D-05-0.118D-04 0.525D-05-0.220D-04-0.590D-04
 Coeff:     -0.981D-03-0.204D-02 0.120D-02 0.710D-01 0.931D+00
 Gap=     0.154 Goal=   None    Shift=    0.000
 RMSDP=8.77D-08 MaxDP=3.42D-06 DE=-1.39D-11 OVMax= 2.02D-07

 Cycle  12  Pass 1  IDiag  1:
 E= -593.059915760129     Delta-E=       -0.000000000001 Rises=F Damp=F
 DIIS: error= 1.82D-08 at cycle  12 NSaved=  12.
 NSaved=12 IEnMin=12 EnMin= -593.059915760129     IErMin=12 ErrMin= 1.82D-08
 ErrMax= 1.82D-08  0.00D+00 EMaxC= 1.00D-01 BMatC= 9.49D-15 BMatP= 4.57D-13
 IDIUse=1 WtCom= 1.00D+00 WtEn= 0.00D+00
 Coeff-Com: -0.474D-06 0.101D-05-0.825D-06-0.152D-07 0.190D-05-0.102D-04
 Coeff-Com: -0.211D-03-0.115D-02-0.333D-02 0.313D-02 0.299D+00 0.703D+00
 Coeff:     -0.474D-06 0.101D-05-0.825D-06-0.152D-07 0.190D-05-0.102D-04
 Coeff:     -0.211D-03-0.115D-02-0.333D-02 0.313D-02 0.299D+00 0.703D+00
 Gap=     0.154 Goal=   None    Shift=    0.000
 RMSDP=2.09D-08 MaxDP=8.43D-07 DE=-1.14D-12 OVMax= 3.56D-08

 Cycle  13  Pass 1  IDiag  1:
 E= -593.059915760127     Delta-E=        0.000000000002 Rises=F Damp=F
 DIIS: error= 1.20D-09 at cycle  13 NSaved=  13.
 NSaved=13 IEnMin=12 EnMin= -593.059915760129     IErMin=13 ErrMin= 1.20D-09
 ErrMax= 1.20D-09  0.00D+00 EMaxC= 1.00D-01 BMatC= 1.95D-16 BMatP= 9.49D-15
 IDIUse=1 WtCom= 1.00D+00 WtEn= 0.00D+00
 Coeff-Com: -0.150D-07 0.220D-07 0.301D-06-0.710D-07 0.506D-06-0.240D-05
 Coeff-Com:  0.102D-04-0.173D-04-0.335D-03 0.665D-03-0.115D-01 0.268D-01
 Coeff-Com:  0.984D+00
 Coeff:     -0.150D-07 0.220D-07 0.301D-06-0.710D-07 0.506D-06-0.240D-05
 Coeff:      0.102D-04-0.173D-04-0.335D-03 0.665D-03-0.115D-01 0.268D-01
 Coeff:      0.984D+00
 Gap=     0.154 Goal=   None    Shift=    0.000
 RMSDP=1.69D-09 MaxDP=5.93D-08 DE= 2.27D-12 OVMax= 7.11D-09

 SCF Done:  E(RB3LYP) =  -593.059915760     A.U. after   13 cycles
            NFock= 13  Conv=0.17D-08     -V/T= 2.0047
 KE= 5.902937175803D+02 PE=-1.622781368311D+03 EE= 3.331566617577D+02
 Leave Link  502 at Sun Oct 13 09:47:46 2024, MaxMem=  2684354560 cpu:              52.2 elap:               2.3
 (Enter /usr/local/g16_AVX//g16/l801.exe)
 DoSCS=F DFT=T ScalE2(SS,OS)=  1.000000  1.000000
 Range of M.O.s used for correlation:     1    98
 NBasis=    98 NAE=    20 NBE=    20 NFC=     0 NFV=     0
 NROrb=     98 NOA=    20 NOB=    20 NVA=    78 NVB=    78

 **** Warning!!: The largest alpha MO coefficient is  0.13186946D+03

 Leave Link  801 at Sun Oct 13 09:47:46 2024, MaxMem=  2684354560 cpu:               0.7 elap:               0.1
 (Enter /usr/local/g16_AVX//g16/l1101.exe)
 Using compressed storage, NAtomX=     7.
 Will process      8 centers per pass.
 Leave Link 1101 at Sun Oct 13 09:47:46 2024, MaxMem=  2684354560 cpu:               3.4 elap:               0.2
 (Enter /usr/local/g16_AVX//g16/l1102.exe)
 Symmetrizing basis deriv contribution to polar:
 IMax=3 JMax=2 DiffMx= 0.00D+00
 Leave Link 1102 at Sun Oct 13 09:47:46 2024, MaxMem=  2684354560 cpu:               0.7 elap:               0.1
 (Enter /usr/local/g16_AVX//g16/l1110.exe)
 Forming Gx(P) for the SCF density, NAtomX=     7.
 Integral derivatives from FoFJK, PRISM(SPDF).
 Do as many integral derivatives as possible in FoFJK.
 G2DrvN: MDV=    2684353864.
 G2DrvN: will do     8 centers at a time, making    1 passes.
 Calling FoFCou, ICntrl=  3107 FMM=F I1Cent=   0 AccDes= 0.00D+00.
 FoFJK:  IHMeth= 1 ICntrl=    3107 DoSepK=F KAlg= 0 I1Cent=           0 FoldK=F
 IRaf=         0 NMat=       1 IRICut=       1 DoRegI=T DoRafI=F ISym2E= 0 IDoP0=0 IntGTp=1.
 FoFCou: FMM=F IPFlag=           0 FMFlag=      100000 FMFlg1=           0
         NFxFlg=           0 DoJE=F BraDBF=F KetDBF=F FulRan=T
         wScrn=  0.000000 ICntrl=      3107 IOpCl=  0 I1Cent=           0 NGrid=           0
         NMat0=    1 NMatS0=      1 NMatT0=    0 NMatD0=    1 NMtDS0=    0 NMtDT0=    0
 Symmetry not used in FoFCou.
 End of G2Drv F.D. properties file   721 does not exist.
 End of G2Drv F.D. properties file   722 does not exist.
 End of G2Drv F.D. properties file   788 does not exist.
 Leave Link 1110 at Sun Oct 13 09:47:50 2024, MaxMem=  2684354560 cpu:              83.7 elap:               3.3
 (Enter /usr/local/g16_AVX//g16/l1002.exe)
 Minotr:  Closed shell wavefunction.
          IDoAtm=1111111
          Direct CPHF calculation.
          Differentiating once with respect to electric field.
                with respect to dipole field.
          Differentiating once with respect to nuclear coordinates.
          Requested convergence is 1.0D-08 RMS, and 1.0D-07 maximum.
          Secondary convergence is 1.0D-12 RMS, and 1.0D-12 maximum.
          NewPWx=T KeepS1=F KeepF1=F KeepIn=T MapXYZ=F SortEE=F KeepMc=T.
         2136 words used for storage of precomputed grid.
 Keep R1 ints in memory in canonical form, NReq=35668397.
 FoFCou: FMM=F IPFlag=           0 FMFlag=           0 FMFlg1=           0
         NFxFlg=           0 DoJE=F BraDBF=F KetDBF=F FulRan=T
         wScrn=  0.000000 ICntrl=       600 IOpCl=  0 I1Cent=           0 NGrid=           0
         NMat0=    1 NMatS0=   4851 NMatT0=    0 NMatD0=    1 NMtDS0=    0 NMtDT0=    0
 Symmetry not used in FoFCou.
 Two-electron integral symmetry not used.
          MDV=    2684354560 using IRadAn=       1.
          Solving linear equations simultaneously, MaxMat=       0.
          There are    24 degrees of freedom in the 1st order CPHF.  IDoFFX=6 NUNeed=     3.
     21 vectors produced by pass  0 Test12= 6.50D-15 4.17D-09 XBig12= 6.90D+01 2.80D+00.
 AX will form    21 AO Fock derivatives at one time.
     21 vectors produced by pass  1 Test12= 6.50D-15 4.17D-09 XBig12= 4.81D+01 2.24D+00.
     21 vectors produced by pass  2 Test12= 6.50D-15 4.17D-09 XBig12= 1.55D+00 3.58D-01.
     21 vectors produced by pass  3 Test12= 6.50D-15 4.17D-09 XBig12= 9.25D-03 2.08D-02.
     21 vectors produced by pass  4 Test12= 6.50D-15 4.17D-09 XBig12= 1.18D-05 5.82D-04.
     18 vectors produced by pass  5 Test12= 6.50D-15 4.17D-09 XBig12= 1.23D-08 2.34D-05.
      4 vectors produced by pass  6 Test12= 6.50D-15 4.17D-09 XBig12= 1.85D-11 9.14D-07.
      3 vectors produced by pass  7 Test12= 6.50D-15 4.17D-09 XBig12= 3.08D-14 4.37D-08.
 InvSVY:  IOpt=1 It=  1 EMax= 6.74D-15
 Solved reduced A of dimension   130 with    24 vectors.
 FullF1:  Do perturbations      1 to       3.
 Isotropic polarizability for W=    0.000000       53.96 Bohr**3.
 End of Minotr F.D. properties file   721 does not exist.
 End of Minotr F.D. properties file   722 does not exist.
 End of Minotr F.D. properties file   788 does not exist.
 Leave Link 1002 at Sun Oct 13 09:47:53 2024, MaxMem=  2684354560 cpu:              90.9 elap:               3.6
 (Enter /usr/local/g16_AVX//g16/l601.exe)
 Copying SCF densities to generalized density rwf, IOpCl= 0 IROHF=0.

 **********************************************************************

            Population analysis using the SCF Density.

 **********************************************************************

 Alpha  occ. eigenvalues -- -101.25491 -14.22782 -10.12481 -10.09523  -9.16839
 Alpha  occ. eigenvalues --   -6.92623  -6.92623  -6.92605  -0.79777  -0.64303
 Alpha  occ. eigenvalues --   -0.50680  -0.38072  -0.32642  -0.32634  -0.25845
 Alpha  occ. eigenvalues --   -0.21657  -0.21656  -0.05341  -0.05275  -0.05275
 Alpha virt. eigenvalues --    0.10124   0.13646   0.13650   0.14327   0.14767
 Alpha virt. eigenvalues --    0.14768   0.19934   0.20583   0.20585   0.21943
 Alpha virt. eigenvalues --    0.23188   0.23191   0.25327   0.25968   0.25970
 Alpha virt. eigenvalues --    0.29360   0.32769   0.33628   0.33630   0.34413
 Alpha virt. eigenvalues --    0.34417   0.35161   0.39422   0.41035   0.48542
 Alpha virt. eigenvalues --    0.69019   0.78739   0.78740   0.84735   0.84738
 Alpha virt. eigenvalues --    0.84945   0.84947   0.85628   0.88809   0.98592
 Alpha virt. eigenvalues --    1.02537   1.02546   1.03292   1.09785   1.12031
 Alpha virt. eigenvalues --    1.12032   1.15359   1.15359   1.15923   1.15924
 Alpha virt. eigenvalues --    1.21319   1.25330   1.27573   1.45373   1.45381
 Alpha virt. eigenvalues --    1.54032   1.62664   1.62665   1.86271   1.86277
 Alpha virt. eigenvalues --    1.90617   2.05370   2.05371   2.14874   2.23749
 Alpha virt. eigenvalues --    2.23760   2.31124   2.39766   2.39776   2.77625
 Alpha virt. eigenvalues --    2.80237   2.80240   3.05399   3.09107   3.09135
 Alpha virt. eigenvalues --    3.28513   3.45351   3.55270   3.55278   4.25253
 Alpha virt. eigenvalues --    4.44352   4.57966   4.81025
          Condensed to atoms (all electrons):
               1          2          3          4          5          6
     1  C    5.961235  -0.115716   0.417285   0.418592   0.418497  -1.034873
     2  Cl  -0.115716  17.931673  -0.007001  -0.006955  -0.006958   0.128232
     3  H    0.417285  -0.007001   0.484683  -0.024122  -0.024120  -0.059246
     4  H    0.418592  -0.006955  -0.024122   0.484889  -0.024220  -0.060689
     5  H    0.418497  -0.006958  -0.024120  -0.024220   0.484858  -0.060574
     6  C   -1.034873   0.128232  -0.059246  -0.060689  -0.060574   6.770512
     7  N   -0.045696   0.000766  -0.005202  -0.005164  -0.005168   0.446499
               7
     1  C   -0.045696
     2  Cl   0.000766
     3  H   -0.005202
     4  H   -0.005164
     5  H   -0.005168
     6  C    0.446499
     7  N    7.193815
 Mulliken charges:
               1
     1  C   -0.019324
     2  Cl  -0.924041
     3  H    0.217722
     4  H    0.217670
     5  H    0.217685
     6  C   -0.129861
     7  N   -0.579850
 Sum of Mulliken charges =  -1.00000
 Mulliken charges with hydrogens summed into heavy atoms:
               1
     1  C    0.633753
     2  Cl  -0.924041
     6  C   -0.129861
     7  N   -0.579850
 APT charges:
               1
     1  C    0.001612
     2  Cl  -0.981845
     3  H    0.084293
     4  H    0.084096
     5  H    0.084122
     6  C    0.213837
     7  N   -0.486115
 Sum of APT charges =  -1.00000
 APT charges with hydrogens summed into heavy atoms:
               1
     1  C    0.254124
     2  Cl  -0.981845
     6  C    0.213837
     7  N   -0.486115
 Electronic spatial extent (au):  <R**2>=            904.3346
 Charge=             -1.0000 electrons
 Dipole moment (field-independent basis, Debye):
    X=              5.9785    Y=              0.0003    Z=              0.0043  Tot=              5.9785
 Quadrupole moment (field-independent basis, Debye-Ang):
   XX=            -87.7816   YY=            -35.4303   ZZ=            -35.4281
   XY=              0.0005   XZ=              0.0052   YZ=             -0.0000
 Traceless Quadrupole moment (field-independent basis, Debye-Ang):
   XX=            -34.9016   YY=             17.4497   ZZ=             17.4519
   XY=              0.0005   XZ=              0.0052   YZ=             -0.0000
 Octapole moment (field-independent basis, Debye-Ang**2):
  XXX=            -11.9178  YYY=             -0.0057  ZZZ=             -0.8515  XYY=              4.2503
  XXY=              0.0025  XXZ=              0.0302  XZZ=              4.2505  YZZ=              0.0059
  YYZ=              0.8537  XYZ=              0.0001
 Hexadecapole moment (field-independent basis, Debye-Ang**3):
 XXXX=          -1807.7407 YYYY=            -58.0632 ZZZZ=            -58.0677 XXXY=              0.0068
 XXXZ=              0.0874 YYYX=             -0.0016 YYYZ=              0.0003 ZZZX=             -0.2812
 ZZZY=             -0.0001 XXYY=           -228.1712 XXZZ=           -228.1716 YYZZ=            -19.3516
 XXYZ=              0.0000 YYXZ=              0.2889 ZZXY=              0.0021
 N-N= 1.062710732132D+02 E-N=-1.622781368059D+03  KE= 5.902937175803D+02
  Exact polarizability:  78.790  -0.001  41.536  -0.012  -0.000  41.542
 Approx polarizability:  97.423  -0.002  50.060  -0.025  -0.000  50.068
 No NMR shielding tensors so no spin-rotation constants.
 Leave Link  601 at Sun Oct 13 09:47:53 2024, MaxMem=  2684354560 cpu:               2.8 elap:               0.1
 (Enter /usr/local/g16_AVX//g16/l701.exe)
 ... and contract with generalized density number  0.
 Compute integral second derivatives.
 Leave Link  701 at Sun Oct 13 09:47:54 2024, MaxMem=  2684354560 cpu:               4.4 elap:               0.2
 (Enter /usr/local/g16_AVX//g16/l702.exe)
 L702 exits ... SP integral derivatives will be done elsewhere.
 Leave Link  702 at Sun Oct 13 09:47:54 2024, MaxMem=  2684354560 cpu:               0.4 elap:               0.0
 (Enter /usr/local/g16_AVX//g16/l703.exe)
 Integral derivatives from FoFJK, PRISM(SPDF).
 Compute integral second derivatives, UseDBF=F ICtDFT=           0.
 Calling FoFJK, ICntrl=    100127 FMM=F ISym2X=0 I1Cent= 0 IOpClX= 0 NMat=1 NMatS=1 NMatT=0.
 FoFJK:  IHMeth= 1 ICntrl=  100127 DoSepK=F KAlg= 0 I1Cent=           0 FoldK=F
 IRaf=         0 NMat=       1 IRICut=       1 DoRegI=T DoRafI=F ISym2E= 0 IDoP0=0 IntGTp=1.
 FoFCou: FMM=F IPFlag=           0 FMFlag=      100000 FMFlg1=         800
         NFxFlg=           0 DoJE=F BraDBF=F KetDBF=F FulRan=T
         wScrn=  0.000000 ICntrl=    100127 IOpCl=  0 I1Cent=           0 NGrid=           0
         NMat0=    1 NMatS0=      1 NMatT0=    0 NMatD0=    1 NMtDS0=    0 NMtDT0=    0
 Symmetry not used in FoFCou.
 Leave Link  703 at Sun Oct 13 09:47:58 2024, MaxMem=  2684354560 cpu:             112.4 elap:               4.4
 (Enter /usr/local/g16_AVX//g16/l716.exe)
 Dipole        = 2.35212978D+00 1.29217229D-04 1.67719516D-03
 Polarizability= 7.87903294D+01-1.02237374D-03 4.15361632D+01
                -1.24650592D-02-9.60575784D-05 4.15416080D+01
 Full mass-weighted force constant matrix:
 Low frequencies ---  -65.4636  -65.2911  -17.4864  -17.4023   -0.0006    0.0021
 Low frequencies ---    0.0036  120.7903  123.4697
 ******    2 imaginary frequencies (negative Signs) ****** 
 Diagonal vibrational polarizability:
       38.6729370     146.9338629     147.8662519
 Harmonic frequencies (cm**-1), IR intensities (KM/Mole), Raman scattering
 activities (A**4/AMU), depolarization ratios for plane and unpolarized
 incident light, reduced masses (AMU), force constants (mDyne/A),
 and normal coordinates:
                      1                      2                      3
                      A                      A                      A
 Frequencies --    -62.2796               -62.0928               120.7902
 Red. masses --      3.6027                 3.6043                12.1320
 Frc consts  --      0.0082                 0.0082                 0.1043
 IR Inten    --     21.1119                21.1197                20.3257
  Atom  AN      X      Y      Z        X      Y      Z        X      Y      Z
     1   6    -0.00   0.38  -0.02     0.00   0.02   0.38    -0.36  -0.00   0.00
     2  17     0.00  -0.08   0.00    -0.00  -0.00  -0.08     0.43   0.00  -0.00
     3   1     0.01   0.47  -0.02    -0.27   0.02   0.48    -0.37  -0.00   0.01
     4   1     0.23   0.48  -0.01     0.15   0.03   0.47    -0.37  -0.00  -0.00
     5   1    -0.24   0.48  -0.03     0.13   0.02   0.47    -0.37   0.00  -0.00
     6   6    -0.00   0.03  -0.00     0.00   0.00   0.03    -0.37  -0.00   0.00
     7   7    -0.00  -0.24   0.01    -0.00  -0.01  -0.24    -0.37   0.00  -0.00
                      4                      5                      6
                      A                      A                      A
 Frequencies --    372.7184               372.8359               924.9495
 Red. masses --      3.4931                 3.4924                 4.7867
 Frc consts  --      0.2859                 0.2860                 2.4128
 IR Inten    --      1.3050                 1.3010                11.2328
  Atom  AN      X      Y      Z        X      Y      Z        X      Y      Z
     1   6    -0.00  -0.06   0.00    -0.00  -0.00  -0.06     0.44  -0.00  -0.00
     2  17     0.00  -0.00   0.00    -0.00  -0.00  -0.00    -0.00  -0.00   0.00
     3   1    -0.01  -0.28   0.01     0.60  -0.01  -0.29     0.47  -0.00  -0.01
     4   1    -0.51  -0.29   0.00    -0.31  -0.01  -0.29     0.47   0.01   0.00
     5   1     0.52  -0.29   0.01    -0.29  -0.00  -0.28     0.47  -0.01   0.00
     6   6     0.00   0.40  -0.01     0.00   0.01   0.40    -0.20   0.00   0.00
     7   7    -0.00  -0.23   0.01    -0.00  -0.01  -0.23    -0.30   0.00   0.00
                      7                      8                      9
                      A                      A                      A
 Frequencies --   1018.7200              1018.8286              1356.8617
 Red. masses --      1.5103                 1.5101                 1.2190
 Frc consts  --      0.9235                 0.9235                 1.3223
 IR Inten    --      1.4349                 1.4357                39.5843
  Atom  AN      X      Y      Z        X      Y      Z        X      Y      Z
     1   6    -0.00   0.16  -0.01     0.00   0.01   0.16    -0.14   0.00   0.00
     2  17     0.00  -0.00   0.00    -0.00  -0.00  -0.00     0.00  -0.00  -0.00
     3   1    -0.04  -0.33   0.01     0.72  -0.02  -0.12     0.52   0.00  -0.23
     4   1    -0.60  -0.18   0.11    -0.39   0.08  -0.27     0.52   0.20   0.12
     5   1     0.64  -0.17  -0.08    -0.33  -0.10  -0.28     0.52  -0.20   0.12
     6   6    -0.00  -0.13   0.01    -0.00  -0.01  -0.13     0.00  -0.00  -0.00
     7   7     0.00   0.02  -0.00    -0.00   0.00   0.02     0.00  -0.00   0.00
                     10                     11                     12
                      A                      A                      A
 Frequencies --   1445.3657              1445.5592              2349.4549
 Red. masses --      1.0402                 1.0402                12.5059
 Frc consts  --      1.2803                 1.2806                40.6723
 IR Inten    --     12.7846                12.7890                50.3080
  Atom  AN      X      Y      Z        X      Y      Z        X      Y      Z
     1   6     0.00  -0.05  -0.00     0.00   0.00  -0.05    -0.09   0.00   0.00
     2  17     0.00  -0.00  -0.00     0.00   0.00  -0.00     0.00  -0.00   0.00
     3   1     0.01   0.72  -0.00     0.36  -0.01  -0.16    -0.07  -0.00   0.02
     4   1    -0.31   0.05  -0.37    -0.17  -0.38   0.50    -0.07  -0.02  -0.01
     5   1     0.31   0.06   0.39    -0.18   0.38   0.49    -0.07   0.02  -0.01
     6   6    -0.00  -0.02  -0.00    -0.00   0.00  -0.02     0.79  -0.00  -0.00
     7   7    -0.00   0.00   0.00     0.00  -0.00   0.00    -0.59   0.00   0.00
                     13                     14                     15
                      A                      A                      A
 Frequencies --   3087.8842              3170.5106              3170.8380
 Red. masses --      1.0337                 1.1031                 1.1031
 Frc consts  --      5.8071                 6.5330                 6.5346
 IR Inten    --      1.9414                 0.2594                 0.2681
  Atom  AN      X      Y      Z        X      Y      Z        X      Y      Z
     1   6    -0.05   0.00   0.00    -0.00  -0.09  -0.00    -0.00   0.00  -0.09
     2  17    -0.00  -0.00  -0.00    -0.00   0.00   0.00     0.00  -0.00   0.00
     3   1     0.19  -0.00   0.54     0.01  -0.02   0.03     0.29  -0.00   0.76
     4   1     0.19  -0.47  -0.27    -0.25   0.58   0.35    -0.13   0.32   0.16
     5   1     0.19   0.47  -0.27     0.24   0.55  -0.33    -0.15  -0.36   0.18
     6   6    -0.00   0.00   0.00    -0.00   0.00   0.00    -0.00  -0.00   0.00
     7   7     0.00  -0.00  -0.00     0.00  -0.00  -0.00     0.00   0.00  -0.00

 -------------------
 - Thermochemistry -
 -------------------
 Temperature   298.150 Kelvin.  Pressure   1.00000 Atm.
 Atom     1 has atomic number  6 and mass  12.00000
 Atom     2 has atomic number 17 and mass  34.96885
 Atom     3 has atomic number  1 and mass   1.00783
 Atom     4 has atomic number  1 and mass   1.00783
 Atom     5 has atomic number  1 and mass   1.00783
 Atom     6 has atomic number  6 and mass  12.00000
 Atom     7 has atomic number  7 and mass  14.00307
 Molecular mass:    75.99540 amu.
 Principal axes and moments of inertia in atomic units:
                           1         2         3
     Eigenvalues --    11.282911575.004411575.00847
           X            1.00000   0.00001   0.00000
           Y           -0.00000   0.00245   1.00000
           Z           -0.00001   1.00000  -0.00245
 This molecule is an asymmetric top.
 Rotational symmetry number  1.
 Rotational temperatures (Kelvin)      7.67656     0.05499     0.05499
 Rotational constants (GHZ):         159.95350     1.14586     1.14586
    2 imaginary frequencies ignored.
 Zero-point vibrational energy     118761.2 (Joules/Mol)
                                   28.38460 (Kcal/Mol)
 Warning -- explicit consideration of   3 degrees of freedom as
           vibrations may cause significant error
 Vibrational temperatures:    173.79   536.26   536.43  1330.80  1465.71
          (Kelvin)           1465.87  1952.22  2079.56  2079.84  3380.34
                             4442.78  4561.66  4562.13
 
 Zero-point correction=                           0.045234 (Hartree/Particle)
 Thermal correction to Energy=                    0.049574
 Thermal correction to Enthalpy=                  0.050519
 Thermal correction to Gibbs Free Energy=         0.017584
 Sum of electronic and zero-point Energies=           -593.014682
 Sum of electronic and thermal Energies=              -593.010341
 Sum of electronic and thermal Enthalpies=            -593.009397
 Sum of electronic and thermal Free Energies=         -593.042331
 
                     E (Thermal)             CV                S
                      KCal/Mol        Cal/Mol-Kelvin    Cal/Mol-Kelvin
 Total                   31.108             12.438             69.316
 Electronic               0.000              0.000              0.000
 Translational            0.889              2.981             38.900
 Rotational               0.889              2.981             24.841
 Vibrational             29.331              6.476              5.576
 Vibration     1          0.609              1.932              3.088
 Vibration     2          0.744              1.528              1.069
 Vibration     3          0.744              1.528              1.068
                       Q            Log10(Q)             Ln(Q)
 Total Bot       0.816123D-08         -8.088245        -18.623871
 Total V=0       0.522172D+13         12.717813         29.283847
 Vib (Bot)       0.523338D-20        -20.281218        -46.699230
 Vib (Bot)    1  0.169153D+01          0.228279          0.525631
 Vib (Bot)    2  0.487554D+00         -0.311978         -0.718355
 Vib (Bot)    3  0.487361D+00         -0.312150         -0.718751
 Vib (V=0)       0.334842D+01          0.524840          1.208489
 Vib (V=0)    1  0.226388D+01          0.354853          0.817078
 Vib (V=0)    2  0.119836D+01          0.078588          0.180955
 Vib (V=0)    3  0.119823D+01          0.078539          0.180843
 Electronic      0.100000D+01          0.000000          0.000000
 Translational   0.260396D+08          7.415635         17.075130
 Rotational      0.598878D+05          4.777339         11.000228
 
                                                       RxCoord=-7.18691 DE=1.22
                                                             IR Spectrum
 
      3  3                            2                                    1  1             1                                        
      1  0                            3                                    4  3             0  9                      3         1    
      7  8                            4                                    4  5             1  2                      7         2    
      1  8                            9                                    5  7             9  5                      3         1    
 
      X  X                            X                                    X  X             X  X                      X         X    
                                      X                                    X  X                X                                X    
                                      X                                    X  X                X                                X    
                                      X                                    X  X                X                                X    
                                      X                                    X  X                                                 X    
                                      X                                    X  X                                                 X    
                                      X                                    X  X                                                 X    
                                      X                                    X  X                                                 X    
                                      X                                    X  X                                                      
                                      X                                    X  X                                                      
                                      X                                       X                                                      
                                      X                                       X                                                      
                                      X                                       X                                                      
                                      X                                       X                                                      
                                      X                                       X                                                      
                                      X                                       X                                                      
                                      X                                                                                              
                                      X                                                                                              
                                      X                                                                                              
                                      X                                                                                              
 
 -------------------------------------------------------------------
 Center     Atomic                   Forces (Hartrees/Bohr)
 Number     Number              X              Y              Z
 -------------------------------------------------------------------
      1        6           0.003548637    0.000002029    0.000023888
      2       17          -0.001539675    0.000000040   -0.000002403
      3        1          -0.003007081   -0.000002983    0.001139331
      4        1          -0.002945799   -0.000950303   -0.000598529
      5        1          -0.002947352    0.000951414   -0.000593708
      6        6           0.002035280   -0.000000094    0.000041297
      7        7           0.004855990   -0.000000103   -0.000009875
 -------------------------------------------------------------------
 Cartesian Forces:  Max     0.004855990 RMS     0.001863344
 Z-matrix is all fixed cartesians, so copy forces.
 Force constants in Cartesian coordinates: 
                1             2             3             4             5 
      1  0.486934D+00
      2  0.569698D-05  0.557482D+00
      3 -0.373386D-04 -0.511886D-05  0.557765D+00
      4 -0.635734D-02  0.000000D+00  0.226703D-05  0.104905D-01
      5  0.000000D+00 -0.293073D-03  0.000000D+00  0.000000D+00 -0.170042D-03
      6  0.000000D+00  0.000000D+00 -0.294414D-03 -0.110759D-04  0.000000D+00
      7 -0.708928D-01  0.209498D-03 -0.906679D-01 -0.417169D-03  0.231408D-05
      8  0.206504D-03 -0.406069D-01  0.585469D-03  0.299200D-05 -0.101009D-02
      9 -0.893625D-01  0.585432D-03 -0.293958D+00 -0.124674D-02 -0.358236D-05
     10 -0.707665D-01  0.782331D-01  0.454385D-01 -0.413470D-03  0.865385D-03
     11  0.771127D-01 -0.230093D+00 -0.110084D+00  0.108041D-02  0.133759D-03
     12  0.447861D-01 -0.110086D+00 -0.104556D+00  0.631432D-03  0.656447D-03
     13 -0.707836D-01 -0.784614D-01  0.450944D-01 -0.413319D-03 -0.868039D-03
     14 -0.773377D-01 -0.231086D+00  0.109503D+00 -0.108366D-02  0.139669D-03
     15  0.444472D-01  0.109506D+00 -0.103552D+00  0.626771D-03 -0.652911D-03
     16 -0.257306D+00  0.110098D-04  0.149801D-03 -0.437014D-03  0.000000D+00
     17  0.110509D-04 -0.771060D-01  0.000000D+00  0.000000D+00  0.140250D-02
     18  0.144685D-03  0.000000D+00 -0.771110D-01 -0.641832D-05  0.000000D+00
     19 -0.108275D-01  0.193773D-05  0.202683D-04 -0.245219D-02  0.000000D+00
     20  0.160631D-05  0.217026D-01  0.000000D+00  0.000000D+00 -0.202716D-03
     21  0.209643D-04  0.000000D+00  0.217073D-01  0.376361D-05  0.000000D+00
                6             7             8             9            10 
      6 -0.168401D-03
      7 -0.995053D-03  0.832621D-01
      8 -0.359133D-05 -0.230108D-03  0.428748D-01
      9  0.494107D-03  0.994071D-01 -0.624300D-03  0.313060D+00
     10  0.505704D-03  0.436242D-02 -0.955780D-02 -0.463332D-02  0.830943D-01
     11  0.657108D-03 -0.814050D-03  0.520853D-03  0.128588D-02 -0.857809D-01
     12 -0.613140D-03  0.105606D-01 -0.241095D-01 -0.128020D-01 -0.498395D-01
     13  0.502014D-03  0.436381D-02  0.957832D-02 -0.458978D-02  0.435504D-02
     14 -0.653568D-03  0.765175D-03  0.415049D-03 -0.122496D-02 -0.874132D-02
     15 -0.619124D-03  0.105668D-01  0.241687D-01 -0.126971D-01 -0.598338D-02
     16 -0.138950D-05 -0.210635D-01  0.751905D-05 -0.287670D-02 -0.210124D-01
     17  0.000000D+00  0.765599D-04 -0.334301D-02 -0.245057D-04  0.285457D-01
     18  0.140427D-02 -0.329911D-01 -0.227733D-04  0.749730D-02  0.165797D-01
     19 -0.107502D-05  0.385088D-03 -0.742507D-05  0.330185D-02  0.380587D-03
     20  0.000000D+00 -0.938904D-05  0.114926D-02  0.603527D-05 -0.356421D-02
     21 -0.203298D-03  0.411948D-02  0.602774D-05 -0.159402D-02 -0.206762D-02
               11            12            13            14            15 
     11  0.244977D+00
     12  0.117392D+00  0.111064D+00
     13  0.876621D-02 -0.594186D-02  0.831131D-01
     14 -0.193879D-01  0.126455D-01  0.860293D-01  0.246034D+00
     15 -0.127662D-01  0.708062D-02 -0.494618D-01 -0.116772D+00  0.109993D+00
     16  0.248738D-02  0.146037D-02 -0.210168D-01 -0.249141D-02  0.144851D-02
     17  0.474787D-02  0.468905D-02 -0.286177D-01  0.479519D-02 -0.466467D-02
     18  0.470128D-02 -0.635495D-03  0.164480D-01 -0.467859D-02 -0.678195D-03
     19 -0.285181D-02 -0.165715D-02  0.381796D-03  0.285966D-02 -0.164409D-02
     20 -0.897999D-03 -0.118766D-02  0.357336D-02 -0.909817D-03  0.118168D-02
     21 -0.118680D-02  0.462183D-03 -0.205107D-02  0.118082D-02  0.472983D-03
               16            17            18            19            20 
     16  0.155827D+01
     17 -0.907089D-04  0.108027D+00
     18 -0.107163D-02  0.000000D+00  0.108053D+00
     19 -0.123743D+01  0.757546D-04  0.896755D-03  0.124956D+01
     20  0.763525D-04 -0.385239D-01  0.000000D+00 -0.780498D-04  0.176825D-01
     21  0.891035D-03  0.000000D+00 -0.385297D-01 -0.916557D-03  0.000000D+00
               21 
     21  0.176846D-01
 Leave Link  716 at Sun Oct 13 09:47:58 2024, MaxMem=  2684354560 cpu:               0.8 elap:               0.1
 (Enter /usr/local/g16_AVX//g16/l103.exe)

 GradGradGradGradGradGradGradGradGradGradGradGradGradGradGradGradGradGrad
 Berny optimization.
 Search for a local minimum.
 Step number   1 out of a maximum of    2
 All quantities printed in internal units (Hartrees-Bohrs-Radians)
 Second derivative matrix not updated -- analytic derivatives used.
 ITU=  0
     Eigenvalues ---   -0.00065  -0.00064   0.01032   0.02432   0.02432
     Eigenvalues ---    0.09596   0.09598   0.09723   0.16225   0.16226
     Eigenvalues ---    0.28093   0.64928   0.82243   0.82276   2.66615
 Eigenvalue     1 is  -6.48D-04 should be greater than     0.000000 Eigenvector:
                          Y5        Y4        Y3        Y7        Y1
   1                    0.43865   0.43770   0.42496  -0.35320   0.33521
                          Y2        X5        X4        Y6        Z5
   1                   -0.26462  -0.25642   0.24205  -0.03954  -0.03019
 Eigenvalue     2 is  -6.44D-04 should be greater than     0.000000 Eigenvector:
                          Z3        Z4        Z5        Z7        Z1
   1                    0.44398   0.42908   0.42825  -0.35328   0.33524
                          X3        Z2        X4        X5        Z6
   1                   -0.28723  -0.26464   0.15673   0.13190  -0.03946
 Angle between quadratic step and forces=  49.01 degrees.
 Linear search not attempted -- first point.
 B after Tr=    -0.008680    0.000012   -0.000882
         Rot=    1.000000   -0.000000    0.000070    0.000001 Ang=  -0.01 deg.
 Variable       Old X    -DE/DX   Delta X   Delta X   Delta X     New X
                                 (Linear)    (Quad)   (Total)
    X1        1.49203   0.00355   0.00000   0.04520   0.03651   1.52855
    Y1        0.00017   0.00000   0.00000  -0.00002  -0.00001   0.00016
    Z1        0.00215   0.00002   0.00000   0.00172   0.00105   0.00321
    X2       -4.61326  -0.00154   0.00000  -0.09767  -0.10635  -4.71960
    Y2       -0.00003   0.00000   0.00000   0.00002   0.00004   0.00000
    Z2       -0.00042  -0.00000   0.00000  -0.00136  -0.00290  -0.00332
    X3        0.77040  -0.00301   0.00000  -0.00282  -0.01123   0.75917
    Y3        0.00464  -0.00000   0.00000  -0.00007  -0.00006   0.00458
    Z3       -1.92925   0.00114   0.00000   0.01817   0.01740  -1.91186
    X4        0.77179  -0.00295   0.00000   0.00039  -0.00843   0.76337
    Y4        1.67067  -0.00095   0.00000  -0.01319  -0.01318   1.65749
    Z4        0.97273  -0.00060   0.00000  -0.00598  -0.00675   0.96598
    X5        0.77160  -0.00295   0.00000   0.00039  -0.00843   0.76317
    Y5       -1.67466   0.00095   0.00000   0.01317   0.01318  -1.66148
    Z5        0.96507  -0.00059   0.00000  -0.00592  -0.00669   0.95838
    X6        4.24302   0.00204   0.00000   0.05593   0.04725   4.29027
    Y6        0.00002  -0.00000   0.00000  -0.00000   0.00000   0.00002
    Z6        0.00011   0.00004   0.00000  -0.00015  -0.00043  -0.00031
    X7        6.43914   0.00486   0.00000   0.05935   0.05067   6.48981
    Y7       -0.00012  -0.00000   0.00000   0.00003   0.00003  -0.00009
    Z7       -0.00151  -0.00001   0.00000  -0.00171  -0.00168  -0.00319
         Item               Value     Threshold  Converged?
 Maximum Force            0.004856     0.000450     NO 
 RMS     Force            0.001863     0.000300     NO 
 Maximum Displacement     0.106347     0.001800     NO 
 RMS     Displacement     0.029652     0.001200     NO 
 Predicted change in Energy=-3.859765D-04
 GradGradGradGradGradGradGradGradGradGradGradGradGradGradGradGradGradGrad

 Leave Link  103 at Sun Oct 13 09:47:58 2024, MaxMem=  2684354560 cpu:               0.7 elap:               0.1
 (Enter /usr/local/g16_AVX//g16/l9999.exe)

 ----------------------------------------------------------------------

 Electric dipole moment (input orientation):
 (Debye = 10**-18 statcoulomb cm , SI units = C m)
                  (au)            (Debye)         (10**-30 SI)
   Tot        0.235213D+01      0.597852D+01      0.199422D+02
   x          0.235213D+01      0.597852D+01      0.199422D+02
   y          0.129217D-03      0.328437D-03      0.109555D-02
   z          0.167720D-02      0.426300D-02      0.142199D-01

 Dipole polarizability, Alpha (input orientation).
 (esu units = cm**3 , SI units = C**2 m**2 J**-1)
 Alpha(0;0):
               (au)            (10**-24 esu)      (10**-40 SI)
   iso        0.539560D+02      0.799546D+01      0.889615D+01
   aniso      0.372515D+02      0.552010D+01      0.614193D+01
   xx         0.787903D+02      0.116755D+02      0.129908D+02
   yx        -0.102237D-02     -0.151500D-03     -0.168567D-03
   yy         0.415362D+02      0.615502D+01      0.684839D+01
   zx        -0.124651D-01     -0.184713D-02     -0.205521D-02
   zy        -0.960576D-04     -0.142343D-04     -0.158378D-04
   zz         0.415416D+02      0.615583D+01      0.684929D+01

 ----------------------------------------------------------------------

 Dipole orientation:
     6         -0.00109039          0.00008994          1.49203443
    17         -0.00286999          0.00021926         -4.61325523
     1          1.92980212          0.00470108          0.76902416
     1         -0.97227010          1.67057326          0.77257958
     1         -0.96442564         -1.67475365          0.77219191
     6          0.00291213         -0.00021782          4.24301996
     7          0.00610326         -0.00047813          6.43913321

 Electric dipole moment (dipole orientation):
 (Debye = 10**-18 statcoulomb cm , SI units = C m)
                  (au)            (Debye)         (10**-30 SI)
   Tot        0.235213D+01      0.597852D+01      0.199422D+02
   x          0.000000D+00      0.000000D+00      0.000000D+00
   y          0.000000D+00      0.000000D+00      0.000000D+00
   z          0.235213D+01      0.597852D+01      0.199422D+02

 Dipole polarizability, Alpha (dipole orientation).
 (esu units = cm**3 , SI units = C**2 m**2 J**-1)
 Alpha(0;0):
               (au)            (10**-24 esu)      (10**-40 SI)
   iso        0.539560D+02      0.799546D+01      0.889615D+01
   aniso      0.372515D+02      0.552010D+01      0.614193D+01
   xx         0.415416D+02      0.615584D+01      0.684929D+01
   yx         0.934855D-04      0.138531D-04      0.154137D-04
   yy         0.415362D+02      0.615502D+01      0.684839D+01
   zx         0.390256D-01      0.578299D-02      0.643444D-02
   zy        -0.306690D-02     -0.454468D-03     -0.505664D-03
   zz         0.787903D+02      0.116755D+02      0.129908D+02

 ----------------------------------------------------------------------
 1\1\GINC-NODO11\Freq\RB3LYP\6-31++G(d,p)\C2H3Cl1N1(1-)\ALANQF\13-Oct-2
 024\0\\#p b3lyp 6-31++g(d,p) scf=verytight NoSymm freq=noraman int=ult
 rafine\\RxCoord=-7.18691 DE=1.22\\-1,1\C,0.78955,0.000091,0.00114\Cl,-
 2.44123,-0.000018,-0.000222\H,0.407678,0.002454,-1.020917\H,0.408416,0
 .88408,0.514746\H,0.408311,-0.886191,0.510692\C,2.24531,0.000008,0.000
 06\N,3.407444,-0.000066,-0.0008\\Version=ES64L-G16RevB.01\HF=-593.0599
 158\RMSD=1.690e-09\RMSF=1.863e-03\ZeroPoint=0.0452337\Thermal=0.049574
 5\Dipole=2.4386096,0.0001374,0.0017909\DipoleDeriv=-0.1188887,0.000003
 7,0.0000569,-0.0000195,0.0619913,0.0000117,-0.0000209,0.0000117,0.0617
 333,-1.0881828,0.0000012,-0.0000046,0.0000049,-0.9286627,0.0000005,-0.
 0000094,0.0000005,-0.9286905,0.1256055,-0.0000277,0.0155666,0.000053,0
 .1097874,0.0002095,-0.018245,0.0002104,0.0174869,0.1251959,-0.013383,-
 0.0077022,0.0159434,0.0405768,-0.0401708,0.0092875,-0.0401915,0.086516
 1,0.1252585,0.0134273,-0.0076369,-0.0159635,0.0402209,0.0399504,0.0092
 145,0.0399702,0.0868874,0.522571,-0.0000284,-0.0004132,-0.0000459,0.05
 94844,-0.0000018,-0.0005968,-0.0000018,0.0594559,-0.6915593,0.0000068,
 0.0001335,0.0000277,-0.383398,0.0000005,0.0003701,0.0000005,-0.3833891
 \Polar=78.7903294,-0.0010224,41.5361632,-0.0124651,-0.0000961,41.54160
 8\Quadrupole=-25.9484869,12.973421,12.9750659,0.0003375,0.0038764,-0.0
 000137\PG=C01 [X(C2H3Cl1N1)]\NImag=2\\0.48693381,0.00000570,0.55748225
 ,-0.00003734,-0.00000512,0.55776459,-0.00635734,0.00000010,0.00000227,
 0.01049050,0.00000012,-0.00029307,0.00000003,0.00000043,-0.00017004,0.
 00000088,0.00000004,-0.00029441,-0.00001108,0.00000007,-0.00016840,-0.
 07089277,0.00020950,-0.09066794,-0.00041717,0.00000231,-0.00099505,0.0
 8326207,0.00020650,-0.04060686,0.00058547,0.00000299,-0.00101009,-0.00
 000359,-0.00023011,0.04287480,-0.08936246,0.00058543,-0.29395825,-0.00
 124674,-0.00000358,0.00049411,0.09940714,-0.00062430,0.31306006,-0.070
 76648,0.07823313,0.04543849,-0.00041347,0.00086538,0.00050570,0.004362
 42,-0.00955780,-0.00463332,0.08309431,0.07711273,-0.23009328,-0.110083
 56,0.00108041,0.00013376,0.00065711,-0.00081405,0.00052085,0.00128588,
 -0.08578087,0.24497669,0.04478610,-0.11008610,-0.10455609,0.00063143,0
 .00065645,-0.00061314,0.01056064,-0.02410951,-0.01280205,-0.04983953,0
 .11739225,0.11106397,-0.07078364,-0.07846137,0.04509445,-0.00041332,-0
 .00086804,0.00050201,0.00436381,0.00957832,-0.00458978,0.00435504,0.00
 876621,-0.00594186,0.08311311,-0.07733770,-0.23108571,0.10950295,-0.00
 108366,0.00013967,-0.00065357,0.00076517,0.00041505,-0.00122496,-0.008
 74132,-0.01938789,0.01264552,0.08602925,0.24603350,0.04444717,0.109505
 56,-0.10355212,0.00062677,-0.00065291,-0.00061912,0.01056677,0.0241686
 8,-0.01269715,-0.00598338,-0.01276616,0.00708062,-0.04946175,-0.116772
 17,0.10999298,-0.25730605,0.00001101,0.00014980,-0.00043701,-0.0000001
 4,-0.00000139,-0.02106346,0.00000752,-0.00287670,-0.02101241,0.0024873
 8,0.00146037,-0.02101681,-0.00249141,0.00144851,1.55826753,0.00001105,
 -0.07710597,0.00000039,-0.00000060,0.00140250,-0.00000008,0.00007656,-
 0.00334301,-0.00002451,0.02854568,0.00474787,0.00468905,-0.02861773,0.
 00479519,-0.00466467,-0.00009071,0.10802728,0.00014469,0.00000035,-0.0
 7711101,-0.00000642,-0.00000008,0.00140427,-0.03299105,-0.00002277,0.0
 0749730,0.01657966,0.00470128,-0.00063550,0.01644800,-0.00467859,-0.00
 067819,-0.00107163,-0.00000028,0.10805287,-0.01082753,0.00000194,0.000
 02027,-0.00245219,-0.00000007,-0.00000108,0.00038509,-0.00000743,0.003
 30185,0.00038059,-0.00285181,-0.00165715,0.00038180,0.00285966,-0.0016
 4409,-1.23743179,0.00007575,0.00089675,1.24956404,0.00000161,0.0217026
 4,-0.00000015,0.00000032,-0.00020272,0.00000002,-0.00000939,0.00114926
 ,0.00000604,-0.00356421,-0.00089800,-0.00118766,0.00357336,-0.00090982
 ,0.00118168,0.00007635,-0.03852386,0.00000009,-0.00007805,0.01768248,0
 .00002096,-0.00000015,0.02170730,0.00000376,0.00000002,-0.00020330,0.0
 0411948,0.00000603,-0.00159402,-0.00206762,-0.00118680,0.00046218,-0.0
 0205107,0.00118082,0.00047298,0.00089103,0.00000009,-0.03852974,-0.000
 91656,-0.00000001,0.01768459\\-0.00354864,-0.00000203,-0.00002389,0.00
 153967,-0.00000004,0.00000240,0.00300708,0.00000298,-0.00113933,0.0029
 4580,0.00095030,0.00059853,0.00294735,-0.00095141,0.00059371,-0.002035
 28,0.00000009,-0.00004130,-0.00485599,0.00000010,0.00000988\\\@


 THERE'S SMALL CHOICE IN A BOWL OF ROTTEN APPLES.
                     SHAKESPEARE
 Job cpu time:       0 days  0 hours  7 minutes 35.1 seconds.
 Elapsed time:       0 days  0 hours  0 minutes 19.0 seconds.
 File lengths (MBytes):  RWF=     88 Int=      0 D2E=      0 Chk=      2 Scr=      2
 Normal termination of Gaussian 16 at Sun Oct 13 09:47:58 2024.
