 Entering Gaussian System, Link 0=g16
 Initial command:
 /usr/local/g16_AVX//g16/l1.exe "/scratch/alanqf/0030-54472.ixchel.mda.cinvestav.mx/Gau-26709.inp" -scrdir="/scratch/alanqf/0030-54472.ixchel.mda.cinvestav.mx/"
 Entering Link 1 = /usr/local/g16_AVX//g16/l1.exe PID=     26710.
  
 Copyright (c) 1988-2017, Gaussian, Inc.  All Rights Reserved.
  
 This is part of the Gaussian(R) 16 program.  It is based on
 the Gaussian(R) 09 system (copyright 2009, Gaussian, Inc.),
 the Gaussian(R) 03 system (copyright 2003, Gaussian, Inc.),
 the Gaussian(R) 98 system (copyright 1998, Gaussian, Inc.),
 the Gaussian(R) 94 system (copyright 1995, Gaussian, Inc.),
 the Gaussian 92(TM) system (copyright 1992, Gaussian, Inc.),
 the Gaussian 90(TM) system (copyright 1990, Gaussian, Inc.),
 the Gaussian 88(TM) system (copyright 1988, Gaussian, Inc.),
 the Gaussian 86(TM) system (copyright 1986, Carnegie Mellon
 University), and the Gaussian 82(TM) system (copyright 1983,
 Carnegie Mellon University). Gaussian is a federally registered
 trademark of Gaussian, Inc.
  
 This software contains proprietary and confidential information,
 including trade secrets, belonging to Gaussian, Inc.
  
 This software is provided under written license and may be
 used, copied, transmitted, or stored only in accord with that
 written license.
  
 The following legend is applicable only to US Government
 contracts under FAR:
  
                    RESTRICTED RIGHTS LEGEND
  
 Use, reproduction and disclosure by the US Government is
 subject to restrictions as set forth in subparagraphs (a)
 and (c) of the Commercial Computer Software - Restricted
 Rights clause in FAR 52.227-19.
  
 Gaussian, Inc.
 340 Quinnipiac St., Bldg. 40, Wallingford CT 06492
  
  
 ---------------------------------------------------------------
 Warning -- This program may not be used in any manner that
 competes with the business of Gaussian, Inc. or will provide
 assistance to any competitor of Gaussian, Inc.  The licensee
 of this program is prohibited from giving any competitor of
 Gaussian, Inc. access to this program.  By using this program,
 the user acknowledges that Gaussian, Inc. is engaged in the
 business of creating and licensing software in the field of
 computational chemistry and represents and warrants to the
 licensee that it is not a competitor of Gaussian, Inc. and that
 it will not use this program in any manner prohibited above.
 ---------------------------------------------------------------
  

 Cite this work as:
 Gaussian 16, Revision B.01,
 M. J. Frisch, G. W. Trucks, H. B. Schlegel, G. E. Scuseria, 
 M. A. Robb, J. R. Cheeseman, G. Scalmani, V. Barone, 
 G. A. Petersson, H. Nakatsuji, X. Li, M. Caricato, A. V. Marenich, 
 J. Bloino, B. G. Janesko, R. Gomperts, B. Mennucci, H. P. Hratchian, 
 J. V. Ortiz, A. F. Izmaylov, J. L. Sonnenberg, D. Williams-Young, 
 F. Ding, F. Lipparini, F. Egidi, J. Goings, B. Peng, A. Petrone, 
 T. Henderson, D. Ranasinghe, V. G. Zakrzewski, J. Gao, N. Rega, 
 G. Zheng, W. Liang, M. Hada, M. Ehara, K. Toyota, R. Fukuda, 
 J. Hasegawa, M. Ishida, T. Nakajima, Y. Honda, O. Kitao, H. Nakai, 
 T. Vreven, K. Throssell, J. A. Montgomery, Jr., J. E. Peralta, 
 F. Ogliaro, M. J. Bearpark, J. J. Heyd, E. N. Brothers, K. N. Kudin, 
 V. N. Staroverov, T. A. Keith, R. Kobayashi, J. Normand, 
 K. Raghavachari, A. P. Rendell, J. C. Burant, S. S. Iyengar, 
 J. Tomasi, M. Cossi, J. M. Millam, M. Klene, C. Adamo, R. Cammi, 
 J. W. Ochterski, R. L. Martin, K. Morokuma, O. Farkas, 
 J. B. Foresman, and D. J. Fox, Gaussian, Inc., Wallingford CT, 2016.
 
 ******************************************
 Gaussian 16:  ES64L-G16RevB.01 20-Dec-2017
                13-Oct-2024 
 ******************************************
 %NProcShared=26
 Will use up to   26 processors via shared memory.
 %MEM=20GB
 %chk=CHKfiles/0030.chk
 ---------------------------------------------------------------------
 #p b3lyp 6-31++g(d,p) scf=verytight NoSymm freq=noraman int=ultrafine
 ---------------------------------------------------------------------
 1/10=4,30=1,38=1/1,3;
 2/12=2,15=1,17=6,18=5,40=1/2;
 3/5=1,6=6,7=1111,11=2,25=1,30=1,71=2,74=-5,75=-5,140=1/1,2,3;
 4//1;
 5/5=2,17=3,38=5,98=1/2;
 8/6=4,10=90,11=11/1;
 11/6=1,8=1,9=11,15=111,16=1,31=1/1,2,10;
 10/6=1,31=1/2;
 6/7=2,8=2,9=2,10=2,28=1/1;
 7/8=1,10=1,25=1,30=1/1,2,3,16;
 1/10=4,30=1/3;
 99//99;
 Leave Link    1 at Sun Oct 13 09:47:38 2024, MaxMem=  2684354560 cpu:               1.9 elap:               0.1
 (Enter /usr/local/g16_AVX//g16/l101.exe)
 ------------------------
 RxCoord=-7.08693 DE=1.31
 ------------------------
 Symbolic Z-matrix:
 Charge = -1 Multiplicity = 1
 C                     0.78409   0.00011   0.00095 
 Cl                   -2.43466  -0.00002  -0.00012 
 H                     0.4022    0.0025   -1.02104 
 H                     0.40281   0.88398   0.51449 
 H                     0.40266  -0.88608   0.51039 
 C                     2.23965  -0.00003  -0.00004 
 N                     3.40177  -0.00005  -0.00076 
 
 ITRead=  0  0  0  0  0  0  0
 MicOpt= -1 -1 -1 -1 -1 -1 -1
 NAtoms=      7 NQM=        7 NQMF=       0 NMMI=      0 NMMIF=      0
                NMic=       0 NMicF=      0.
                    Isotopes and Nuclear Properties:
 (Nuclear quadrupole moments (NQMom) in fm**2, nuclear magnetic moments (NMagM)
  in nuclear magnetons)

  Atom         1           2           3           4           5           6           7
 IAtWgt=          12          35           1           1           1          12          14
 AtmWgt=  12.0000000  34.9688527   1.0078250   1.0078250   1.0078250  12.0000000  14.0030740
 NucSpn=           0           3           1           1           1           0           2
 AtZEff=  -0.0000000  -0.0000000  -0.0000000  -0.0000000  -0.0000000  -0.0000000  -0.0000000
 NQMom=    0.0000000  -8.1650000   0.0000000   0.0000000   0.0000000   0.0000000   2.0440000
 NMagM=    0.0000000   0.8218740   2.7928460   2.7928460   2.7928460   0.0000000   0.4037610
 AtZNuc=   6.0000000  17.0000000   1.0000000   1.0000000   1.0000000   6.0000000   7.0000000
 Leave Link  101 at Sun Oct 13 09:47:38 2024, MaxMem=  2684354560 cpu:               1.4 elap:               0.1
 (Enter /usr/local/g16_AVX//g16/l103.exe)

 GradGradGradGradGradGradGradGradGradGradGradGradGradGradGradGradGradGrad
 Berny optimization.
 Initialization pass.
 Trust Radius=3.00D-01 FncErr=1.00D-07 GrdErr=1.00D-07 EigMax=2.50D+02 EigMin=1.00D-04
 Number of steps in this run=      2 maximum allowed number of steps=      2.
 GradGradGradGradGradGradGradGradGradGradGradGradGradGradGradGradGradGrad

 Leave Link  103 at Sun Oct 13 09:47:38 2024, MaxMem=  2684354560 cpu:               0.5 elap:               0.0
 (Enter /usr/local/g16_AVX//g16/l202.exe)
                          Input orientation:                          
 ---------------------------------------------------------------------
 Center     Atomic      Atomic             Coordinates (Angstroms)
 Number     Number       Type             X           Y           Z
 ---------------------------------------------------------------------
      1          6           0        0.784086    0.000107    0.000948
      2         17           0       -2.434658   -0.000018   -0.000119
      3          1           0        0.402199    0.002498   -1.021042
      4          1           0        0.402813    0.883983    0.514486
      5          1           0        0.402658   -0.886080    0.510390
      6          6           0        2.239653   -0.000029   -0.000037
      7          7           0        3.401767   -0.000049   -0.000760
 ---------------------------------------------------------------------
                    Distance matrix (angstroms):
                    1          2          3          4          5
     1  C    0.000000
     2  Cl   3.218744   0.000000
     3  H    1.091012   3.014971   0.000000
     4  H    1.091021   3.016209   1.770554   0.000000
     5  H    1.091030   3.015972   1.770552   1.770068   0.000000
     6  C    1.455567   4.674311   2.102069   2.102425   2.102421
     7  N    2.617682   5.836425   3.168342   3.168709   3.168751
                    6          7
     6  C    0.000000
     7  N    1.162114   0.000000
 Symmetry turned off by external request.
 Stoichiometry    C2H3ClN(1-)
 Framework group  C1[X(C2H3ClN)]
 Deg. of freedom    15
 Full point group                 C1      NOp   1
 Rotational constants (GHZ):         159.9890273           1.1513031           1.1513000
 Leave Link  202 at Sun Oct 13 09:47:39 2024, MaxMem=  2684354560 cpu:               1.2 elap:               0.1
 (Enter /usr/local/g16_AVX//g16/l301.exe)
 Standard basis: 6-31++G(d,p) (6D, 7F)
 Ernie: Thresh=  0.10000D-02 Tol=  0.10000D-05 Strict=F.
    98 basis functions,   176 primitive gaussians,    98 cartesian basis functions
    20 alpha electrons       20 beta electrons
       nuclear repulsion energy       106.4239734989 Hartrees.
 IExCor=  402 DFT=T Ex+Corr=B3LYP ExCW=0 ScaHFX=  0.200000
 ScaDFX=  0.800000  0.720000  1.000000  0.810000 ScalE2=  1.000000  1.000000
 IRadAn=      5 IRanWt=     -1 IRanGd=            0 ICorTp=0 IEmpDi=  4
 NAtoms=    7 NActive=    7 NUniq=    7 SFac= 1.00D+00 NAtFMM=   60 NAOKFM=F Big=F
 Integral buffers will be    131072 words long.
 Raffenetti 2 integral format.
 Two-electron integral symmetry is turned off.
 Leave Link  301 at Sun Oct 13 09:47:39 2024, MaxMem=  2684354560 cpu:               1.6 elap:               0.1
 (Enter /usr/local/g16_AVX//g16/l302.exe)
 NPDir=0 NMtPBC=     1 NCelOv=     1 NCel=       1 NClECP=     1 NCelD=      1
         NCelK=      1 NCelE2=     1 NClLst=     1 CellRange=     0.0.
 One-electron integrals computed using PRISM.
 NBasis=    98 RedAO= T EigKep=  1.45D-05  NBF=    98
 NBsUse=    98 1.00D-06 EigRej= -1.00D+00 NBFU=    98
 Precomputing XC quadrature grid using
 IXCGrd= 4 IRadAn=           5 IRanWt=          -1 IRanGd=           0 AccXCQ= 0.00D+00.
 Generated NRdTot=       0 NPtTot=           0 NUsed=           0 NTot=          32
 NSgBfM=    98    98    98    98    98 MxSgAt=     7 MxSgA2=     7.
 Leave Link  302 at Sun Oct 13 09:47:39 2024, MaxMem=  2684354560 cpu:               4.6 elap:               0.2
 (Enter /usr/local/g16_AVX//g16/l303.exe)
 DipDrv:  MaxL=1.
 Leave Link  303 at Sun Oct 13 09:47:39 2024, MaxMem=  2684354560 cpu:               1.8 elap:               0.1
 (Enter /usr/local/g16_AVX//g16/l401.exe)
 ExpMin= 3.60D-02 ExpMax= 2.52D+04 ExpMxC= 3.78D+03 IAcc=3 IRadAn=         5 AccDes= 0.00D+00
 Harris functional with IExCor=  402 and IRadAn=       5 diagonalized for initial guess.
 HarFok:  IExCor=  402 AccDes= 0.00D+00 IRadAn=         5 IDoV= 1 UseB2=F ITyADJ=14
 ICtDFT=  3500011 ScaDFX=  1.000000  1.000000  1.000000  1.000000
 FoFCou: FMM=F IPFlag=           0 FMFlag=      100000 FMFlg1=           0
         NFxFlg=           0 DoJE=T BraDBF=F KetDBF=T FulRan=T
         wScrn=  0.000000 ICntrl=       500 IOpCl=  0 I1Cent=   200000004 NGrid=           0
         NMat0=    1 NMatS0=      1 NMatT0=    0 NMatD0=    1 NMtDS0=    0 NMtDT0=    0
 Symmetry not used in FoFCou.
 Harris En= -593.113895118024    
 JPrj=0 DoOrth=F DoCkMO=F.
 Leave Link  401 at Sun Oct 13 09:47:39 2024, MaxMem=  2684354560 cpu:               5.7 elap:               0.3
 (Enter /usr/local/g16_AVX//g16/l502.exe)
 Keep R1 ints in memory in canonical form, NReq=35752935.
 FoFCou: FMM=F IPFlag=           0 FMFlag=           0 FMFlg1=           0
         NFxFlg=           0 DoJE=F BraDBF=F KetDBF=F FulRan=T
         wScrn=  0.000000 ICntrl=       600 IOpCl=  0 I1Cent=           0 NGrid=           0
         NMat0=    1 NMatS0=   4851 NMatT0=    0 NMatD0=    1 NMtDS0=    0 NMtDT0=    0
 Symmetry not used in FoFCou.
 Two-electron integral symmetry not used.
 Closed shell SCF:
 Using DIIS extrapolation, IDIIS=  1040.
 NGot=  2684354560 LenX=  2672563405 LenY=  2672553360
 Requested convergence on RMS density matrix=1.00D-08 within 128 cycles.
 Requested convergence on MAX density matrix=1.00D-06.
 Requested convergence on             energy=1.00D-06.
 No special actions if energy rises.

 Cycle   1  Pass 1  IDiag  1:
 E= -592.950027464237    
 DIIS: error= 2.79D-02 at cycle   1 NSaved=   1.
 NSaved= 1 IEnMin= 1 EnMin= -592.950027464237     IErMin= 1 ErrMin= 2.79D-02
 ErrMax= 2.79D-02  0.00D+00 EMaxC= 1.00D-01 BMatC= 1.04D-01 BMatP= 1.04D-01
 IDIUse=3 WtCom= 7.21D-01 WtEn= 2.79D-01
 Coeff-Com:  0.100D+01
 Coeff-En:   0.100D+01
 Coeff:      0.100D+01
 Gap=     0.170 Goal=   None    Shift=    0.000
 GapD=    0.170 DampG=1.000 DampE=0.500 DampFc=0.5000 IDamp=-1.
 Damping current iteration by 5.00D-01
 RMSDP=1.16D-02 MaxDP=2.22D-01              OVMax= 1.75D-01

 Cycle   2  Pass 1  IDiag  1:
 E= -592.990419783780     Delta-E=       -0.040392319544 Rises=F Damp=T
 DIIS: error= 1.66D-02 at cycle   2 NSaved=   2.
 NSaved= 2 IEnMin= 2 EnMin= -592.990419783780     IErMin= 2 ErrMin= 1.66D-02
 ErrMax= 1.66D-02  0.00D+00 EMaxC= 1.00D-01 BMatC= 1.42D-02 BMatP= 1.04D-01
 IDIUse=3 WtCom= 8.34D-01 WtEn= 1.66D-01
 Coeff-Com:  0.154D+00 0.846D+00
 Coeff-En:   0.233D+00 0.767D+00
 Coeff:      0.167D+00 0.833D+00
 Gap=     0.149 Goal=   None    Shift=    0.000
 RMSDP=4.96D-03 MaxDP=1.61D-01 DE=-4.04D-02 OVMax= 1.40D-01

 Cycle   3  Pass 1  IDiag  1:
 E= -593.042006322824     Delta-E=       -0.051586539044 Rises=F Damp=F
 DIIS: error= 1.38D-02 at cycle   3 NSaved=   3.
 NSaved= 3 IEnMin= 3 EnMin= -593.042006322824     IErMin= 3 ErrMin= 1.38D-02
 ErrMax= 1.38D-02  0.00D+00 EMaxC= 1.00D-01 BMatC= 1.94D-02 BMatP= 1.42D-02
 IDIUse=2 WtCom= 0.00D+00 WtEn= 1.00D+00
 Coeff-En:   0.000D+00 0.000D+00 0.100D+01
 Coeff:      0.000D+00 0.000D+00 0.100D+01
 Gap=     0.157 Goal=   None    Shift=    0.000
 RMSDP=7.46D-03 MaxDP=2.73D-01 DE=-5.16D-02 OVMax= 1.63D-01

 Cycle   4  Pass 1  IDiag  1:
 E= -592.947371793149     Delta-E=        0.094634529676 Rises=F Damp=F
 DIIS: error= 3.17D-02 at cycle   4 NSaved=   4.
 NSaved= 4 IEnMin= 3 EnMin= -593.042006322824     IErMin= 3 ErrMin= 1.38D-02
 ErrMax= 3.17D-02  0.00D+00 EMaxC= 1.00D-01 BMatC= 1.26D-01 BMatP= 1.42D-02
 IDIUse=2 WtCom= 0.00D+00 WtEn= 1.00D+00
 Coeff-En:   0.000D+00 0.000D+00 0.803D+00 0.197D+00
 Coeff:      0.000D+00 0.000D+00 0.803D+00 0.197D+00
 Gap=     0.154 Goal=   None    Shift=    0.000
 RMSDP=3.51D-03 MaxDP=1.26D-01 DE= 9.46D-02 OVMax= 8.33D-02

 Cycle   5  Pass 1  IDiag  1:
 E= -593.050414558591     Delta-E=       -0.103042765442 Rises=F Damp=F
 DIIS: error= 9.28D-03 at cycle   5 NSaved=   5.
 NSaved= 5 IEnMin= 5 EnMin= -593.050414558591     IErMin= 5 ErrMin= 9.28D-03
 ErrMax= 9.28D-03  0.00D+00 EMaxC= 1.00D-01 BMatC= 1.05D-02 BMatP= 1.42D-02
 IDIUse=3 WtCom= 9.07D-01 WtEn= 9.28D-02
 Coeff-Com: -0.102D-02 0.195D-01 0.322D+00-0.995D-01 0.759D+00
 Coeff-En:   0.000D+00 0.000D+00 0.387D+00 0.000D+00 0.613D+00
 Coeff:     -0.923D-03 0.177D-01 0.328D+00-0.902D-01 0.745D+00
 Gap=     0.155 Goal=   None    Shift=    0.000
 RMSDP=1.50D-03 MaxDP=5.35D-02 DE=-1.03D-01 OVMax= 3.28D-02

 Cycle   6  Pass 1  IDiag  1:
 E= -593.059872751123     Delta-E=       -0.009458192532 Rises=F Damp=F
 DIIS: error= 1.61D-04 at cycle   6 NSaved=   6.
 NSaved= 6 IEnMin= 6 EnMin= -593.059872751123     IErMin= 6 ErrMin= 1.61D-04
 ErrMax= 1.61D-04  0.00D+00 EMaxC= 1.00D-01 BMatC= 4.96D-06 BMatP= 1.05D-02
 IDIUse=3 WtCom= 9.98D-01 WtEn= 1.61D-03
 Coeff-Com: -0.180D-02 0.781D-02 0.118D+00-0.489D-01 0.323D+00 0.601D+00
 Coeff-En:   0.000D+00 0.000D+00 0.000D+00 0.000D+00 0.000D+00 0.100D+01
 Coeff:     -0.180D-02 0.780D-02 0.118D+00-0.488D-01 0.323D+00 0.602D+00
 Gap=     0.154 Goal=   None    Shift=    0.000
 RMSDP=3.80D-05 MaxDP=6.77D-04 DE=-9.46D-03 OVMax= 6.31D-04

 Cycle   7  Pass 1  IDiag  1:
 E= -593.059877355808     Delta-E=       -0.000004604685 Rises=F Damp=F
 DIIS: error= 6.83D-05 at cycle   7 NSaved=   7.
 NSaved= 7 IEnMin= 7 EnMin= -593.059877355808     IErMin= 7 ErrMin= 6.83D-05
 ErrMax= 6.83D-05  0.00D+00 EMaxC= 1.00D-01 BMatC= 5.26D-07 BMatP= 4.96D-06
 IDIUse=1 WtCom= 1.00D+00 WtEn= 0.00D+00
 Coeff-Com: -0.283D-03 0.101D-02 0.189D-01-0.996D-02 0.554D-01 0.189D+00
 Coeff-Com:  0.746D+00
 Coeff:     -0.283D-03 0.101D-02 0.189D-01-0.996D-02 0.554D-01 0.189D+00
 Coeff:      0.746D+00
 Gap=     0.154 Goal=   None    Shift=    0.000
 RMSDP=8.95D-06 MaxDP=1.33D-04 DE=-4.60D-06 OVMax= 2.50D-04

 Cycle   8  Pass 1  IDiag  1:
 E= -593.059877858876     Delta-E=       -0.000000503068 Rises=F Damp=F
 DIIS: error= 1.11D-05 at cycle   8 NSaved=   8.
 NSaved= 8 IEnMin= 8 EnMin= -593.059877858876     IErMin= 8 ErrMin= 1.11D-05
 ErrMax= 1.11D-05  0.00D+00 EMaxC= 1.00D-01 BMatC= 1.35D-08 BMatP= 5.26D-07
 IDIUse=1 WtCom= 1.00D+00 WtEn= 0.00D+00
 Coeff-Com:  0.295D-04-0.118D-03 0.397D-02-0.197D-02 0.106D-01 0.499D-01
 Coeff-Com:  0.263D+00 0.674D+00
 Coeff:      0.295D-04-0.118D-03 0.397D-02-0.197D-02 0.106D-01 0.499D-01
 Coeff:      0.263D+00 0.674D+00
 Gap=     0.154 Goal=   None    Shift=    0.000
 RMSDP=5.52D-06 MaxDP=1.70D-04 DE=-5.03D-07 OVMax= 3.68D-05

 Cycle   9  Pass 1  IDiag  1:
 E= -593.059877873776     Delta-E=       -0.000000014900 Rises=F Damp=F
 DIIS: error= 2.30D-06 at cycle   9 NSaved=   9.
 NSaved= 9 IEnMin= 9 EnMin= -593.059877873776     IErMin= 9 ErrMin= 2.30D-06
 ErrMax= 2.30D-06  0.00D+00 EMaxC= 1.00D-01 BMatC= 6.63D-10 BMatP= 1.35D-08
 IDIUse=1 WtCom= 1.00D+00 WtEn= 0.00D+00
 Coeff-Com:  0.312D-04-0.714D-04-0.631D-03 0.979D-04-0.138D-02-0.695D-03
 Coeff-Com:  0.157D-01 0.196D+00 0.790D+00
 Coeff:      0.312D-04-0.714D-04-0.631D-03 0.979D-04-0.138D-02-0.695D-03
 Coeff:      0.157D-01 0.196D+00 0.790D+00
 Gap=     0.154 Goal=   None    Shift=    0.000
 RMSDP=1.19D-06 MaxDP=4.32D-05 DE=-1.49D-08 OVMax= 7.17D-06

 Cycle  10  Pass 1  IDiag  1:
 E= -593.059877874472     Delta-E=       -0.000000000696 Rises=F Damp=F
 DIIS: error= 2.71D-07 at cycle  10 NSaved=  10.
 NSaved=10 IEnMin=10 EnMin= -593.059877874472     IErMin=10 ErrMin= 2.71D-07
 ErrMax= 2.71D-07  0.00D+00 EMaxC= 1.00D-01 BMatC= 1.39D-11 BMatP= 6.63D-10
 IDIUse=1 WtCom= 1.00D+00 WtEn= 0.00D+00
 Coeff-Com:  0.693D-05-0.188D-04-0.117D-03 0.556D-04-0.321D-03-0.335D-03
 Coeff-Com: -0.276D-02 0.238D-01 0.150D+00 0.830D+00
 Coeff:      0.693D-05-0.188D-04-0.117D-03 0.556D-04-0.321D-03-0.335D-03
 Coeff:     -0.276D-02 0.238D-01 0.150D+00 0.830D+00
 Gap=     0.154 Goal=   None    Shift=    0.000
 RMSDP=7.06D-08 MaxDP=1.26D-06 DE=-6.96D-10 OVMax= 1.23D-06

 Cycle  11  Pass 1  IDiag  1:
 E= -593.059877874484     Delta-E=       -0.000000000012 Rises=F Damp=F
 DIIS: error= 6.54D-08 at cycle  11 NSaved=  11.
 NSaved=11 IEnMin=11 EnMin= -593.059877874484     IErMin=11 ErrMin= 6.54D-08
 ErrMax= 6.54D-08  0.00D+00 EMaxC= 1.00D-01 BMatC= 4.63D-13 BMatP= 1.39D-11
 IDIUse=1 WtCom= 1.00D+00 WtEn= 0.00D+00
 Coeff-Com: -0.681D-06 0.124D-05-0.121D-04 0.544D-05-0.229D-04-0.610D-04
 Coeff-Com: -0.998D-03-0.201D-02 0.152D-02 0.736D-01 0.928D+00
 Coeff:     -0.681D-06 0.124D-05-0.121D-04 0.544D-05-0.229D-04-0.610D-04
 Coeff:     -0.998D-03-0.201D-02 0.152D-02 0.736D-01 0.928D+00
 Gap=     0.154 Goal=   None    Shift=    0.000
 RMSDP=8.88D-08 MaxDP=3.46D-06 DE=-1.21D-11 OVMax= 2.02D-07

 Cycle  12  Pass 1  IDiag  1:
 E= -593.059877874486     Delta-E=       -0.000000000002 Rises=F Damp=F
 DIIS: error= 1.85D-08 at cycle  12 NSaved=  12.
 NSaved=12 IEnMin=12 EnMin= -593.059877874486     IErMin=12 ErrMin= 1.85D-08
 ErrMax= 1.85D-08  0.00D+00 EMaxC= 1.00D-01 BMatC= 9.87D-15 BMatP= 4.63D-13
 IDIUse=1 WtCom= 1.00D+00 WtEn= 0.00D+00
 Coeff-Com: -0.477D-06 0.102D-05-0.831D-06-0.146D-07 0.191D-05-0.104D-04
 Coeff-Com: -0.213D-03-0.115D-02-0.332D-02 0.316D-02 0.298D+00 0.704D+00
 Coeff:     -0.477D-06 0.102D-05-0.831D-06-0.146D-07 0.191D-05-0.104D-04
 Coeff:     -0.213D-03-0.115D-02-0.332D-02 0.316D-02 0.298D+00 0.704D+00
 Gap=     0.154 Goal=   None    Shift=    0.000
 RMSDP=2.11D-08 MaxDP=8.48D-07 DE=-1.82D-12 OVMax= 3.63D-08

 Cycle  13  Pass 1  IDiag  1:
 E= -593.059877874486     Delta-E=       -0.000000000000 Rises=F Damp=F
 DIIS: error= 1.19D-09 at cycle  13 NSaved=  13.
 NSaved=13 IEnMin=13 EnMin= -593.059877874486     IErMin=13 ErrMin= 1.19D-09
 ErrMax= 1.19D-09  0.00D+00 EMaxC= 1.00D-01 BMatC= 1.96D-16 BMatP= 9.87D-15
 IDIUse=1 WtCom= 1.00D+00 WtEn= 0.00D+00
 Coeff-Com: -0.147D-07 0.214D-07 0.303D-06-0.712D-07 0.506D-06-0.241D-05
 Coeff-Com:  0.104D-04-0.173D-04-0.333D-03 0.649D-03-0.116D-01 0.250D-01
 Coeff-Com:  0.986D+00
 Coeff:     -0.147D-07 0.214D-07 0.303D-06-0.712D-07 0.506D-06-0.241D-05
 Coeff:      0.104D-04-0.173D-04-0.333D-03 0.649D-03-0.116D-01 0.250D-01
 Coeff:      0.986D+00
 Gap=     0.154 Goal=   None    Shift=    0.000
 RMSDP=1.62D-09 MaxDP=5.61D-08 DE=-2.27D-13 OVMax= 7.15D-09

 SCF Done:  E(RB3LYP) =  -593.059877874     A.U. after   13 cycles
            NFock= 13  Conv=0.16D-08     -V/T= 2.0047
 KE= 5.902959595742D+02 PE=-1.623095941526D+03 EE= 3.333161305781D+02
 Leave Link  502 at Sun Oct 13 09:47:41 2024, MaxMem=  2684354560 cpu:              38.5 elap:               1.8
 (Enter /usr/local/g16_AVX//g16/l801.exe)
 DoSCS=F DFT=T ScalE2(SS,OS)=  1.000000  1.000000
 Range of M.O.s used for correlation:     1    98
 NBasis=    98 NAE=    20 NBE=    20 NFC=     0 NFV=     0
 NROrb=     98 NOA=    20 NOB=    20 NVA=    78 NVB=    78

 **** Warning!!: The largest alpha MO coefficient is  0.13239877D+03

 Leave Link  801 at Sun Oct 13 09:47:41 2024, MaxMem=  2684354560 cpu:               2.1 elap:               0.1
 (Enter /usr/local/g16_AVX//g16/l1101.exe)
 Using compressed storage, NAtomX=     7.
 Will process      8 centers per pass.
 Leave Link 1101 at Sun Oct 13 09:47:42 2024, MaxMem=  2684354560 cpu:               4.8 elap:               0.2
 (Enter /usr/local/g16_AVX//g16/l1102.exe)
 Symmetrizing basis deriv contribution to polar:
 IMax=3 JMax=2 DiffMx= 0.00D+00
 Leave Link 1102 at Sun Oct 13 09:47:42 2024, MaxMem=  2684354560 cpu:               1.8 elap:               0.1
 (Enter /usr/local/g16_AVX//g16/l1110.exe)
 Forming Gx(P) for the SCF density, NAtomX=     7.
 Integral derivatives from FoFJK, PRISM(SPDF).
 Do as many integral derivatives as possible in FoFJK.
 G2DrvN: MDV=    2684353864.
 G2DrvN: will do     8 centers at a time, making    1 passes.
 Calling FoFCou, ICntrl=  3107 FMM=F I1Cent=   0 AccDes= 0.00D+00.
 FoFJK:  IHMeth= 1 ICntrl=    3107 DoSepK=F KAlg= 0 I1Cent=           0 FoldK=F
 IRaf=         0 NMat=       1 IRICut=       1 DoRegI=T DoRafI=F ISym2E= 0 IDoP0=0 IntGTp=1.
 FoFCou: FMM=F IPFlag=           0 FMFlag=      100000 FMFlg1=           0
         NFxFlg=           0 DoJE=F BraDBF=F KetDBF=F FulRan=T
         wScrn=  0.000000 ICntrl=      3107 IOpCl=  0 I1Cent=           0 NGrid=           0
         NMat0=    1 NMatS0=      1 NMatT0=    0 NMatD0=    1 NMtDS0=    0 NMtDT0=    0
 Symmetry not used in FoFCou.
 End of G2Drv F.D. properties file   721 does not exist.
 End of G2Drv F.D. properties file   722 does not exist.
 End of G2Drv F.D. properties file   788 does not exist.
 Leave Link 1110 at Sun Oct 13 09:47:43 2024, MaxMem=  2684354560 cpu:              44.1 elap:               1.7
 (Enter /usr/local/g16_AVX//g16/l1002.exe)
 Minotr:  Closed shell wavefunction.
          IDoAtm=1111111
          Direct CPHF calculation.
          Differentiating once with respect to electric field.
                with respect to dipole field.
          Differentiating once with respect to nuclear coordinates.
          Requested convergence is 1.0D-08 RMS, and 1.0D-07 maximum.
          Secondary convergence is 1.0D-12 RMS, and 1.0D-12 maximum.
          NewPWx=T KeepS1=F KeepF1=F KeepIn=T MapXYZ=F SortEE=F KeepMc=T.
         2136 words used for storage of precomputed grid.
 Keep R1 ints in memory in canonical form, NReq=35668397.
 FoFCou: FMM=F IPFlag=           0 FMFlag=           0 FMFlg1=           0
         NFxFlg=           0 DoJE=F BraDBF=F KetDBF=F FulRan=T
         wScrn=  0.000000 ICntrl=       600 IOpCl=  0 I1Cent=           0 NGrid=           0
         NMat0=    1 NMatS0=   4851 NMatT0=    0 NMatD0=    1 NMtDS0=    0 NMtDT0=    0
 Symmetry not used in FoFCou.
 Two-electron integral symmetry not used.
          MDV=    2684354560 using IRadAn=       1.
          Solving linear equations simultaneously, MaxMat=       0.
          There are    24 degrees of freedom in the 1st order CPHF.  IDoFFX=6 NUNeed=     3.
     21 vectors produced by pass  0 Test12= 6.50D-15 4.17D-09 XBig12= 6.90D+01 2.81D+00.
 AX will form    21 AO Fock derivatives at one time.
     21 vectors produced by pass  1 Test12= 6.50D-15 4.17D-09 XBig12= 4.80D+01 2.24D+00.
     21 vectors produced by pass  2 Test12= 6.50D-15 4.17D-09 XBig12= 1.54D+00 3.53D-01.
     21 vectors produced by pass  3 Test12= 6.50D-15 4.17D-09 XBig12= 9.32D-03 2.09D-02.
     21 vectors produced by pass  4 Test12= 6.50D-15 4.17D-09 XBig12= 1.20D-05 5.96D-04.
     18 vectors produced by pass  5 Test12= 6.50D-15 4.17D-09 XBig12= 1.24D-08 2.28D-05.
      4 vectors produced by pass  6 Test12= 6.50D-15 4.17D-09 XBig12= 1.83D-11 9.18D-07.
      3 vectors produced by pass  7 Test12= 6.50D-15 4.17D-09 XBig12= 3.03D-14 4.17D-08.
 InvSVY:  IOpt=1 It=  1 EMax= 6.22D-15
 Solved reduced A of dimension   130 with    24 vectors.
 FullF1:  Do perturbations      1 to       3.
 Isotropic polarizability for W=    0.000000       53.96 Bohr**3.
 End of Minotr F.D. properties file   721 does not exist.
 End of Minotr F.D. properties file   722 does not exist.
 End of Minotr F.D. properties file   788 does not exist.
 Leave Link 1002 at Sun Oct 13 09:47:46 2024, MaxMem=  2684354560 cpu:              59.8 elap:               2.4
 (Enter /usr/local/g16_AVX//g16/l601.exe)
 Copying SCF densities to generalized density rwf, IOpCl= 0 IROHF=0.

 **********************************************************************

            Population analysis using the SCF Density.

 **********************************************************************

 Alpha  occ. eigenvalues -- -101.25493 -14.22748 -10.12445 -10.09472  -9.16843
 Alpha  occ. eigenvalues --   -6.92627  -6.92627  -6.92609  -0.79746  -0.64266
 Alpha  occ. eigenvalues --   -0.50692  -0.38034  -0.32602  -0.32594  -0.25816
 Alpha  occ. eigenvalues --   -0.21624  -0.21623  -0.05346  -0.05286  -0.05285
 Alpha virt. eigenvalues --    0.10141   0.13671   0.13674   0.14338   0.14792
 Alpha virt. eigenvalues --    0.14793   0.19944   0.20600   0.20602   0.21942
 Alpha virt. eigenvalues --    0.23211   0.23214   0.25351   0.25974   0.25976
 Alpha virt. eigenvalues --    0.29406   0.32788   0.33654   0.33655   0.34451
 Alpha virt. eigenvalues --    0.34454   0.35233   0.39429   0.41070   0.48567
 Alpha virt. eigenvalues --    0.69009   0.78767   0.78768   0.84753   0.84757
 Alpha virt. eigenvalues --    0.84965   0.84969   0.85670   0.88877   0.98591
 Alpha virt. eigenvalues --    1.02564   1.02574   1.03386   1.09785   1.12073
 Alpha virt. eigenvalues --    1.12074   1.15354   1.15354   1.15929   1.15930
 Alpha virt. eigenvalues --    1.21432   1.25507   1.27651   1.45414   1.45422
 Alpha virt. eigenvalues --    1.54072   1.62695   1.62696   1.86313   1.86321
 Alpha virt. eigenvalues --    1.90741   2.05403   2.05405   2.14926   2.23814
 Alpha virt. eigenvalues --    2.23825   2.31242   2.39809   2.39819   2.77833
 Alpha virt. eigenvalues --    2.80284   2.80287   3.05478   3.09167   3.09198
 Alpha virt. eigenvalues --    3.28572   3.45418   3.55336   3.55347   4.25328
 Alpha virt. eigenvalues --    4.44437   4.58026   4.81081
          Condensed to atoms (all electrons):
               1          2          3          4          5          6
     1  C    5.968953  -0.117397   0.417481   0.418690   0.418554  -1.042799
     2  Cl  -0.117397  17.932368  -0.007189  -0.007145  -0.007147   0.128919
     3  H    0.417481  -0.007189   0.484707  -0.024147  -0.024145  -0.059341
     4  H    0.418690  -0.007145  -0.024147   0.484846  -0.024243  -0.060645
     5  H    0.418554  -0.007147  -0.024145  -0.024243   0.484822  -0.060496
     6  C   -1.042799   0.128919  -0.059341  -0.060645  -0.060496   6.780688
     7  N   -0.047637   0.000829  -0.005228  -0.005200  -0.005200   0.447794
               7
     1  C   -0.047637
     2  Cl   0.000829
     3  H   -0.005228
     4  H   -0.005200
     5  H   -0.005200
     6  C    0.447794
     7  N    7.195000
 Mulliken charges:
               1
     1  C   -0.015845
     2  Cl  -0.923238
     3  H    0.217861
     4  H    0.217844
     5  H    0.217855
     6  C   -0.134120
     7  N   -0.580357
 Sum of Mulliken charges =  -1.00000
 Mulliken charges with hydrogens summed into heavy atoms:
               1
     1  C    0.637715
     2  Cl  -0.923238
     6  C   -0.134120
     7  N   -0.580357
 APT charges:
               1
     1  C    0.001123
     2  Cl  -0.981643
     3  H    0.084491
     4  H    0.084350
     5  H    0.084379
     6  C    0.214585
     7  N   -0.487285
 Sum of APT charges =  -1.00000
 APT charges with hydrogens summed into heavy atoms:
               1
     1  C    0.254344
     2  Cl  -0.981643
     6  C    0.214585
     7  N   -0.487285
 Electronic spatial extent (au):  <R**2>=            900.5100
 Charge=             -1.0000 electrons
 Dipole moment (field-independent basis, Debye):
    X=              5.9418    Y=              0.0003    Z=              0.0035  Tot=              5.9418
 Quadrupole moment (field-independent basis, Debye-Ang):
   XX=            -87.6059   YY=            -35.4279   ZZ=            -35.4257
   XY=              0.0004   XZ=              0.0057   YZ=             -0.0000
 Traceless Quadrupole moment (field-independent basis, Debye-Ang):
   XX=            -34.7861   YY=             17.3919   ZZ=             17.3942
   XY=              0.0004   XZ=              0.0057   YZ=             -0.0000
 Octapole moment (field-independent basis, Debye-Ang**2):
  XXX=            -12.1709  YYY=             -0.0057  ZZZ=             -0.8517  XYY=              4.2257
  XXY=              0.0021  XXZ=              0.0256  XZZ=              4.2260  YZZ=              0.0060
  YYZ=              0.8529  XYZ=              0.0001
 Hexadecapole moment (field-independent basis, Debye-Ang**3):
 XXXX=          -1798.5340 YYYY=            -58.0461 ZZZZ=            -58.0500 XXXY=              0.0057
 XXXZ=              0.1052 YYYX=             -0.0015 YYYZ=              0.0004 ZZZX=             -0.2588
 ZZZY=             -0.0001 XXYY=           -227.1964 XXZZ=           -227.1967 YYZZ=            -19.3463
 XXYZ=              0.0001 YYXZ=              0.2893 ZZXY=              0.0021
 N-N= 1.064239734989D+02 E-N=-1.623095941273D+03  KE= 5.902959595742D+02
  Exact polarizability:  78.827  -0.001  41.527  -0.011  -0.000  41.532
 Approx polarizability:  97.476  -0.000  50.072  -0.021  -0.000  50.080
 No NMR shielding tensors so no spin-rotation constants.
 Leave Link  601 at Sun Oct 13 09:47:46 2024, MaxMem=  2684354560 cpu:               4.6 elap:               0.2
 (Enter /usr/local/g16_AVX//g16/l701.exe)
 ... and contract with generalized density number  0.
 Compute integral second derivatives.
 Leave Link  701 at Sun Oct 13 09:47:46 2024, MaxMem=  2684354560 cpu:               5.3 elap:               0.3
 (Enter /usr/local/g16_AVX//g16/l702.exe)
 L702 exits ... SP integral derivatives will be done elsewhere.
 Leave Link  702 at Sun Oct 13 09:47:47 2024, MaxMem=  2684354560 cpu:               1.8 elap:               0.1
 (Enter /usr/local/g16_AVX//g16/l703.exe)
 Integral derivatives from FoFJK, PRISM(SPDF).
 Compute integral second derivatives, UseDBF=F ICtDFT=           0.
 Calling FoFJK, ICntrl=    100127 FMM=F ISym2X=0 I1Cent= 0 IOpClX= 0 NMat=1 NMatS=1 NMatT=0.
 FoFJK:  IHMeth= 1 ICntrl=  100127 DoSepK=F KAlg= 0 I1Cent=           0 FoldK=F
 IRaf=         0 NMat=       1 IRICut=       1 DoRegI=T DoRafI=F ISym2E= 0 IDoP0=0 IntGTp=1.
 FoFCou: FMM=F IPFlag=           0 FMFlag=      100000 FMFlg1=         800
         NFxFlg=           0 DoJE=F BraDBF=F KetDBF=F FulRan=T
         wScrn=  0.000000 ICntrl=    100127 IOpCl=  0 I1Cent=           0 NGrid=           0
         NMat0=    1 NMatS0=      1 NMatT0=    0 NMatD0=    1 NMtDS0=    0 NMtDT0=    0
 Symmetry not used in FoFCou.
 Leave Link  703 at Sun Oct 13 09:47:49 2024, MaxMem=  2684354560 cpu:              65.8 elap:               2.6
 (Enter /usr/local/g16_AVX//g16/l716.exe)
 Dipole        = 2.33769906D+00 1.20360367D-04 1.35803797D-03
 Polarizability= 7.88272826D+01-5.29004455D-04 4.15265988D+01
                -1.12899821D-02-1.55666763D-04 4.15318114D+01
 Full mass-weighted force constant matrix:
 Low frequencies ---  -65.9195  -65.6985  -18.7073  -18.6433   -0.0058   -0.0026
 Low frequencies ---   -0.0007  122.3790  123.3435
 ******    2 imaginary frequencies (negative Signs) ****** 
 Diagonal vibrational polarizability:
       37.1119974     144.7991510     145.9089407
 Harmonic frequencies (cm**-1), IR intensities (KM/Mole), Raman scattering
 activities (A**4/AMU), depolarization ratios for plane and unpolarized
 incident light, reduced masses (AMU), force constants (mDyne/A),
 and normal coordinates:
                      1                      2                      3
                      A                      A                      A
 Frequencies --    -62.7841               -62.5557               123.3435
 Red. masses --      3.6065                 3.6086                12.1486
 Frc consts  --      0.0084                 0.0083                 0.1089
 IR Inten    --     21.1430                21.1511                20.3054
  Atom  AN      X      Y      Z        X      Y      Z        X      Y      Z
     1   6     0.00   0.38  -0.00     0.00   0.00   0.38    -0.36  -0.00   0.00
     2  17     0.00  -0.08   0.00    -0.00  -0.00  -0.08     0.43   0.00  -0.00
     3   1     0.00   0.47  -0.00    -0.27   0.00   0.48    -0.37  -0.00   0.01
     4   1     0.24   0.48   0.01     0.14   0.01   0.47    -0.37  -0.00  -0.00
     5   1    -0.24   0.48  -0.01     0.14  -0.00   0.47    -0.37   0.00  -0.00
     6   6    -0.00   0.03  -0.00     0.00   0.00   0.03    -0.37  -0.00   0.00
     7   7    -0.00  -0.24   0.00     0.00  -0.00  -0.24    -0.37   0.00  -0.00
                      4                      5                      6
                      A                      A                      A
 Frequencies --    372.7301               372.8864               925.3928
 Red. masses --      3.4891                 3.4886                 4.7889
 Frc consts  --      0.2856                 0.2858                 2.4163
 IR Inten    --      1.2992                 1.2942                11.3323
  Atom  AN      X      Y      Z        X      Y      Z        X      Y      Z
     1   6    -0.00  -0.06  -0.00    -0.00   0.00  -0.06     0.44  -0.00  -0.00
     2  17    -0.00  -0.00  -0.00    -0.00   0.00  -0.00    -0.00  -0.00   0.00
     3   1     0.01  -0.28  -0.01     0.60   0.01  -0.29     0.47  -0.00  -0.01
     4   1    -0.52  -0.29  -0.01    -0.29   0.00  -0.29     0.47   0.01   0.00
     5   1     0.51  -0.29  -0.00    -0.31   0.01  -0.29     0.47  -0.01   0.00
     6   6     0.00   0.40   0.01     0.00  -0.01   0.40    -0.20   0.00   0.00
     7   7     0.00  -0.23  -0.00    -0.00   0.00  -0.23    -0.30   0.00   0.00
                      7                      8                      9
                      A                      A                      A
 Frequencies --   1018.4834              1018.6457              1356.2604
 Red. masses --      1.5104                 1.5101                 1.2187
 Frc consts  --      0.9231                 0.9232                 1.3208
 IR Inten    --      1.4451                 1.4460                39.9762
  Atom  AN      X      Y      Z        X      Y      Z        X      Y      Z
     1   6     0.00   0.16  -0.00     0.00   0.00   0.16    -0.14   0.00   0.00
     2  17     0.00  -0.00   0.00    -0.00  -0.00  -0.00     0.00   0.00   0.00
     3   1    -0.01  -0.33   0.00     0.72  -0.01  -0.12     0.52   0.00  -0.23
     4   1    -0.61  -0.17   0.10    -0.37   0.09  -0.27     0.52   0.20   0.12
     5   1     0.63  -0.17  -0.09    -0.35  -0.09  -0.28     0.52  -0.20   0.12
     6   6    -0.00  -0.13   0.00    -0.00  -0.00  -0.13     0.00  -0.00  -0.00
     7   7     0.00   0.02  -0.00    -0.00   0.00   0.02     0.00  -0.00   0.00
                     10                     11                     12
                      A                      A                      A
 Frequencies --   1445.0150              1445.2302              2349.6194
 Red. masses --      1.0402                 1.0402                12.5050
 Frc consts  --      1.2797                 1.2800                40.6751
 IR Inten    --     12.7490                12.7532                50.6758
  Atom  AN      X      Y      Z        X      Y      Z        X      Y      Z
     1   6     0.00  -0.05   0.00     0.00  -0.00  -0.05    -0.09   0.00   0.00
     2  17     0.00  -0.00   0.00     0.00  -0.00  -0.00     0.00   0.00   0.00
     3   1    -0.00   0.72   0.00     0.36   0.01  -0.16    -0.07  -0.00   0.02
     4   1    -0.31   0.06  -0.39    -0.18  -0.38   0.49    -0.07  -0.02  -0.01
     5   1     0.31   0.05   0.37    -0.17   0.38   0.50    -0.07   0.02  -0.01
     6   6    -0.00  -0.02   0.00    -0.00  -0.00  -0.02     0.79  -0.00  -0.00
     7   7    -0.00   0.00  -0.00     0.00   0.00   0.00    -0.59   0.00   0.00
                     13                     14                     15
                      A                      A                      A
 Frequencies --   3088.4427              3171.1152              3171.3755
 Red. masses --      1.0337                 1.1031                 1.1031
 Frc consts  --      5.8092                 6.5355                 6.5368
 IR Inten    --      1.9884                 0.2653                 0.2730
  Atom  AN      X      Y      Z        X      Y      Z        X      Y      Z
     1   6    -0.05  -0.00   0.00     0.00  -0.09   0.01    -0.00  -0.01  -0.09
     2  17    -0.00   0.00  -0.00     0.00   0.00  -0.00     0.00   0.00   0.00
     3   1     0.19  -0.00   0.54    -0.03  -0.02  -0.08     0.28  -0.00   0.76
     4   1     0.19  -0.47  -0.27    -0.23   0.53   0.32    -0.17   0.39   0.21
     5   1     0.19   0.47  -0.27     0.26   0.60  -0.35    -0.12  -0.28   0.14
     6   6    -0.00   0.00   0.00     0.00   0.00  -0.00    -0.00   0.00   0.00
     7   7     0.00  -0.00  -0.00    -0.00  -0.00   0.00     0.00  -0.00  -0.00

 -------------------
 - Thermochemistry -
 -------------------
 Temperature   298.150 Kelvin.  Pressure   1.00000 Atm.
 Atom     1 has atomic number  6 and mass  12.00000
 Atom     2 has atomic number 17 and mass  34.96885
 Atom     3 has atomic number  1 and mass   1.00783
 Atom     4 has atomic number  1 and mass   1.00783
 Atom     5 has atomic number  1 and mass   1.00783
 Atom     6 has atomic number  6 and mass  12.00000
 Atom     7 has atomic number  7 and mass  14.00307
 Molecular mass:    75.99540 amu.
 Principal axes and moments of inertia in atomic units:
                           1         2         3
     Eigenvalues --    11.280411567.563971567.56817
           X            1.00000   0.00004   0.00000
           Y           -0.00000   0.00149   1.00000
           Z           -0.00004   1.00000  -0.00149
 This molecule is an asymmetric top.
 Rotational symmetry number  1.
 Rotational temperatures (Kelvin)      7.67826     0.05525     0.05525
 Rotational constants (GHZ):         159.98903     1.15130     1.15130
    2 imaginary frequencies ignored.
 Zero-point vibrational energy     118780.4 (Joules/Mol)
                                   28.38921 (Kcal/Mol)
 Warning -- explicit consideration of   3 degrees of freedom as
           vibrations may cause significant error
 Vibrational temperatures:    177.46   536.28   536.50  1331.43  1465.37
          (Kelvin)           1465.60  1951.36  2079.05  2079.36  3380.58
                             4443.58  4562.53  4562.90
 
 Zero-point correction=                           0.045241 (Hartree/Particle)
 Thermal correction to Energy=                    0.049577
 Thermal correction to Enthalpy=                  0.050521
 Thermal correction to Gibbs Free Energy=         0.017611
 Sum of electronic and zero-point Energies=           -593.014637
 Sum of electronic and thermal Energies=              -593.010301
 Sum of electronic and thermal Enthalpies=            -593.009357
 Sum of electronic and thermal Free Energies=         -593.042267
 
                     E (Thermal)             CV                S
                      KCal/Mol        Cal/Mol-Kelvin    Cal/Mol-Kelvin
 Total                   31.110             12.435             69.266
 Electronic               0.000              0.000              0.000
 Translational            0.889              2.981             38.900
 Rotational               0.889              2.981             24.831
 Vibrational             29.333              6.474              5.535
 Vibration     1          0.610              1.930              3.047
 Vibration     2          0.744              1.528              1.069
 Vibration     3          0.744              1.528              1.068
                       Q            Log10(Q)             Ln(Q)
 Total Bot       0.793553D-08         -8.100424        -18.651915
 Total V=0       0.511695D+13         12.709011         29.263580
 Vib (Bot)       0.511337D-20        -20.291293        -46.722428
 Vib (Bot)    1  0.165551D+01          0.218933          0.504112
 Vib (Bot)    2  0.487534D+00         -0.311995         -0.718395
 Vib (Bot)    3  0.487278D+00         -0.312224         -0.718921
 Vib (V=0)       0.329718D+01          0.518143          1.193068
 Vib (V=0)    1  0.222937D+01          0.348183          0.801720
 Vib (V=0)    2  0.119835D+01          0.078583          0.180944
 Vib (V=0)    3  0.119817D+01          0.078518          0.180794
 Electronic      0.100000D+01          0.000000          0.000000
 Translational   0.260396D+08          7.415635         17.075130
 Rotational      0.595983D+05          4.775234         10.995382
 
                                                       RxCoord=-7.08693 DE=1.31
                                                             IR Spectrum
 
      3  3                            2                                    1  1             1                                        
      1  0                            3                                    4  3             0  9                      3         1    
      7  8                            5                                    4  5             1  2                      7         2    
      1  8                            0                                    5  6             8  5                      3         3    
 
      X  X                            X                                    X  X             X  X                      X         X    
                                      X                                    X  X                X                                X    
                                      X                                    X  X                X                                X    
                                      X                                    X  X                X                                X    
                                      X                                    X  X                                                 X    
                                      X                                    X  X                                                 X    
                                      X                                    X  X                                                 X    
                                      X                                    X  X                                                 X    
                                      X                                    X  X                                                      
                                      X                                    X  X                                                      
                                      X                                       X                                                      
                                      X                                       X                                                      
                                      X                                       X                                                      
                                      X                                       X                                                      
                                      X                                       X                                                      
                                      X                                       X                                                      
                                      X                                                                                              
                                      X                                                                                              
                                      X                                                                                              
                                      X                                                                                              
 
 -------------------------------------------------------------------
 Center     Atomic                   Forces (Hartrees/Bohr)
 Number     Number              X              Y              Z
 -------------------------------------------------------------------
      1        6           0.003608161   -0.000010178    0.000012923
      2       17          -0.001784005    0.000000091   -0.000001914
      3        1          -0.003004047   -0.000002740    0.001123742
      4        1          -0.002942533   -0.000926844   -0.000585834
      5        1          -0.002943647    0.000935241   -0.000585010
      6        6           0.002103893    0.000008097    0.000048068
      7        7           0.004962177   -0.000003668   -0.000011975
 -------------------------------------------------------------------
 Cartesian Forces:  Max     0.004962177 RMS     0.001893393
 Z-matrix is all fixed cartesians, so copy forces.
 Force constants in Cartesian coordinates: 
                1             2             3             4             5 
      1  0.487054D+00
      2 -0.133590D-05  0.557575D+00
      3 -0.576878D-04  0.104564D-04  0.557832D+00
      4 -0.656692D-02  0.000000D+00  0.228627D-05  0.109403D-01
      5  0.000000D+00 -0.282032D-03  0.000000D+00  0.000000D+00 -0.201906D-03
      6  0.000000D+00  0.000000D+00 -0.283393D-03 -0.134403D-04  0.000000D+00
      7 -0.708137D-01  0.212565D-03 -0.907234D-01 -0.476556D-03  0.233338D-05
      8  0.209866D-03 -0.405681D-01  0.592305D-03  0.312442D-05 -0.101882D-02
      9 -0.894057D-01  0.591956D-03 -0.294053D+00 -0.125903D-02 -0.365107D-05
     10 -0.707038D-01  0.783161D-01  0.454858D-01 -0.470451D-03  0.862917D-03
     11  0.771860D-01 -0.230163D+00 -0.110150D+00  0.109130D-02  0.137700D-03
     12  0.448275D-01 -0.110152D+00 -0.104550D+00  0.638411D-03  0.664787D-03
     13 -0.707287D-01 -0.785467D-01  0.451384D-01 -0.470634D-03 -0.865623D-03
     14 -0.774124D-01 -0.231144D+00  0.109547D+00 -0.109473D-02  0.143727D-03
     15  0.444853D-01  0.109550D+00 -0.103530D+00  0.633794D-03 -0.661201D-03
     16 -0.257376D+00  0.208440D-04  0.139340D-03 -0.471067D-03  0.000000D+00
     17  0.126622D-04 -0.771546D-01  0.000000D+00  0.000000D+00  0.143143D-02
     18  0.129976D-03  0.000000D+00 -0.771570D-01 -0.526248D-05  0.000000D+00
     19 -0.108652D-01 -0.189399D-05  0.152346D-04 -0.248468D-02  0.000000D+00
     20  0.489403D-05  0.217370D-01  0.000000D+00  0.000000D+00 -0.210098D-03
     21  0.201203D-04  0.000000D+00  0.217414D-01  0.323769D-05  0.000000D+00
                6             7             8             9            10 
      6 -0.200641D-03
      7 -0.991545D-03  0.832668D-01
      8 -0.366805D-05 -0.233614D-03  0.428583D-01
      9  0.503199D-03  0.994576D-01 -0.631831D-03  0.313147D+00
     10  0.505124D-03  0.435572D-02 -0.954324D-02 -0.463364D-02  0.831122D-01
     11  0.665362D-03 -0.806873D-03  0.515944D-03  0.128596D-02 -0.858592D-01
     12 -0.617679D-03  0.105512D-01 -0.241096D-01 -0.128082D-01 -0.498850D-01
     13  0.501400D-03  0.435766D-02  0.956345D-02 -0.458972D-02  0.435056D-02
     14 -0.661764D-03  0.757267D-03  0.408177D-03 -0.122385D-02 -0.873808D-02
     15 -0.623861D-03  0.105588D-01  0.241688D-01 -0.127026D-01 -0.597187D-02
     16 -0.113297D-05 -0.210823D-01  0.789146D-05 -0.287691D-02 -0.210355D-01
     17  0.000000D+00  0.778540D-04 -0.334615D-02 -0.248640D-04  0.285199D-01
     18  0.143300D-02 -0.329661D-01 -0.220115D-04  0.751295D-02  0.165640D-01
     19  0.000000D+00  0.392405D-03 -0.747591D-05  0.330736D-02  0.391205D-03
     20  0.000000D+00 -0.953257D-05  0.115071D-02  0.628838D-05 -0.355841D-02
     21 -0.210629D-03  0.411344D-02  0.604781D-05 -0.159946D-02 -0.206442D-02
               11            12            13            14            15 
     11  0.245045D+00
     12  0.117442D+00  0.111073D+00
     13  0.876155D-02 -0.592896D-02  0.831409D-01
     14 -0.193946D-01  0.126438D-01  0.861112D-01  0.246090D+00
     15 -0.127653D-01  0.707342D-02 -0.495044D-01 -0.116800D+00  0.109985D+00
     16  0.248381D-02  0.145711D-02 -0.210411D-01 -0.248807D-02  0.144558D-02
     17  0.476176D-02  0.470274D-02 -0.285913D-01  0.481115D-02 -0.467771D-02
     18  0.471222D-02 -0.631179D-03  0.164309D-01 -0.469000D-02 -0.674367D-03
     19 -0.285652D-02 -0.166031D-02  0.391335D-03  0.286473D-02 -0.164720D-02
     20 -0.902396D-03 -0.119151D-02  0.356742D-02 -0.914454D-03  0.118548D-02
     21 -0.119052D-02  0.461139D-03 -0.204766D-02  0.118473D-02  0.472057D-03
               16            17            18            19            20 
     16  0.155856D+01
     17 -0.450324D-04  0.108001D+00
     18 -0.914120D-03  0.000000D+00  0.108026D+00
     19 -0.123755D+01  0.266840D-04  0.760656D-03  0.124972D+01
     20  0.207847D-04 -0.385044D-01  0.000000D+00 -0.254689D-04  0.176437D-01
     21  0.750128D-03  0.000000D+00 -0.385099D-01 -0.774840D-03  0.000000D+00
               21 
     21  0.176454D-01
 Leave Link  716 at Sun Oct 13 09:47:49 2024, MaxMem=  2684354560 cpu:               2.0 elap:               0.1
 (Enter /usr/local/g16_AVX//g16/l103.exe)

 GradGradGradGradGradGradGradGradGradGradGradGradGradGradGradGradGradGrad
 Berny optimization.
 Search for a local minimum.
 Step number   1 out of a maximum of    2
 All quantities printed in internal units (Hartrees-Bohrs-Radians)
 Second derivative matrix not updated -- analytic derivatives used.
 ITU=  0
     Eigenvalues ---   -0.00066  -0.00066   0.01076   0.02428   0.02429
     Eigenvalues ---    0.09591   0.09593   0.09721   0.16220   0.16222
     Eigenvalues ---    0.28101   0.64950   0.82270   0.82299   2.66650
 Eigenvalue     1 is  -6.61D-04 should be greater than     0.000000 Eigenvector:
                          Y5        Y4        Y3        Y7        Y1
   1                    0.43898   0.43866   0.42510  -0.35364   0.33594
                          Y2        X5        X4        Y6        Z5
   1                   -0.26560  -0.25081   0.24695  -0.03873  -0.01459
 Eigenvalue     2 is  -6.56D-04 should be greater than     0.000000 Eigenvector:
                          Z3        Z4        Z5        Z7        Z1
   1                    0.44456   0.42915   0.42905  -0.35375   0.33599
                          X3        Z2        X4        X5        Z6
   1                   -0.28673  -0.26563   0.14749   0.14074  -0.03862
 Angle between quadratic step and forces=  50.61 degrees.
 Linear search not attempted -- first point.
 B after Tr=    -0.011024    0.000010   -0.000861
         Rot=    1.000000   -0.000000    0.000069    0.000001 Ang=  -0.01 deg.
 Variable       Old X    -DE/DX   Delta X   Delta X   Delta X     New X
                                 (Linear)    (Quad)   (Total)
    X1        1.48171   0.00361   0.00000   0.04983   0.03881   1.52051
    Y1        0.00020  -0.00001   0.00000  -0.00002  -0.00001   0.00019
    Z1        0.00179   0.00001   0.00000   0.00168   0.00103   0.00282
    X2       -4.60084  -0.00178   0.00000  -0.11003  -0.12105  -4.72189
    Y2       -0.00003   0.00000   0.00000   0.00001   0.00003  -0.00000
    Z2       -0.00022  -0.00000   0.00000  -0.00133  -0.00284  -0.00307
    X3        0.76005  -0.00300   0.00000   0.00193  -0.00883   0.75122
    Y3        0.00472  -0.00000   0.00000  -0.00007  -0.00006   0.00466
    Z3       -1.92949   0.00112   0.00000   0.01797   0.01721  -1.91227
    X4        0.76121  -0.00294   0.00000   0.00504  -0.00611   0.75509
    Y4        1.67049  -0.00093   0.00000  -0.01305  -0.01304   1.65744
    Z4        0.97224  -0.00059   0.00000  -0.00596  -0.00671   0.96552
    X5        0.76091  -0.00294   0.00000   0.00511  -0.00605   0.75486
    Y5       -1.67445   0.00094   0.00000   0.01304   0.01305  -1.66140
    Z5        0.96450  -0.00059   0.00000  -0.00590  -0.00666   0.95784
    X6        4.23233   0.00210   0.00000   0.06091   0.04989   4.28222
    Y6       -0.00005   0.00001   0.00000   0.00007   0.00007   0.00002
    Z6       -0.00007   0.00005   0.00000  -0.00009  -0.00036  -0.00043
    X7        6.42841   0.00496   0.00000   0.06438   0.05335   6.48176
    Y7       -0.00009  -0.00000   0.00000  -0.00003  -0.00004  -0.00013
    Z7       -0.00144  -0.00001   0.00000  -0.00170  -0.00167  -0.00310
         Item               Value     Threshold  Converged?
 Maximum Force            0.004962     0.000450     NO 
 RMS     Force            0.001893     0.000300     NO 
 Maximum Displacement     0.121053     0.001800     NO 
 RMS     Displacement     0.032649     0.001200     NO 
 Predicted change in Energy=-4.197573D-04
 GradGradGradGradGradGradGradGradGradGradGradGradGradGradGradGradGradGrad

 Leave Link  103 at Sun Oct 13 09:47:49 2024, MaxMem=  2684354560 cpu:               0.7 elap:               0.1
 (Enter /usr/local/g16_AVX//g16/l9999.exe)

 ----------------------------------------------------------------------

 Electric dipole moment (input orientation):
 (Debye = 10**-18 statcoulomb cm , SI units = C m)
                  (au)            (Debye)         (10**-30 SI)
   Tot        0.233770D+01      0.594184D+01      0.198198D+02
   x          0.233770D+01      0.594184D+01      0.198198D+02
   y          0.120360D-03      0.305926D-03      0.102046D-02
   z          0.135804D-02      0.345179D-02      0.115139D-01

 Dipole polarizability, Alpha (input orientation).
 (esu units = cm**3 , SI units = C**2 m**2 J**-1)
 Alpha(0;0):
               (au)            (10**-24 esu)      (10**-40 SI)
   iso        0.539619D+02      0.799633D+01      0.889712D+01
   aniso      0.372981D+02      0.552701D+01      0.614962D+01
   xx         0.788273D+02      0.116810D+02      0.129969D+02
   yx        -0.529004D-03     -0.783904D-04     -0.872211D-04
   yy         0.415266D+02      0.615361D+01      0.684681D+01
   zx        -0.112900D-01     -0.167300D-02     -0.186147D-02
   zy        -0.155667D-03     -0.230674D-04     -0.256660D-04
   zz         0.415318D+02      0.615438D+01      0.684767D+01

 ----------------------------------------------------------------------

 Dipole orientation:
     6         -0.00093070          0.00012586          1.48170860
    17         -0.00244789          0.00020274         -4.60083618
     1          1.92993071          0.00478077          0.75892517
     1         -0.97188122          1.67039654          0.76185693
     1         -0.96396895         -1.67453733          0.76138731
     6          0.00252862         -0.00027258          4.23233002
     7          0.00517066         -0.00042331          6.42840604

 Electric dipole moment (dipole orientation):
 (Debye = 10**-18 statcoulomb cm , SI units = C m)
                  (au)            (Debye)         (10**-30 SI)
   Tot        0.233770D+01      0.594184D+01      0.198198D+02
   x          0.000000D+00      0.000000D+00      0.000000D+00
   y          0.000000D+00      0.000000D+00      0.000000D+00
   z          0.233770D+01      0.594184D+01      0.198198D+02

 Dipole polarizability, Alpha (dipole orientation).
 (esu units = cm**3 , SI units = C**2 m**2 J**-1)
 Alpha(0;0):
               (au)            (10**-24 esu)      (10**-40 SI)
   iso        0.539619D+02      0.799633D+01      0.889712D+01
   aniso      0.372981D+02      0.552701D+01      0.614962D+01
   xx         0.415318D+02      0.615438D+01      0.684767D+01
   yx         0.153932D-03      0.228104D-04      0.253800D-04
   yy         0.415266D+02      0.615361D+01      0.684681D+01
   zx         0.329561D-01      0.488360D-02      0.543373D-02
   zy        -0.244789D-02     -0.362739D-03     -0.403602D-03
   zz         0.788273D+02      0.116810D+02      0.129969D+02

 ----------------------------------------------------------------------
 1\1\GINC-NODO8\Freq\RB3LYP\6-31++G(d,p)\C2H3Cl1N1(1-)\ALANQF\13-Oct-20
 24\0\\#p b3lyp 6-31++g(d,p) scf=verytight NoSymm freq=noraman int=ultr
 afine\\RxCoord=-7.08693 DE=1.31\\-1,1\C,0.784086,0.000107,0.000948\Cl,
 -2.434658,-0.000018,-0.000119\H,0.402199,0.002498,-1.021042\H,0.402813
 ,0.883983,0.514486\H,0.402658,-0.88608,0.51039\C,2.239653,-0.000029,-0
 .000037\N,3.401767,-0.000049,-0.00076\\Version=ES64L-G16RevB.01\HF=-59
 3.0598779\RMSD=1.619e-09\RMSF=1.893e-03\ZeroPoint=0.0452411\Thermal=0.
 0495771\Dipole=2.4236228,0.000131,0.0014529\DipoleDeriv=-0.1197574,-0.
 0000023,0.0000496,0.0000062,0.0616733,0.0000101,0.0000328,0.0000101,0.
 0614543,-1.0882491,0.0000005,-0.0000027,0.0000059,-0.9283275,0.0000004
 ,-0.0000175,0.0000003,-0.9283528,0.1261363,-0.000025,0.0154591,0.00006
 26,0.1097024,0.0002094,-0.018187,0.0002108,0.0176346,0.1258572,-0.0132
 91,-0.0076662,0.0158623,0.0406962,-0.0400556,0.0092145,-0.0400789,0.08
 64967,0.1259384,0.0133367,-0.007598,-0.0158929,0.0403302,0.039835,0.00
 91579,0.039857,0.0868685,0.5243806,-0.0000599,-0.000387,-0.0000738,0.0
 597074,0.0000034,-0.0005306,0.0000034,0.059666,-0.6943059,0.000041,0.0
 001452,0.0000296,-0.3837821,-0.0000027,0.0003299,-0.0000028,-0.3837673
 \Polar=78.8272826,-0.000529,41.5265988,-0.01129,-0.0001557,41.5318114\
 Quadrupole=-25.8626106,12.9304838,12.9321269,0.0002649,0.0042454,-0.00
 0004\PG=C01 [X(C2H3Cl1N1)]\NImag=2\\0.48705394,-0.00000134,0.55757473,
 -0.00005769,0.00001046,0.55783192,-0.00656692,0.00000041,0.00000229,0.
 01094031,0.00000030,-0.00028203,0.00000010,0.00000036,-0.00020191,0.00
 000049,0.00000010,-0.00028339,-0.00001344,0.00000007,-0.00020064,-0.07
 081374,0.00021256,-0.09072343,-0.00047656,0.00000233,-0.00099155,0.083
 26677,0.00020987,-0.04056812,0.00059231,0.00000312,-0.00101882,-0.0000
 0367,-0.00023361,0.04285826,-0.08940569,0.00059196,-0.29405266,-0.0012
 5903,-0.00000365,0.00050320,0.09945762,-0.00063183,0.31314681,-0.07070
 379,0.07831613,0.04548582,-0.00047045,0.00086292,0.00050512,0.00435572
 ,-0.00954324,-0.00463364,0.08311221,0.07718598,-0.23016338,-0.11014974
 ,0.00109130,0.00013770,0.00066536,-0.00080687,0.00051594,0.00128596,-0
 .08585924,0.24504502,0.04482753,-0.11015228,-0.10455012,0.00063841,0.0
 0066479,-0.00061768,0.01055123,-0.02410960,-0.01280824,-0.04988500,0.1
 1744207,0.11107267,-0.07072873,-0.07854672,0.04513843,-0.00047063,-0.0
 0086562,0.00050140,0.00435766,0.00956345,-0.00458972,0.00435056,0.0087
 6155,-0.00592896,0.08314086,-0.07741236,-0.23114354,0.10954696,-0.0010
 9473,0.00014373,-0.00066176,0.00075727,0.00040818,-0.00122385,-0.00873
 808,-0.01939464,0.01264379,0.08611124,0.24608958,0.04448526,0.10954989
 ,-0.10353009,0.00063379,-0.00066120,-0.00062386,0.01055882,0.02416876,
 -0.01270260,-0.00597187,-0.01276535,0.00707342,-0.04950440,-0.11679987
 ,0.10998545,-0.25737560,0.00002084,0.00013934,-0.00047107,-0.00000023,
 -0.00000113,-0.02108226,0.00000789,-0.00287691,-0.02103545,0.00248381,
 0.00145711,-0.02104105,-0.00248807,0.00144558,1.55855504,0.00001266,-0
 .07715463,0.00000044,-0.00000076,0.00143143,-0.00000016,0.00007785,-0.
 00334615,-0.00002486,0.02851992,0.00476176,0.00470274,-0.02859132,0.00
 481115,-0.00467771,-0.00004503,0.10800085,0.00012998,0.00000040,-0.077
 15703,-0.00000526,-0.00000015,0.00143300,-0.03296613,-0.00002201,0.007
 51295,0.01656398,0.00471222,-0.00063118,0.01643091,-0.00469000,-0.0006
 7437,-0.00091412,-0.00000070,0.10802648,-0.01086515,-0.00000189,0.0000
 1523,-0.00248468,-0.00000006,-0.00000090,0.00039240,-0.00000748,0.0033
 0736,0.00039121,-0.00285652,-0.00166031,0.00039133,0.00286473,-0.00164
 720,-1.23754961,0.00002668,0.00076066,1.24972450,0.00000489,0.02173698
 ,-0.00000052,0.00000031,-0.00021010,0.00000006,-0.00000953,0.00115071,
 0.00000629,-0.00355841,-0.00090240,-0.00119151,0.00356742,-0.00091445,
 0.00118548,0.00002078,-0.03850441,0.00000025,-0.00002547,0.01764367,0.
 00002012,-0.00000052,0.02174138,0.00000324,0.00000006,-0.00021063,0.00
 411344,0.00000605,-0.00159946,-0.00206442,-0.00119052,0.00046114,-0.00
 204766,0.00118473,0.00047206,0.00075013,0.00000025,-0.03850986,-0.0007
 7484,-0.00000005,0.01764538\\-0.00360816,0.00001018,-0.00001292,0.0017
 8401,-0.00000009,0.00000191,0.00300405,0.00000274,-0.00112374,0.002942
 53,0.00092684,0.00058583,0.00294365,-0.00093524,0.00058501,-0.00210389
 ,-0.00000810,-0.00004807,-0.00496218,0.00000367,0.00001198\\\@


 MYSTERY IS THE WISDOM OF BLOCKHEADS... HORACE WALPOLE 
 Job cpu time:       0 days  0 hours  4 minutes 11.5 seconds.
 Elapsed time:       0 days  0 hours  0 minutes 10.9 seconds.
 File lengths (MBytes):  RWF=     88 Int=      0 D2E=      0 Chk=      2 Scr=      2
 Normal termination of Gaussian 16 at Sun Oct 13 09:47:50 2024.
