 Entering Gaussian System, Link 0=g16
 Initial command:
 /usr/local/g16_AVX//g16/l1.exe "/scratch/alanqf/0033-54475.ixchel.mda.cinvestav.mx/Gau-28930.inp" -scrdir="/scratch/alanqf/0033-54475.ixchel.mda.cinvestav.mx/"
 Entering Link 1 = /usr/local/g16_AVX//g16/l1.exe PID=     28931.
  
 Copyright (c) 1988-2017, Gaussian, Inc.  All Rights Reserved.
  
 This is part of the Gaussian(R) 16 program.  It is based on
 the Gaussian(R) 09 system (copyright 2009, Gaussian, Inc.),
 the Gaussian(R) 03 system (copyright 2003, Gaussian, Inc.),
 the Gaussian(R) 98 system (copyright 1998, Gaussian, Inc.),
 the Gaussian(R) 94 system (copyright 1995, Gaussian, Inc.),
 the Gaussian 92(TM) system (copyright 1992, Gaussian, Inc.),
 the Gaussian 90(TM) system (copyright 1990, Gaussian, Inc.),
 the Gaussian 88(TM) system (copyright 1988, Gaussian, Inc.),
 the Gaussian 86(TM) system (copyright 1986, Carnegie Mellon
 University), and the Gaussian 82(TM) system (copyright 1983,
 Carnegie Mellon University). Gaussian is a federally registered
 trademark of Gaussian, Inc.
  
 This software contains proprietary and confidential information,
 including trade secrets, belonging to Gaussian, Inc.
  
 This software is provided under written license and may be
 used, copied, transmitted, or stored only in accord with that
 written license.
  
 The following legend is applicable only to US Government
 contracts under FAR:
  
                    RESTRICTED RIGHTS LEGEND
  
 Use, reproduction and disclosure by the US Government is
 subject to restrictions as set forth in subparagraphs (a)
 and (c) of the Commercial Computer Software - Restricted
 Rights clause in FAR 52.227-19.
  
 Gaussian, Inc.
 340 Quinnipiac St., Bldg. 40, Wallingford CT 06492
  
  
 ---------------------------------------------------------------
 Warning -- This program may not be used in any manner that
 competes with the business of Gaussian, Inc. or will provide
 assistance to any competitor of Gaussian, Inc.  The licensee
 of this program is prohibited from giving any competitor of
 Gaussian, Inc. access to this program.  By using this program,
 the user acknowledges that Gaussian, Inc. is engaged in the
 business of creating and licensing software in the field of
 computational chemistry and represents and warrants to the
 licensee that it is not a competitor of Gaussian, Inc. and that
 it will not use this program in any manner prohibited above.
 ---------------------------------------------------------------
  

 Cite this work as:
 Gaussian 16, Revision B.01,
 M. J. Frisch, G. W. Trucks, H. B. Schlegel, G. E. Scuseria, 
 M. A. Robb, J. R. Cheeseman, G. Scalmani, V. Barone, 
 G. A. Petersson, H. Nakatsuji, X. Li, M. Caricato, A. V. Marenich, 
 J. Bloino, B. G. Janesko, R. Gomperts, B. Mennucci, H. P. Hratchian, 
 J. V. Ortiz, A. F. Izmaylov, J. L. Sonnenberg, D. Williams-Young, 
 F. Ding, F. Lipparini, F. Egidi, J. Goings, B. Peng, A. Petrone, 
 T. Henderson, D. Ranasinghe, V. G. Zakrzewski, J. Gao, N. Rega, 
 G. Zheng, W. Liang, M. Hada, M. Ehara, K. Toyota, R. Fukuda, 
 J. Hasegawa, M. Ishida, T. Nakajima, Y. Honda, O. Kitao, H. Nakai, 
 T. Vreven, K. Throssell, J. A. Montgomery, Jr., J. E. Peralta, 
 F. Ogliaro, M. J. Bearpark, J. J. Heyd, E. N. Brothers, K. N. Kudin, 
 V. N. Staroverov, T. A. Keith, R. Kobayashi, J. Normand, 
 K. Raghavachari, A. P. Rendell, J. C. Burant, S. S. Iyengar, 
 J. Tomasi, M. Cossi, J. M. Millam, M. Klene, C. Adamo, R. Cammi, 
 J. W. Ochterski, R. L. Martin, K. Morokuma, O. Farkas, 
 J. B. Foresman, and D. J. Fox, Gaussian, Inc., Wallingford CT, 2016.
 
 ******************************************
 Gaussian 16:  ES64L-G16RevB.01 20-Dec-2017
                13-Oct-2024 
 ******************************************
 %NProcShared=26
 Will use up to   26 processors via shared memory.
 %MEM=20GB
 %chk=CHKfiles/0033.chk
 ---------------------------------------------------------------------
 #p b3lyp 6-31++g(d,p) scf=verytight NoSymm freq=noraman int=ultrafine
 ---------------------------------------------------------------------
 1/10=4,30=1,38=1/1,3;
 2/12=2,15=1,17=6,18=5,40=1/2;
 3/5=1,6=6,7=1111,11=2,25=1,30=1,71=2,74=-5,75=-5,140=1/1,2,3;
 4//1;
 5/5=2,17=3,38=5,98=1/2;
 8/6=4,10=90,11=11/1;
 11/6=1,8=1,9=11,15=111,16=1,31=1/1,2,10;
 10/6=1,31=1/2;
 6/7=2,8=2,9=2,10=2,28=1/1;
 7/8=1,10=1,25=1,30=1/1,2,3,16;
 1/10=4,30=1/3;
 99//99;
 Leave Link    1 at Sun Oct 13 09:47:51 2024, MaxMem=  2684354560 cpu:               2.0 elap:               0.1
 (Enter /usr/local/g16_AVX//g16/l101.exe)
 ------------------------
 RxCoord=-6.78699 DE=1.56
 ------------------------
 Symbolic Z-matrix:
 Charge = -1 Multiplicity = 1
 C                     0.76763   0.00008   0.00049 
 Cl                   -2.41494  -0.00001   0.00012 
 H                     0.3859    0.00252  -1.02148 
 H                     0.38637   0.884     0.51403 
 H                     0.38617  -0.88606   0.50983 
 C                     2.22267  -0.00003  -0.00027 
 N                     3.38473  -0.00004  -0.00065 
 
 ITRead=  0  0  0  0  0  0  0
 MicOpt= -1 -1 -1 -1 -1 -1 -1
 NAtoms=      7 NQM=        7 NQMF=       0 NMMI=      0 NMMIF=      0
                NMic=       0 NMicF=      0.
                    Isotopes and Nuclear Properties:
 (Nuclear quadrupole moments (NQMom) in fm**2, nuclear magnetic moments (NMagM)
  in nuclear magnetons)

  Atom         1           2           3           4           5           6           7
 IAtWgt=          12          35           1           1           1          12          14
 AtmWgt=  12.0000000  34.9688527   1.0078250   1.0078250   1.0078250  12.0000000  14.0030740
 NucSpn=           0           3           1           1           1           0           2
 AtZEff=  -0.0000000  -0.0000000  -0.0000000  -0.0000000  -0.0000000  -0.0000000  -0.0000000
 NQMom=    0.0000000  -8.1650000   0.0000000   0.0000000   0.0000000   0.0000000   2.0440000
 NMagM=    0.0000000   0.8218740   2.7928460   2.7928460   2.7928460   0.0000000   0.4037610
 AtZNuc=   6.0000000  17.0000000   1.0000000   1.0000000   1.0000000   6.0000000   7.0000000
 Leave Link  101 at Sun Oct 13 09:47:52 2024, MaxMem=  2684354560 cpu:               3.4 elap:               0.2
 (Enter /usr/local/g16_AVX//g16/l103.exe)

 GradGradGradGradGradGradGradGradGradGradGradGradGradGradGradGradGradGrad
 Berny optimization.
 Initialization pass.
 Trust Radius=3.00D-01 FncErr=1.00D-07 GrdErr=1.00D-07 EigMax=2.50D+02 EigMin=1.00D-04
 Number of steps in this run=      2 maximum allowed number of steps=      2.
 GradGradGradGradGradGradGradGradGradGradGradGradGradGradGradGradGradGrad

 Leave Link  103 at Sun Oct 13 09:47:52 2024, MaxMem=  2684354560 cpu:               1.5 elap:               0.1
 (Enter /usr/local/g16_AVX//g16/l202.exe)
                          Input orientation:                          
 ---------------------------------------------------------------------
 Center     Atomic      Atomic             Coordinates (Angstroms)
 Number     Number       Type             X           Y           Z
 ---------------------------------------------------------------------
      1          6           0        0.767626    0.000077    0.000488
      2         17           0       -2.414941   -0.000014    0.000116
      3          1           0        0.385901    0.002522   -1.021480
      4          1           0        0.386368    0.884002    0.514033
      5          1           0        0.386169   -0.886064    0.509832
      6          6           0        2.222669   -0.000032   -0.000266
      7          7           0        3.384733   -0.000036   -0.000652
 ---------------------------------------------------------------------
                    Distance matrix (angstroms):
                    1          2          3          4          5
     1  C    0.000000
     2  Cl   3.182567   0.000000
     3  H    1.090935   2.981339   0.000000
     4  H    1.091059   2.982101   1.770539   0.000000
     5  H    1.090957   2.981797   1.770452   1.770071   0.000000
     6  C    1.455043   4.637610   2.101571   2.101909   2.101900
     7  N    2.617107   5.799674   3.167821   3.168062   3.168127
                    6          7
     6  C    0.000000
     7  N    1.162064   0.000000
 Symmetry turned off by external request.
 Stoichiometry    C2H3ClN(1-)
 Framework group  C1[X(C2H3ClN)]
 Deg. of freedom    15
 Full point group                 C1      NOp   1
 Rotational constants (GHZ):         159.9965809           1.1678447           1.1678419
 Leave Link  202 at Sun Oct 13 09:47:52 2024, MaxMem=  2684354560 cpu:               1.9 elap:               0.1
 (Enter /usr/local/g16_AVX//g16/l301.exe)
 Standard basis: 6-31++G(d,p) (6D, 7F)
 Ernie: Thresh=  0.10000D-02 Tol=  0.10000D-05 Strict=F.
    98 basis functions,   176 primitive gaussians,    98 cartesian basis functions
    20 alpha electrons       20 beta electrons
       nuclear repulsion energy       106.8857939880 Hartrees.
 IExCor=  402 DFT=T Ex+Corr=B3LYP ExCW=0 ScaHFX=  0.200000
 ScaDFX=  0.800000  0.720000  1.000000  0.810000 ScalE2=  1.000000  1.000000
 IRadAn=      5 IRanWt=     -1 IRanGd=            0 ICorTp=0 IEmpDi=  4
 NAtoms=    7 NActive=    7 NUniq=    7 SFac= 1.00D+00 NAtFMM=   60 NAOKFM=F Big=F
 Integral buffers will be    131072 words long.
 Raffenetti 2 integral format.
 Two-electron integral symmetry is turned off.
 Leave Link  301 at Sun Oct 13 09:47:52 2024, MaxMem=  2684354560 cpu:               1.9 elap:               0.1
 (Enter /usr/local/g16_AVX//g16/l302.exe)
 NPDir=0 NMtPBC=     1 NCelOv=     1 NCel=       1 NClECP=     1 NCelD=      1
         NCelK=      1 NCelE2=     1 NClLst=     1 CellRange=     0.0.
 One-electron integrals computed using PRISM.
 NBasis=    98 RedAO= T EigKep=  1.41D-05  NBF=    98
 NBsUse=    98 1.00D-06 EigRej= -1.00D+00 NBFU=    98
 Precomputing XC quadrature grid using
 IXCGrd= 4 IRadAn=           5 IRanWt=          -1 IRanGd=           0 AccXCQ= 0.00D+00.
 Generated NRdTot=       0 NPtTot=           0 NUsed=           0 NTot=          32
 NSgBfM=    98    98    98    98    98 MxSgAt=     7 MxSgA2=     7.
 Leave Link  302 at Sun Oct 13 09:47:52 2024, MaxMem=  2684354560 cpu:               4.9 elap:               0.2
 (Enter /usr/local/g16_AVX//g16/l303.exe)
 DipDrv:  MaxL=1.
 Leave Link  303 at Sun Oct 13 09:47:52 2024, MaxMem=  2684354560 cpu:               1.8 elap:               0.1
 (Enter /usr/local/g16_AVX//g16/l401.exe)
 ExpMin= 3.60D-02 ExpMax= 2.52D+04 ExpMxC= 3.78D+03 IAcc=3 IRadAn=         5 AccDes= 0.00D+00
 Harris functional with IExCor=  402 and IRadAn=       5 diagonalized for initial guess.
 HarFok:  IExCor=  402 AccDes= 0.00D+00 IRadAn=         5 IDoV= 1 UseB2=F ITyADJ=14
 ICtDFT=  3500011 ScaDFX=  1.000000  1.000000  1.000000  1.000000
 FoFCou: FMM=F IPFlag=           0 FMFlag=      100000 FMFlg1=           0
         NFxFlg=           0 DoJE=T BraDBF=F KetDBF=T FulRan=T
         wScrn=  0.000000 ICntrl=       500 IOpCl=  0 I1Cent=   200000004 NGrid=           0
         NMat0=    1 NMatS0=      1 NMatT0=    0 NMatD0=    1 NMtDS0=    0 NMtDT0=    0
 Symmetry not used in FoFCou.
 Harris En= -593.113740396122    
 JPrj=0 DoOrth=F DoCkMO=F.
 Leave Link  401 at Sun Oct 13 09:47:53 2024, MaxMem=  2684354560 cpu:               6.7 elap:               0.3
 (Enter /usr/local/g16_AVX//g16/l502.exe)
 Keep R1 ints in memory in canonical form, NReq=35752935.
 FoFCou: FMM=F IPFlag=           0 FMFlag=           0 FMFlg1=           0
         NFxFlg=           0 DoJE=F BraDBF=F KetDBF=F FulRan=T
         wScrn=  0.000000 ICntrl=       600 IOpCl=  0 I1Cent=           0 NGrid=           0
         NMat0=    1 NMatS0=   4851 NMatT0=    0 NMatD0=    1 NMtDS0=    0 NMtDT0=    0
 Symmetry not used in FoFCou.
 Two-electron integral symmetry not used.
 Closed shell SCF:
 Using DIIS extrapolation, IDIIS=  1040.
 NGot=  2684354560 LenX=  2672563405 LenY=  2672553360
 Requested convergence on RMS density matrix=1.00D-08 within 128 cycles.
 Requested convergence on MAX density matrix=1.00D-06.
 Requested convergence on             energy=1.00D-06.
 No special actions if energy rises.

 Cycle   1  Pass 1  IDiag  1:
 E= -592.949782889082    
 DIIS: error= 2.80D-02 at cycle   1 NSaved=   1.
 NSaved= 1 IEnMin= 1 EnMin= -592.949782889082     IErMin= 1 ErrMin= 2.80D-02
 ErrMax= 2.80D-02  0.00D+00 EMaxC= 1.00D-01 BMatC= 1.04D-01 BMatP= 1.04D-01
 IDIUse=3 WtCom= 7.20D-01 WtEn= 2.80D-01
 Coeff-Com:  0.100D+01
 Coeff-En:   0.100D+01
 Coeff:      0.100D+01
 Gap=     0.172 Goal=   None    Shift=    0.000
 GapD=    0.172 DampG=1.000 DampE=0.500 DampFc=0.5000 IDamp=-1.
 Damping current iteration by 5.00D-01
 RMSDP=1.18D-02 MaxDP=2.32D-01              OVMax= 1.74D-01

 Cycle   2  Pass 1  IDiag  1:
 E= -592.990416356614     Delta-E=       -0.040633467532 Rises=F Damp=T
 DIIS: error= 1.64D-02 at cycle   2 NSaved=   2.
 NSaved= 2 IEnMin= 2 EnMin= -592.990416356614     IErMin= 2 ErrMin= 1.64D-02
 ErrMax= 1.64D-02  0.00D+00 EMaxC= 1.00D-01 BMatC= 1.40D-02 BMatP= 1.04D-01
 IDIUse=3 WtCom= 8.36D-01 WtEn= 1.64D-01
 Coeff-Com:  0.152D+00 0.848D+00
 Coeff-En:   0.230D+00 0.770D+00
 Coeff:      0.165D+00 0.835D+00
 Gap=     0.149 Goal=   None    Shift=    0.000
 RMSDP=5.02D-03 MaxDP=1.62D-01 DE=-4.06D-02 OVMax= 1.39D-01

 Cycle   3  Pass 1  IDiag  1:
 E= -593.041885803770     Delta-E=       -0.051469447156 Rises=F Damp=F
 DIIS: error= 1.38D-02 at cycle   3 NSaved=   3.
 NSaved= 3 IEnMin= 3 EnMin= -593.041885803770     IErMin= 3 ErrMin= 1.38D-02
 ErrMax= 1.38D-02  0.00D+00 EMaxC= 1.00D-01 BMatC= 1.93D-02 BMatP= 1.40D-02
 IDIUse=2 WtCom= 0.00D+00 WtEn= 1.00D+00
 Coeff-En:   0.000D+00 0.000D+00 0.100D+01
 Coeff:      0.000D+00 0.000D+00 0.100D+01
 Gap=     0.158 Goal=   None    Shift=    0.000
 RMSDP=7.51D-03 MaxDP=2.74D-01 DE=-5.15D-02 OVMax= 1.63D-01

 Cycle   4  Pass 1  IDiag  1:
 E= -592.947322961911     Delta-E=        0.094562841859 Rises=F Damp=F
 DIIS: error= 3.14D-02 at cycle   4 NSaved=   4.
 NSaved= 4 IEnMin= 3 EnMin= -593.041885803770     IErMin= 3 ErrMin= 1.38D-02
 ErrMax= 3.14D-02  0.00D+00 EMaxC= 1.00D-01 BMatC= 1.25D-01 BMatP= 1.40D-02
 IDIUse=2 WtCom= 0.00D+00 WtEn= 1.00D+00
 Coeff-En:   0.000D+00 0.000D+00 0.803D+00 0.197D+00
 Coeff:      0.000D+00 0.000D+00 0.803D+00 0.197D+00
 Gap=     0.155 Goal=   None    Shift=    0.000
 RMSDP=3.55D-03 MaxDP=1.28D-01 DE= 9.46D-02 OVMax= 8.32D-02

 Cycle   5  Pass 1  IDiag  1:
 E= -593.050248600906     Delta-E=       -0.102925638994 Rises=F Damp=F
 DIIS: error= 9.23D-03 at cycle   5 NSaved=   5.
 NSaved= 5 IEnMin= 5 EnMin= -593.050248600906     IErMin= 5 ErrMin= 9.23D-03
 ErrMax= 9.23D-03  0.00D+00 EMaxC= 1.00D-01 BMatC= 1.06D-02 BMatP= 1.40D-02
 IDIUse=3 WtCom= 9.08D-01 WtEn= 9.23D-02
 Coeff-Com: -0.101D-02 0.194D-01 0.322D+00-0.100D+00 0.760D+00
 Coeff-En:   0.000D+00 0.000D+00 0.388D+00 0.000D+00 0.612D+00
 Coeff:     -0.917D-03 0.176D-01 0.328D+00-0.909D-01 0.746D+00
 Gap=     0.156 Goal=   None    Shift=    0.000
 RMSDP=1.52D-03 MaxDP=5.39D-02 DE=-1.03D-01 OVMax= 3.28D-02

 Cycle   6  Pass 1  IDiag  1:
 E= -593.059715683162     Delta-E=       -0.009467082257 Rises=F Damp=F
 DIIS: error= 1.58D-04 at cycle   6 NSaved=   6.
 NSaved= 6 IEnMin= 6 EnMin= -593.059715683162     IErMin= 6 ErrMin= 1.58D-04
 ErrMax= 1.58D-04  0.00D+00 EMaxC= 1.00D-01 BMatC= 4.85D-06 BMatP= 1.06D-02
 IDIUse=3 WtCom= 9.98D-01 WtEn= 1.58D-03
 Coeff-Com: -0.176D-02 0.774D-02 0.118D+00-0.490D-01 0.324D+00 0.601D+00
 Coeff-En:   0.000D+00 0.000D+00 0.000D+00 0.000D+00 0.000D+00 0.100D+01
 Coeff:     -0.175D-02 0.772D-02 0.118D+00-0.490D-01 0.323D+00 0.602D+00
 Gap=     0.155 Goal=   None    Shift=    0.000
 RMSDP=3.87D-05 MaxDP=6.79D-04 DE=-9.47D-03 OVMax= 6.34D-04

 Cycle   7  Pass 1  IDiag  1:
 E= -593.059720187380     Delta-E=       -0.000004504218 Rises=F Damp=F
 DIIS: error= 6.79D-05 at cycle   7 NSaved=   7.
 NSaved= 7 IEnMin= 7 EnMin= -593.059720187380     IErMin= 7 ErrMin= 6.79D-05
 ErrMax= 6.79D-05  0.00D+00 EMaxC= 1.00D-01 BMatC= 5.25D-07 BMatP= 4.85D-06
 IDIUse=1 WtCom= 1.00D+00 WtEn= 0.00D+00
 Coeff-Com: -0.266D-03 0.955D-03 0.187D-01-0.986D-02 0.548D-01 0.189D+00
 Coeff-Com:  0.747D+00
 Coeff:     -0.266D-03 0.955D-03 0.187D-01-0.986D-02 0.548D-01 0.189D+00
 Coeff:      0.747D+00
 Gap=     0.155 Goal=   None    Shift=    0.000
 RMSDP=8.71D-06 MaxDP=1.33D-04 DE=-4.50D-06 OVMax= 2.49D-04

 Cycle   8  Pass 1  IDiag  1:
 E= -593.059720689969     Delta-E=       -0.000000502589 Rises=F Damp=F
 DIIS: error= 1.10D-05 at cycle   8 NSaved=   8.
 NSaved= 8 IEnMin= 8 EnMin= -593.059720689969     IErMin= 8 ErrMin= 1.10D-05
 ErrMax= 1.10D-05  0.00D+00 EMaxC= 1.00D-01 BMatC= 1.31D-08 BMatP= 5.25D-07
 IDIUse=1 WtCom= 1.00D+00 WtEn= 0.00D+00
 Coeff-Com:  0.321D-04-0.124D-03 0.398D-02-0.197D-02 0.106D-01 0.501D-01
 Coeff-Com:  0.262D+00 0.675D+00
 Coeff:      0.321D-04-0.124D-03 0.398D-02-0.197D-02 0.106D-01 0.501D-01
 Coeff:      0.262D+00 0.675D+00
 Gap=     0.155 Goal=   None    Shift=    0.000
 RMSDP=5.28D-06 MaxDP=1.63D-04 DE=-5.03D-07 OVMax= 3.63D-05

 Cycle   9  Pass 1  IDiag  1:
 E= -593.059720704400     Delta-E=       -0.000000014431 Rises=F Damp=F
 DIIS: error= 2.34D-06 at cycle   9 NSaved=   9.
 NSaved= 9 IEnMin= 9 EnMin= -593.059720704400     IErMin= 9 ErrMin= 2.34D-06
 ErrMax= 2.34D-06  0.00D+00 EMaxC= 1.00D-01 BMatC= 6.79D-10 BMatP= 1.31D-08
 IDIUse=1 WtCom= 1.00D+00 WtEn= 0.00D+00
 Coeff-Com:  0.312D-04-0.715D-04-0.639D-03 0.101D-03-0.140D-02-0.663D-03
 Coeff-Com:  0.161D-01 0.201D+00 0.786D+00
 Coeff:      0.312D-04-0.715D-04-0.639D-03 0.101D-03-0.140D-02-0.663D-03
 Coeff:      0.161D-01 0.201D+00 0.786D+00
 Gap=     0.155 Goal=   None    Shift=    0.000
 RMSDP=1.24D-06 MaxDP=4.50D-05 DE=-1.44D-08 OVMax= 7.24D-06

 Cycle  10  Pass 1  IDiag  1:
 E= -593.059720705112     Delta-E=       -0.000000000712 Rises=F Damp=F
 DIIS: error= 2.71D-07 at cycle  10 NSaved=  10.
 NSaved=10 IEnMin=10 EnMin= -593.059720705112     IErMin=10 ErrMin= 2.71D-07
 ErrMax= 2.71D-07  0.00D+00 EMaxC= 1.00D-01 BMatC= 1.42D-11 BMatP= 6.79D-10
 IDIUse=1 WtCom= 1.00D+00 WtEn= 0.00D+00
 Coeff-Com:  0.687D-05-0.187D-04-0.119D-03 0.561D-04-0.325D-03-0.338D-03
 Coeff-Com: -0.274D-02 0.246D-01 0.150D+00 0.829D+00
 Coeff:      0.687D-05-0.187D-04-0.119D-03 0.561D-04-0.325D-03-0.338D-03
 Coeff:     -0.274D-02 0.246D-01 0.150D+00 0.829D+00
 Gap=     0.155 Goal=   None    Shift=    0.000
 RMSDP=7.24D-08 MaxDP=1.27D-06 DE=-7.12D-10 OVMax= 1.23D-06

 Cycle  11  Pass 1  IDiag  1:
 E= -593.059720705126     Delta-E=       -0.000000000015 Rises=F Damp=F
 DIIS: error= 6.53D-08 at cycle  11 NSaved=  11.
 NSaved=11 IEnMin=11 EnMin= -593.059720705126     IErMin=11 ErrMin= 6.53D-08
 ErrMax= 6.53D-08  0.00D+00 EMaxC= 1.00D-01 BMatC= 4.78D-13 BMatP= 1.42D-11
 IDIUse=1 WtCom= 1.00D+00 WtEn= 0.00D+00
 Coeff-Com: -0.642D-06 0.112D-05-0.130D-04 0.602D-05-0.256D-04-0.670D-04
 Coeff-Com: -0.105D-02-0.191D-02 0.243D-02 0.815D-01 0.919D+00
 Coeff:     -0.642D-06 0.112D-05-0.130D-04 0.602D-05-0.256D-04-0.670D-04
 Coeff:     -0.105D-02-0.191D-02 0.243D-02 0.815D-01 0.919D+00
 Gap=     0.155 Goal=   None    Shift=    0.000
 RMSDP=9.18D-08 MaxDP=3.56D-06 DE=-1.46D-11 OVMax= 2.03D-07

 Cycle  12  Pass 1  IDiag  1:
 E= -593.059720705127     Delta-E=       -0.000000000000 Rises=F Damp=F
 DIIS: error= 1.93D-08 at cycle  12 NSaved=  12.
 NSaved=12 IEnMin=12 EnMin= -593.059720705127     IErMin=12 ErrMin= 1.93D-08
 ErrMax= 1.93D-08  0.00D+00 EMaxC= 1.00D-01 BMatC= 1.10D-14 BMatP= 4.78D-13
 IDIUse=1 WtCom= 1.00D+00 WtEn= 0.00D+00
 Coeff-Com: -0.483D-06 0.103D-05-0.846D-06-0.133D-07 0.193D-05-0.112D-04
 Coeff-Com: -0.218D-03-0.118D-02-0.332D-02 0.330D-02 0.294D+00 0.708D+00
 Coeff:     -0.483D-06 0.103D-05-0.846D-06-0.133D-07 0.193D-05-0.112D-04
 Coeff:     -0.218D-03-0.118D-02-0.332D-02 0.330D-02 0.294D+00 0.708D+00
 Gap=     0.155 Goal=   None    Shift=    0.000
 RMSDP=2.11D-08 MaxDP=8.46D-07 DE=-4.55D-13 OVMax= 3.83D-08

 Cycle  13  Pass 1  IDiag  1:
 E= -593.059720705127     Delta-E=        0.000000000000 Rises=F Damp=F
 DIIS: error= 1.16D-09 at cycle  13 NSaved=  13.
 NSaved=13 IEnMin=12 EnMin= -593.059720705127     IErMin=13 ErrMin= 1.16D-09
 ErrMax= 1.16D-09  0.00D+00 EMaxC= 1.00D-01 BMatC= 1.96D-16 BMatP= 1.10D-14
 IDIUse=1 WtCom= 1.00D+00 WtEn= 0.00D+00
 Coeff-Com: -0.138D-07 0.196D-07 0.307D-06-0.716D-07 0.507D-06-0.242D-05
 Coeff-Com:  0.110D-04-0.169D-04-0.327D-03 0.599D-03-0.117D-01 0.201D-01
 Coeff-Com:  0.991D+00
 Coeff:     -0.138D-07 0.196D-07 0.307D-06-0.716D-07 0.507D-06-0.242D-05
 Coeff:      0.110D-04-0.169D-04-0.327D-03 0.599D-03-0.117D-01 0.201D-01
 Coeff:      0.991D+00
 Gap=     0.155 Goal=   None    Shift=    0.000
 RMSDP=1.62D-09 MaxDP=5.52D-08 DE= 2.27D-13 OVMax= 7.28D-09

 SCF Done:  E(RB3LYP) =  -593.059720705     A.U. after   13 cycles
            NFock= 13  Conv=0.16D-08     -V/T= 2.0047
 KE= 5.903023351425D+02 PE=-1.624046149098D+03 EE= 3.337982992623D+02
 Leave Link  502 at Sun Oct 13 09:47:55 2024, MaxMem=  2684354560 cpu:              39.1 elap:               1.8
 (Enter /usr/local/g16_AVX//g16/l801.exe)
 DoSCS=F DFT=T ScalE2(SS,OS)=  1.000000  1.000000
 Range of M.O.s used for correlation:     1    98
 NBasis=    98 NAE=    20 NBE=    20 NFC=     0 NFV=     0
 NROrb=     98 NOA=    20 NOB=    20 NVA=    78 NVB=    78

 **** Warning!!: The largest alpha MO coefficient is  0.13393242D+03

 Leave Link  801 at Sun Oct 13 09:47:55 2024, MaxMem=  2684354560 cpu:               0.8 elap:               0.1
 (Enter /usr/local/g16_AVX//g16/l1101.exe)
 Using compressed storage, NAtomX=     7.
 Will process      8 centers per pass.
 Leave Link 1101 at Sun Oct 13 09:47:55 2024, MaxMem=  2684354560 cpu:               3.4 elap:               0.2
 (Enter /usr/local/g16_AVX//g16/l1102.exe)
 Symmetrizing basis deriv contribution to polar:
 IMax=3 JMax=2 DiffMx= 0.00D+00
 Leave Link 1102 at Sun Oct 13 09:47:55 2024, MaxMem=  2684354560 cpu:               1.8 elap:               0.1
 (Enter /usr/local/g16_AVX//g16/l1110.exe)
 Forming Gx(P) for the SCF density, NAtomX=     7.
 Integral derivatives from FoFJK, PRISM(SPDF).
 Do as many integral derivatives as possible in FoFJK.
 G2DrvN: MDV=    2684353864.
 G2DrvN: will do     8 centers at a time, making    1 passes.
 Calling FoFCou, ICntrl=  3107 FMM=F I1Cent=   0 AccDes= 0.00D+00.
 FoFJK:  IHMeth= 1 ICntrl=    3107 DoSepK=F KAlg= 0 I1Cent=           0 FoldK=F
 IRaf=         0 NMat=       1 IRICut=       1 DoRegI=T DoRafI=F ISym2E= 0 IDoP0=0 IntGTp=1.
 FoFCou: FMM=F IPFlag=           0 FMFlag=      100000 FMFlg1=           0
         NFxFlg=           0 DoJE=F BraDBF=F KetDBF=F FulRan=T
         wScrn=  0.000000 ICntrl=      3107 IOpCl=  0 I1Cent=           0 NGrid=           0
         NMat0=    1 NMatS0=      1 NMatT0=    0 NMatD0=    1 NMtDS0=    0 NMtDT0=    0
 Symmetry not used in FoFCou.
 End of G2Drv F.D. properties file   721 does not exist.
 End of G2Drv F.D. properties file   722 does not exist.
 End of G2Drv F.D. properties file   788 does not exist.
 Leave Link 1110 at Sun Oct 13 09:47:57 2024, MaxMem=  2684354560 cpu:              40.9 elap:               1.6
 (Enter /usr/local/g16_AVX//g16/l1002.exe)
 Minotr:  Closed shell wavefunction.
          IDoAtm=1111111
          Direct CPHF calculation.
          Differentiating once with respect to electric field.
                with respect to dipole field.
          Differentiating once with respect to nuclear coordinates.
          Requested convergence is 1.0D-08 RMS, and 1.0D-07 maximum.
          Secondary convergence is 1.0D-12 RMS, and 1.0D-12 maximum.
          NewPWx=T KeepS1=F KeepF1=F KeepIn=T MapXYZ=F SortEE=F KeepMc=T.
         2136 words used for storage of precomputed grid.
 Keep R1 ints in memory in canonical form, NReq=35668397.
 FoFCou: FMM=F IPFlag=           0 FMFlag=           0 FMFlg1=           0
         NFxFlg=           0 DoJE=F BraDBF=F KetDBF=F FulRan=T
         wScrn=  0.000000 ICntrl=       600 IOpCl=  0 I1Cent=           0 NGrid=           0
         NMat0=    1 NMatS0=   4851 NMatT0=    0 NMatD0=    1 NMtDS0=    0 NMtDT0=    0
 Symmetry not used in FoFCou.
 Two-electron integral symmetry not used.
          MDV=    2684354560 using IRadAn=       1.
          Solving linear equations simultaneously, MaxMat=       0.
          There are    24 degrees of freedom in the 1st order CPHF.  IDoFFX=6 NUNeed=     3.
     21 vectors produced by pass  0 Test12= 6.50D-15 4.17D-09 XBig12= 6.91D+01 2.82D+00.
 AX will form    21 AO Fock derivatives at one time.
     21 vectors produced by pass  1 Test12= 6.50D-15 4.17D-09 XBig12= 4.79D+01 2.23D+00.
     21 vectors produced by pass  2 Test12= 6.50D-15 4.17D-09 XBig12= 1.51D+00 3.39D-01.
     21 vectors produced by pass  3 Test12= 6.50D-15 4.17D-09 XBig12= 9.55D-03 2.13D-02.
     21 vectors produced by pass  4 Test12= 6.50D-15 4.17D-09 XBig12= 1.26D-05 6.59D-04.
     18 vectors produced by pass  5 Test12= 6.50D-15 4.17D-09 XBig12= 1.27D-08 2.20D-05.
      4 vectors produced by pass  6 Test12= 6.50D-15 4.17D-09 XBig12= 1.83D-11 9.29D-07.
      3 vectors produced by pass  7 Test12= 6.50D-15 4.17D-09 XBig12= 2.96D-14 4.49D-08.
 InvSVY:  IOpt=1 It=  1 EMax= 3.55D-15
 Solved reduced A of dimension   130 with    24 vectors.
 FullF1:  Do perturbations      1 to       3.
 Isotropic polarizability for W=    0.000000       53.98 Bohr**3.
 End of Minotr F.D. properties file   721 does not exist.
 End of Minotr F.D. properties file   722 does not exist.
 End of Minotr F.D. properties file   788 does not exist.
 Leave Link 1002 at Sun Oct 13 09:47:59 2024, MaxMem=  2684354560 cpu:              55.7 elap:               2.2
 (Enter /usr/local/g16_AVX//g16/l601.exe)
 Copying SCF densities to generalized density rwf, IOpCl= 0 IROHF=0.

 **********************************************************************

            Population analysis using the SCF Density.

 **********************************************************************

 Alpha  occ. eigenvalues -- -101.25499 -14.22643 -10.12334 -10.09326  -9.16853
 Alpha  occ. eigenvalues --   -6.92638  -6.92638  -6.92617  -0.79651  -0.64153
 Alpha  occ. eigenvalues --   -0.50728  -0.37908  -0.32485  -0.32477  -0.25725
 Alpha  occ. eigenvalues --   -0.21522  -0.21521  -0.05358  -0.05315  -0.05315
 Alpha virt. eigenvalues --    0.10193   0.13743   0.13745   0.14370   0.14870
 Alpha virt. eigenvalues --    0.14871   0.19974   0.20649   0.20650   0.21941
 Alpha virt. eigenvalues --    0.23279   0.23281   0.25420   0.25994   0.25995
 Alpha virt. eigenvalues --    0.29542   0.32843   0.33730   0.33731   0.34555
 Alpha virt. eigenvalues --    0.34560   0.35451   0.39450   0.41175   0.48631
 Alpha virt. eigenvalues --    0.68996   0.78851   0.78851   0.84765   0.84771
 Alpha virt. eigenvalues --    0.85071   0.85075   0.85798   0.89102   0.98579
 Alpha virt. eigenvalues --    1.02640   1.02650   1.03638   1.09783   1.12195
 Alpha virt. eigenvalues --    1.12197   1.15339   1.15339   1.15957   1.15958
 Alpha virt. eigenvalues --    1.21754   1.26040   1.27927   1.45539   1.45547
 Alpha virt. eigenvalues --    1.54193   1.62789   1.62790   1.86456   1.86463
 Alpha virt. eigenvalues --    1.91109   2.05502   2.05504   2.15061   2.23967
 Alpha virt. eigenvalues --    2.23977   2.31609   2.39942   2.39955   2.78392
 Alpha virt. eigenvalues --    2.80426   2.80429   3.05704   3.09333   3.09362
 Alpha virt. eigenvalues --    3.28715   3.45624   3.55486   3.55499   4.25556
 Alpha virt. eigenvalues --    4.44687   4.58207   4.81242
          Condensed to atoms (all electrons):
               1          2          3          4          5          6
     1  C    5.991131  -0.122518   0.418213   0.419037   0.418954  -1.065719
     2  Cl  -0.122518  17.934821  -0.007791  -0.007757  -0.007756   0.130789
     3  H    0.418213  -0.007791   0.484809  -0.024209  -0.024207  -0.059738
     4  H    0.419037  -0.007757  -0.024209   0.484905  -0.024297  -0.060605
     5  H    0.418954  -0.007756  -0.024207  -0.024297   0.484828  -0.060493
     6  C   -1.065719   0.130789  -0.059738  -0.060605  -0.060493   6.810409
     7  N   -0.053571   0.001031  -0.005312  -0.005308  -0.005304   0.451778
               7
     1  C   -0.053571
     2  Cl   0.001031
     3  H   -0.005312
     4  H   -0.005308
     5  H   -0.005304
     6  C    0.451778
     7  N    7.198665
 Mulliken charges:
               1
     1  C   -0.005525
     2  Cl  -0.920820
     3  H    0.218235
     4  H    0.218234
     5  H    0.218275
     6  C   -0.146421
     7  N   -0.581978
 Sum of Mulliken charges =  -1.00000
 Mulliken charges with hydrogens summed into heavy atoms:
               1
     1  C    0.649219
     2  Cl  -0.920820
     6  C   -0.146421
     7  N   -0.581978
 APT charges:
               1
     1  C    0.000200
     2  Cl  -0.981057
     3  H    0.085061
     4  H    0.084995
     5  H    0.085048
     6  C    0.216624
     7  N   -0.490871
 Sum of APT charges =  -1.00000
 APT charges with hydrogens summed into heavy atoms:
               1
     1  C    0.255304
     2  Cl  -0.981057
     6  C    0.216624
     7  N   -0.490871
 Electronic spatial extent (au):  <R**2>=            889.1077
 Charge=             -1.0000 electrons
 Dipole moment (field-independent basis, Debye):
    X=              5.8325    Y=              0.0003    Z=              0.0016  Tot=              5.8325
 Quadrupole moment (field-independent basis, Debye-Ang):
   XX=            -87.0873   YY=            -35.4198   ZZ=            -35.4178
   XY=              0.0003   XZ=              0.0068   YZ=              0.0000
 Traceless Quadrupole moment (field-independent basis, Debye-Ang):
   XX=            -34.4457   YY=             17.2219   ZZ=             17.2238
   XY=              0.0003   XZ=              0.0068   YZ=              0.0000
 Octapole moment (field-independent basis, Debye-Ang**2):
  XXX=            -12.9159  YYY=             -0.0059  ZZZ=             -0.8527  XYY=              4.1524
  XXY=              0.0015  XXZ=              0.0147  XZZ=              4.1528  YZZ=              0.0060
  YYZ=              0.8519  XYZ=              0.0001
 Hexadecapole moment (field-independent basis, Debye-Ang**3):
 XXXX=          -1771.2197 YYYY=            -57.9971 ZZZZ=            -57.9990 XXXY=              0.0038
 XXXZ=              0.1411 YYYX=             -0.0015 YYYZ=              0.0002 ZZZX=             -0.2062
 ZZZY=             -0.0004 XXYY=           -224.2937 XXZZ=           -224.2937 YYZZ=            -19.3307
 XXYZ=             -0.0001 YYXZ=              0.2867 ZZXY=              0.0020
 N-N= 1.068857939880D+02 E-N=-1.624046148845D+03  KE= 5.903023351425D+02
  Exact polarizability:  78.944  -0.001  41.500  -0.009   0.000  41.504
 Approx polarizability:  97.643  -0.001  50.114  -0.014   0.001  50.120
 No NMR shielding tensors so no spin-rotation constants.
 Leave Link  601 at Sun Oct 13 09:47:59 2024, MaxMem=  2684354560 cpu:               3.6 elap:               0.2
 (Enter /usr/local/g16_AVX//g16/l701.exe)
 ... and contract with generalized density number  0.
 Compute integral second derivatives.
 Leave Link  701 at Sun Oct 13 09:47:59 2024, MaxMem=  2684354560 cpu:               4.6 elap:               0.2
 (Enter /usr/local/g16_AVX//g16/l702.exe)
 L702 exits ... SP integral derivatives will be done elsewhere.
 Leave Link  702 at Sun Oct 13 09:47:59 2024, MaxMem=  2684354560 cpu:               0.8 elap:               0.1
 (Enter /usr/local/g16_AVX//g16/l703.exe)
 Integral derivatives from FoFJK, PRISM(SPDF).
 Compute integral second derivatives, UseDBF=F ICtDFT=           0.
 Calling FoFJK, ICntrl=    100127 FMM=F ISym2X=0 I1Cent= 0 IOpClX= 0 NMat=1 NMatS=1 NMatT=0.
 FoFJK:  IHMeth= 1 ICntrl=  100127 DoSepK=F KAlg= 0 I1Cent=           0 FoldK=F
 IRaf=         0 NMat=       1 IRICut=       1 DoRegI=T DoRafI=F ISym2E= 0 IDoP0=0 IntGTp=1.
 FoFCou: FMM=F IPFlag=           0 FMFlag=      100000 FMFlg1=         800
         NFxFlg=           0 DoJE=F BraDBF=F KetDBF=F FulRan=T
         wScrn=  0.000000 ICntrl=    100127 IOpCl=  0 I1Cent=           0 NGrid=           0
         NMat0=    1 NMatS0=      1 NMatT0=    0 NMatD0=    1 NMtDS0=    0 NMtDT0=    0
 Symmetry not used in FoFCou.
 Leave Link  703 at Sun Oct 13 09:48:02 2024, MaxMem=  2684354560 cpu:              64.7 elap:               2.5
 (Enter /usr/local/g16_AVX//g16/l716.exe)
 Dipole        = 2.29466914D+00 9.88908934D-05 6.13099348D-04
 Polarizability= 7.89435379D+01-9.91753562D-04 4.15004811D+01
                -8.96467633D-03 3.06996156D-04 4.15042717D+01
 Full mass-weighted force constant matrix:
 Low frequencies ---  -66.7554  -66.4971  -22.3014  -22.2891   -0.0027    0.0034
 Low frequencies ---    0.0040  126.0907  131.2153
 ******    2 imaginary frequencies (negative Signs) ****** 
 Diagonal vibrational polarizability:
       32.8540528     140.8328230     141.8092770
 Harmonic frequencies (cm**-1), IR intensities (KM/Mole), Raman scattering
 activities (A**4/AMU), depolarization ratios for plane and unpolarized
 incident light, reduced masses (AMU), force constants (mDyne/A),
 and normal coordinates:
                      1                      2                      3
                      A                      A                      A
 Frequencies --    -63.8439               -63.5937               131.2153
 Red. masses --      3.6244                 3.6270                12.2034
 Frc consts  --      0.0087                 0.0086                 0.1238
 IR Inten    --     21.2498                21.2570                20.2350
  Atom  AN      X      Y      Z        X      Y      Z        X      Y      Z
     1   6    -0.00   0.36  -0.11     0.00   0.11   0.36    -0.36  -0.00   0.00
     2  17     0.00  -0.08   0.02    -0.00  -0.02  -0.08     0.43   0.00  -0.00
     3   1     0.08   0.45  -0.14    -0.26   0.13   0.46    -0.37  -0.00   0.01
     4   1     0.19   0.46  -0.12     0.20   0.14   0.45    -0.37  -0.00  -0.00
     5   1    -0.27   0.46  -0.14     0.06   0.13   0.45    -0.37   0.00  -0.00
     6   6    -0.00   0.03  -0.01     0.00   0.01   0.03    -0.37  -0.00   0.00
     7   7    -0.00  -0.24   0.07     0.00  -0.07  -0.24    -0.37   0.00  -0.00
                      4                      5                      6
                      A                      A                      A
 Frequencies --    373.2205               373.4096               926.6000
 Red. masses --      3.4784                 3.4784                 4.7990
 Frc consts  --      0.2855                 0.2858                 2.4276
 IR Inten    --      1.2719                 1.2665                11.6601
  Atom  AN      X      Y      Z        X      Y      Z        X      Y      Z
     1   6    -0.00  -0.06   0.02    -0.00  -0.02  -0.06     0.44  -0.00  -0.00
     2  17     0.00  -0.00   0.00    -0.00  -0.00  -0.00    -0.00   0.00   0.00
     3   1    -0.18  -0.27   0.09     0.57  -0.09  -0.28     0.47   0.00  -0.01
     4   1    -0.40  -0.28   0.08    -0.44  -0.09  -0.27     0.47   0.01   0.00
     5   1     0.58  -0.28   0.09    -0.13  -0.08  -0.27     0.47  -0.01   0.00
     6   6    -0.00   0.38  -0.12     0.00   0.12   0.38    -0.20   0.00   0.00
     7   7     0.00  -0.22   0.07     0.00  -0.07  -0.22    -0.30   0.00   0.00
                      7                      8                      9
                      A                      A                      A
 Frequencies --   1018.4468              1018.7013              1354.6313
 Red. masses --      1.5092                 1.5088                 1.2176
 Frc consts  --      0.9223                 0.9225                 1.3164
 IR Inten    --      1.4674                 1.4671                41.0471
  Atom  AN      X      Y      Z        X      Y      Z        X      Y      Z
     1   6    -0.00   0.16  -0.02     0.00   0.02   0.16    -0.14  -0.00   0.00
     2  17     0.00  -0.00   0.00    -0.00  -0.00  -0.00     0.00  -0.00   0.00
     3   1    -0.09  -0.33   0.01     0.71  -0.04  -0.12     0.52   0.00  -0.23
     4   1    -0.57  -0.18   0.12    -0.43   0.07  -0.26     0.52   0.20   0.12
     5   1     0.66  -0.16  -0.06    -0.28  -0.11  -0.29     0.52  -0.20   0.12
     6   6     0.00  -0.13   0.02    -0.00  -0.02  -0.13     0.00   0.00  -0.00
     7   7     0.00   0.02  -0.00    -0.00   0.00   0.02     0.00   0.00   0.00
                     10                     11                     12
                      A                      A                      A
 Frequencies --   1444.1384              1444.4506              2349.9987
 Red. masses --      1.0402                 1.0402                12.5024
 Frc consts  --      1.2781                 1.2787                40.6800
 IR Inten    --     12.6215                12.6272                51.7661
  Atom  AN      X      Y      Z        X      Y      Z        X      Y      Z
     1   6     0.00  -0.05  -0.00    -0.00   0.00  -0.05    -0.09   0.00   0.00
     2  17    -0.00  -0.00  -0.00     0.00   0.00  -0.00     0.00   0.00   0.00
     3   1     0.03   0.71  -0.01     0.35  -0.06  -0.16    -0.07  -0.00   0.02
     4   1    -0.32   0.03  -0.34    -0.15  -0.38   0.53    -0.07  -0.02  -0.01
     5   1     0.29   0.09   0.42    -0.20   0.37   0.46    -0.07   0.02  -0.01
     6   6    -0.00  -0.02  -0.00    -0.00   0.00  -0.02     0.79  -0.00  -0.00
     7   7    -0.00   0.00   0.00     0.00  -0.00   0.00    -0.59   0.00   0.00
                     13                     14                     15
                      A                      A                      A
 Frequencies --   3088.6206              3171.1477              3171.9830
 Red. masses --      1.0336                 1.1031                 1.1031
 Frc consts  --      5.8097                 6.5357                 6.5394
 IR Inten    --      2.1097                 0.2829                 0.2891
  Atom  AN      X      Y      Z        X      Y      Z        X      Y      Z
     1   6    -0.05   0.00   0.00    -0.00  -0.09  -0.03    -0.00   0.03  -0.09
     2  17    -0.00  -0.00  -0.00    -0.00   0.00   0.00    -0.00  -0.00   0.00
     3   1     0.19  -0.00   0.54     0.10  -0.02   0.27     0.27   0.01   0.71
     4   1     0.19  -0.47  -0.28    -0.28   0.64   0.38    -0.05   0.11   0.04
     5   1     0.19   0.47  -0.27     0.18   0.41  -0.26    -0.22  -0.52   0.28
     6   6    -0.00  -0.00  -0.00    -0.00   0.00   0.00    -0.00  -0.00   0.00
     7   7     0.00   0.00  -0.00     0.00  -0.00  -0.00     0.00   0.00  -0.00

 -------------------
 - Thermochemistry -
 -------------------
 Temperature   298.150 Kelvin.  Pressure   1.00000 Atm.
 Atom     1 has atomic number  6 and mass  12.00000
 Atom     2 has atomic number 17 and mass  34.96885
 Atom     3 has atomic number  1 and mass   1.00783
 Atom     4 has atomic number  1 and mass   1.00783
 Atom     5 has atomic number  1 and mass   1.00783
 Atom     6 has atomic number  6 and mass  12.00000
 Atom     7 has atomic number  7 and mass  14.00307
 Molecular mass:    75.99540 amu.
 Principal axes and moments of inertia in atomic units:
                           1         2         3
     Eigenvalues --    11.279871545.360651545.36434
           X            1.00000   0.00010  -0.00001
           Y           -0.00000   0.08519   0.99637
           Z           -0.00010   0.99637  -0.08519
 This molecule is an asymmetric top.
 Rotational symmetry number  1.
 Rotational temperatures (Kelvin)      7.67863     0.05605     0.05605
 Rotational constants (GHZ):         159.99658     1.16784     1.16784
    2 imaginary frequencies ignored.
 Zero-point vibrational energy     118828.4 (Joules/Mol)
                                   28.40068 (Kcal/Mol)
 Warning -- explicit consideration of   3 degrees of freedom as
           vibrations may cause significant error
 Vibrational temperatures:    188.79   536.98   537.25  1333.17  1465.32
          (Kelvin)           1465.68  1949.01  2077.79  2078.24  3381.12
                             4443.84  4562.57  4563.78
 
 Zero-point correction=                           0.045259 (Hartree/Particle)
 Thermal correction to Energy=                    0.049580
 Thermal correction to Enthalpy=                  0.050524
 Thermal correction to Gibbs Free Energy=         0.017686
 Sum of electronic and zero-point Energies=           -593.014461
 Sum of electronic and thermal Energies=              -593.010141
 Sum of electronic and thermal Enthalpies=            -593.009197
 Sum of electronic and thermal Free Energies=         -593.042035
 
                     E (Thermal)             CV                S
                      KCal/Mol        Cal/Mol-Kelvin    Cal/Mol-Kelvin
 Total                   31.112             12.425             69.114
 Electronic               0.000              0.000              0.000
 Translational            0.889              2.981             38.900
 Rotational               0.889              2.981             24.802
 Vibrational             29.334              6.464              5.411
 Vibration     1          0.612              1.922              2.928
 Vibration     2          0.745              1.527              1.067
 Vibration     3          0.745              1.527              1.066
                       Q            Log10(Q)             Ln(Q)
 Total Bot       0.732929D-08         -8.134938        -18.731387
 Total V=0       0.481843D+13         12.682905         29.203468
 Vib (Bot)       0.479070D-20        -20.319601        -46.787610
 Vib (Bot)    1  0.155319D+01          0.191226          0.440313
 Vib (Bot)    2  0.486730D+00         -0.312712         -0.720047
 Vib (Bot)    3  0.486420D+00         -0.312989         -0.720683
 Vib (V=0)       0.314950D+01          0.498242          1.147245
 Vib (V=0)    1  0.213169D+01          0.328724          0.756915
 Vib (V=0)    2  0.119779D+01          0.078379          0.180475
 Vib (V=0)    3  0.119757D+01          0.078301          0.180295
 Electronic      0.100000D+01          0.000000          0.000000
 Translational   0.260396D+08          7.415635         17.075130
 Rotational      0.587527D+05          4.769028         10.981093
 
                                                       RxCoord=-6.78699 DE=1.56
                                                             IR Spectrum
 
      3  3                            2                                    1  1             1                                        
      1  0                            3                                    4  3             0  9                      3        1     
      7  8                            5                                    4  5             1  2                      7        3     
      1  9                            0                                    4  5             8  7                      3        1     
 
      X  X                            X                                    X  X             X  X                      X        X     
                                      X                                    X  X                X                               X     
                                      X                                    X  X                X                               X     
                                      X                                    X  X                X                               X     
                                      X                                    X  X                X                               X     
                                      X                                    X  X                                                X     
                                      X                                    X  X                                                X     
                                      X                                    X  X                                                X     
                                      X                                    X  X                                                      
                                      X                                    X  X                                                      
                                      X                                       X                                                      
                                      X                                       X                                                      
                                      X                                       X                                                      
                                      X                                       X                                                      
                                      X                                       X                                                      
                                      X                                       X                                                      
                                      X                                                                                              
                                      X                                                                                              
                                      X                                                                                              
                                      X                                                                                              
 
 -------------------------------------------------------------------
 Center     Atomic                   Forces (Hartrees/Bohr)
 Number     Number              X              Y              Z
 -------------------------------------------------------------------
      1        6           0.003843310    0.000052672    0.000047584
      2       17          -0.002583478   -0.000000102   -0.000000747
      3        1          -0.003001775   -0.000001577    0.001163887
      4        1          -0.002925450   -0.001026930   -0.000641405
      5        1          -0.002945116    0.000976692   -0.000604693
      6        6           0.002346948    0.000001807    0.000050550
      7        7           0.005265560   -0.000002562   -0.000015177
 -------------------------------------------------------------------
 Cartesian Forces:  Max     0.005265560 RMS     0.002012702
 Z-matrix is all fixed cartesians, so copy forces.
 Force constants in Cartesian coordinates: 
                1             2             3             4             5 
      1  0.487029D+00
      2  0.930908D-04  0.557532D+00
      3  0.622990D-05 -0.993633D-04  0.557913D+00
      4 -0.723144D-02  0.000000D+00  0.246677D-05  0.123889D-01
      5  0.000000D+00 -0.247108D-03  0.000000D+00  0.000000D+00 -0.308919D-03
      6  0.000000D+00  0.000000D+00 -0.248524D-03 -0.168333D-04  0.000000D+00
      7 -0.705237D-01  0.216671D-03 -0.907861D-01 -0.672543D-03  0.232471D-05
      8  0.212712D-03 -0.404891D-01  0.606793D-03  0.326694D-05 -0.104383D-02
      9 -0.894381D-01  0.609261D-03 -0.294220D+00 -0.129732D-02 -0.381348D-05
     10 -0.704121D-01  0.783187D-01  0.454855D-01 -0.657435D-03  0.853130D-03
     11  0.771577D-01 -0.230111D+00 -0.110143D+00  0.112450D-02  0.152286D-03
     12  0.448089D-01 -0.110145D+00 -0.104497D+00  0.658686D-03  0.690248D-03
     13 -0.704551D-01 -0.786374D-01  0.451833D-01 -0.657938D-03 -0.855826D-03
     14 -0.774767D-01 -0.231233D+00  0.109632D+00 -0.112807D-02  0.158316D-03
     15  0.445134D-01  0.109632D+00 -0.103494D+00  0.653831D-03 -0.686420D-03
     16 -0.257449D+00  0.899350D-05  0.103100D-03 -0.583397D-03  0.000000D+00
     17  0.796800D-05 -0.772903D-01  0.449244D-05  0.000000D+00  0.152294D-02
     18  0.897760D-04  0.444842D-05 -0.772976D-01 -0.276858D-05  0.000000D+00
     19 -0.109570D-01  0.000000D+00  0.551689D-05 -0.258612D-02  0.000000D+00
     20  0.493120D-05  0.218389D-01 -0.110321D-05  0.000000D+00 -0.233685D-03
     21  0.196803D-04 -0.110463D-05  0.218442D-01  0.193830D-05  0.000000D+00
                6             7             8             9            10 
      6 -0.308995D-03
      7 -0.979192D-03  0.832596D-01
      8 -0.380670D-05 -0.238232D-03  0.428334D-01
      9  0.533431D-03  0.995160D-01 -0.648576D-03  0.313265D+00
     10  0.500326D-03  0.433151D-02 -0.949865D-02 -0.463081D-02  0.830979D-01
     11  0.690542D-03 -0.786387D-03  0.502356D-03  0.128546D-02 -0.858622D-01
     12 -0.629558D-03  0.105186D-01 -0.240904D-01 -0.128106D-01 -0.498853D-01
     13  0.496507D-03  0.433492D-02  0.952042D-02 -0.458832D-02  0.432937D-02
     14 -0.686723D-03  0.736028D-03  0.393822D-03 -0.122324D-02 -0.871855D-02
     15 -0.636326D-03  0.105278D-01  0.241520D-01 -0.127055D-01 -0.593668D-02
     16  0.000000D+00 -0.211430D-01  0.832484D-05 -0.288554D-02 -0.211050D-01
     17  0.000000D+00  0.793216D-04 -0.335124D-02 -0.256400D-04  0.284497D-01
     18  0.152406D-02 -0.328925D-01 -0.221895D-04  0.755276D-02  0.165225D-01
     19  0.000000D+00  0.413194D-03 -0.783690D-05  0.332403D-02  0.415702D-03
     20  0.000000D+00 -0.972611D-05  0.115462D-02  0.655587D-05 -0.354221D-02
     21 -0.234089D-03  0.409531D-02  0.614497D-05 -0.161530D-02 -0.205552D-02
               11            12            13            14            15 
     11  0.244969D+00
     12  0.117391D+00  0.111046D+00
     13  0.874281D-02 -0.589282D-02  0.831444D-01
     14 -0.193894D-01  0.126304D-01  0.862007D-01  0.246153D+00
     15 -0.127552D-01  0.705214D-02 -0.495486D-01 -0.116835D+00  0.109977D+00
     16  0.249526D-02  0.146176D-02 -0.211123D-01 -0.249318D-02  0.144668D-02
     17  0.478990D-02  0.472467D-02 -0.285219D-01  0.484460D-02 -0.470267D-02
     18  0.473101D-02 -0.619605D-03  0.163886D-01 -0.471242D-02 -0.663375D-03
     19 -0.287176D-02 -0.166984D-02  0.416642D-03  0.287969D-02 -0.165647D-02
     20 -0.913560D-03 -0.120055D-02  0.355110D-02 -0.926524D-03  0.119496D-02
     21 -0.119988D-02  0.458497D-03 -0.203861D-02  0.119470D-02  0.469625D-03
               16            17            18            19            20 
     16  0.155922D+01
     17 -0.225824D-04  0.107935D+00
     18 -0.527035D-03  0.000000D+00  0.107958D+00
     19 -0.123782D+01  0.810369D-05  0.421514D-03  0.125012D+01
     20  0.326582D-05 -0.384507D-01  0.000000D+00 -0.756801D-05  0.175309D-01
     21  0.401438D-03  0.000000D+00 -0.384541D-01 -0.424230D-03  0.000000D+00
               21 
     21  0.175312D-01
 Leave Link  716 at Sun Oct 13 09:48:02 2024, MaxMem=  2684354560 cpu:               0.6 elap:               0.0
 (Enter /usr/local/g16_AVX//g16/l103.exe)

 GradGradGradGradGradGradGradGradGradGradGradGradGradGradGradGradGradGrad
 Berny optimization.
 Search for a local minimum.
 Step number   1 out of a maximum of    2
 All quantities printed in internal units (Hartrees-Bohrs-Radians)
 Second derivative matrix not updated -- analytic derivatives used.
 ITU=  0
     Eigenvalues ---   -0.00069  -0.00069   0.01219   0.02422   0.02424
     Eigenvalues ---    0.09579   0.09582   0.09716   0.16209   0.16212
     Eigenvalues ---    0.28114   0.64946   0.82279   0.82336   2.66731
 Eigenvalue     1 is  -6.93D-04 should be greater than     0.000000 Eigenvector:
                          Y5        Y4        Y3        Y7        Y1
   1                    0.42476   0.41952   0.40789  -0.34045   0.32419
                          X5        Y2        X4        Z5        Z3
   1                   -0.27653  -0.25736   0.19691  -0.12790  -0.12302
 Eigenvalue     2 is  -6.88D-04 should be greater than     0.000000 Eigenvector:
                          Z3        Z4        Z5        Z7        Z1
   1                    0.42756   0.41493   0.40970  -0.34059   0.32426
                          X3        Z2        X4        Y4        Y3
   1                   -0.27262  -0.25739   0.20570   0.13027   0.11719
 Angle between quadratic step and forces=  51.86 degrees.
 Linear search not attempted -- first point.
 B after Tr=    -0.017378   -0.000094   -0.000876
         Rot=    1.000000   -0.000000    0.000069   -0.000006 Ang=   0.01 deg.
 Variable       Old X    -DE/DX   Delta X   Delta X   Delta X     New X
                                 (Linear)    (Quad)   (Total)
    X1        1.45060   0.00384   0.00000   0.06292   0.04554   1.49614
    Y1        0.00015   0.00005   0.00000   0.00025   0.00018   0.00032
    Z1        0.00092   0.00005   0.00000   0.00179   0.00113   0.00205
    X2       -4.56358  -0.00258   0.00000  -0.14431  -0.16168  -4.72526
    Y2       -0.00003  -0.00000   0.00000  -0.00016  -0.00032  -0.00035
    Z2        0.00022  -0.00000   0.00000  -0.00138  -0.00291  -0.00269
    X3        0.72925  -0.00300   0.00000   0.01458  -0.00254   0.72671
    Y3        0.00477  -0.00000   0.00000   0.00023   0.00014   0.00491
    Z3       -1.93032   0.00116   0.00000   0.01811   0.01734  -1.91298
    X4        0.73013  -0.00293   0.00000   0.01760   0.00007   0.73020
    Y4        1.67052  -0.00103   0.00000  -0.01302  -0.01310   1.65742
    Z4        0.97138  -0.00064   0.00000  -0.00601  -0.00679   0.96459
    X5        0.72975  -0.00295   0.00000   0.01740  -0.00008   0.72967
    Y5       -1.67442   0.00098   0.00000   0.01346   0.01337  -1.66104
    Z5        0.96344  -0.00060   0.00000  -0.00588  -0.00665   0.95679
    X6        4.20024   0.00235   0.00000   0.07493   0.05756   4.25779
    Y6       -0.00006   0.00000   0.00000   0.00005   0.00001  -0.00005
    Z6       -0.00050   0.00005   0.00000   0.00004  -0.00025  -0.00075
    X7        6.39622   0.00527   0.00000   0.07852   0.06114   6.45736
    Y7       -0.00007  -0.00000   0.00000  -0.00027  -0.00028  -0.00035
    Z7       -0.00123  -0.00002   0.00000  -0.00189  -0.00187  -0.00310
         Item               Value     Threshold  Converged?
 Maximum Force            0.005266     0.000450     NO 
 RMS     Force            0.002013     0.000300     NO 
 Maximum Displacement     0.161683     0.001800     NO 
 RMS     Displacement     0.041420     0.001200     NO 
 Predicted change in Energy=-5.563067D-04
 GradGradGradGradGradGradGradGradGradGradGradGradGradGradGradGradGradGrad

 Leave Link  103 at Sun Oct 13 09:48:02 2024, MaxMem=  2684354560 cpu:               1.9 elap:               0.1
 (Enter /usr/local/g16_AVX//g16/l9999.exe)

 ----------------------------------------------------------------------

 Electric dipole moment (input orientation):
 (Debye = 10**-18 statcoulomb cm , SI units = C m)
                  (au)            (Debye)         (10**-30 SI)
   Tot        0.229467D+01      0.583247D+01      0.194550D+02
   x          0.229467D+01      0.583247D+01      0.194550D+02
   y          0.988909D-04      0.251356D-03      0.838432D-03
   z          0.613099D-03      0.155834D-02      0.519807D-02

 Dipole polarizability, Alpha (input orientation).
 (esu units = cm**3 , SI units = C**2 m**2 J**-1)
 Alpha(0;0):
               (au)            (10**-24 esu)      (10**-40 SI)
   iso        0.539828D+02      0.799942D+01      0.890056D+01
   aniso      0.374412D+02      0.554821D+01      0.617321D+01
   xx         0.789435D+02      0.116982D+02      0.130160D+02
   yx        -0.991754D-03     -0.146963D-03     -0.163518D-03
   yy         0.415005D+02      0.614974D+01      0.684251D+01
   zx        -0.896468D-02     -0.132843D-02     -0.147808D-02
   zy         0.306996D-03      0.454921D-04      0.506168D-04
   zz         0.415043D+02      0.615030D+01      0.684313D+01

 ----------------------------------------------------------------------

 Dipole orientation:
     6         -0.00053461          0.00008297          1.45060311
    17         -0.00143853          0.00017015         -4.56357687
     1          1.93051201          0.00481766          0.72873163
     1         -0.97125845          1.67044835          0.73046121
     1         -0.96317569         -1.67449125          0.72993888
     6          0.00162491         -0.00024141          4.20023538
     7          0.00294108         -0.00034355          6.39621781

 Electric dipole moment (dipole orientation):
 (Debye = 10**-18 statcoulomb cm , SI units = C m)
                  (au)            (Debye)         (10**-30 SI)
   Tot        0.229467D+01      0.583247D+01      0.194550D+02
   x          0.000000D+00      0.000000D+00      0.000000D+00
   y          0.000000D+00      0.000000D+00      0.000000D+00
   z          0.229467D+01      0.583247D+01      0.194550D+02

 Dipole polarizability, Alpha (dipole orientation).
 (esu units = cm**3 , SI units = C**2 m**2 J**-1)
 Alpha(0;0):
               (au)            (10**-24 esu)      (10**-40 SI)
   iso        0.539828D+02      0.799942D+01      0.890056D+01
   aniso      0.374412D+02      0.554821D+01      0.617321D+01
   xx         0.415043D+02      0.615030D+01      0.684313D+01
   yx        -0.307915D-03     -0.456283D-04     -0.507683D-04
   yy         0.415005D+02      0.614974D+01      0.684251D+01
   zx         0.189680D-01      0.281076D-02      0.312739D-02
   zy        -0.260450D-02     -0.385947D-03     -0.429424D-03
   zz         0.789435D+02      0.116982D+02      0.130160D+02

 ----------------------------------------------------------------------
 1\1\GINC-NODO8\Freq\RB3LYP\6-31++G(d,p)\C2H3Cl1N1(1-)\ALANQF\13-Oct-20
 24\0\\#p b3lyp 6-31++g(d,p) scf=verytight NoSymm freq=noraman int=ultr
 afine\\RxCoord=-6.78699 DE=1.56\\-1,1\C,0.767626,0.000077,0.000488\Cl,
 -2.414941,-0.000014,0.000116\H,0.385901,0.002522,-1.02148\H,0.386368,0
 .884002,0.514033\H,0.386169,-0.886064,0.509832\C,2.222669,-0.000032,-0
 .000266\N,3.384733,-0.000036,-0.000652\\Version=ES64L-G16RevB.01\HF=-5
 93.0597207\RMSD=1.621e-09\RMSF=2.013e-03\ZeroPoint=0.0452594\Thermal=0
 .0495799\Dipole=2.3789481,0.0001105,0.0006676\DipoleDeriv=-0.1213019,-
 0.0000076,0.0000369,-0.0000148,0.0610285,0.0000268,0.0001341,0.0000268
 ,0.0608738,-1.0884485,0.0000023,0.0000051,0.0000048,-0.9273493,0.00000
 26,-0.0000251,0.0000026,-0.9273735,0.127692,-0.0000247,0.0151777,0.000
 0588,0.1093601,0.000205,-0.0179978,0.0002123,0.0181298,0.1276304,-0.01
 30525,-0.0075613,0.0156702,0.0409956,-0.0396845,0.0090627,-0.0397085,0
 .0863595,0.1277447,0.0131056,-0.0074976,-0.0156774,0.0406551,0.0394481
 ,0.0089878,0.0394648,0.0867446,0.5294796,-0.0000751,-0.000351,-0.00005
 13,0.0602295,0.0000027,-0.0003737,0.0000027,0.0601622,-0.7027963,0.000
 0518,0.0001904,0.0000098,-0.3849196,-0.0000007,0.000212,-0.0000007,-0.
 3848964\Polar=78.9435379,-0.0009918,41.5004811,-0.0089647,0.000307,41.
 5042717\Quadrupole=-25.6095145,12.8040252,12.8054894,0.0002222,0.00507
 12,0.00003\PG=C01 [X(C2H3Cl1N1)]\NImag=2\\0.48702854,0.00009309,0.5575
 3179,0.00000623,-0.00009936,0.55791329,-0.00723144,0.00000038,0.000002
 47,0.01238888,0.00000024,-0.00024711,0.00000004,0.00000034,-0.00030892
 ,0.00000012,0.00000005,-0.00024852,-0.00001683,0.00000003,-0.00030899,
 -0.07052367,0.00021667,-0.09078605,-0.00067254,0.00000232,-0.00097919,
 0.08325964,0.00021271,-0.04048912,0.00060679,0.00000327,-0.00104383,-0
 .00000381,-0.00023823,0.04283340,-0.08943805,0.00060926,-0.29422014,-0
 .00129732,-0.00000381,0.00053343,0.09951601,-0.00064858,0.31326527,-0.
 07041210,0.07831874,0.04548548,-0.00065744,0.00085313,0.00050033,0.004
 33151,-0.00949865,-0.00463081,0.08309793,0.07715773,-0.23011077,-0.110
 14279,0.00112450,0.00015229,0.00069054,-0.00078639,0.00050236,0.001285
 46,-0.08586215,0.24496922,0.04480889,-0.11014520,-0.10449729,0.0006586
 9,0.00069025,-0.00062956,0.01051858,-0.02409037,-0.01281056,-0.0498852
 5,0.11739084,0.11104639,-0.07045507,-0.07863737,0.04518326,-0.00065794
 ,-0.00085583,0.00049651,0.00433492,0.00952042,-0.00458832,0.00432937,0
 .00874281,-0.00589282,0.08314439,-0.07747667,-0.23123344,0.10963193,-0
 .00112807,0.00015832,-0.00068672,0.00073603,0.00039382,-0.00122324,-0.
 00871855,-0.01938942,0.01263036,0.08620075,0.24615265,0.04451336,0.109
 63191,-0.10349389,0.00065383,-0.00068642,-0.00063633,0.01052784,0.0241
 5201,-0.01270546,-0.00593668,-0.01275518,0.00705214,-0.04954856,-0.116
 83461,0.10997730,-0.25744927,0.00000899,0.00010310,-0.00058340,-0.0000
 0008,-0.00000041,-0.02114305,0.00000832,-0.00288554,-0.02110498,0.0024
 9526,0.00146176,-0.02111231,-0.00249318,0.00144668,1.55921528,0.000007
 97,-0.07729025,0.00000449,-0.00000062,0.00152294,-0.00000013,0.0000793
 2,-0.00335124,-0.00002564,0.02844970,0.00478990,0.00472467,-0.02852188
 ,0.00484460,-0.00470267,-0.00002258,0.10793471,0.00008978,0.00000445,-
 0.07729763,-0.00000277,-0.00000013,0.00152406,-0.03289250,-0.00002219,
 0.00755276,0.01652247,0.00473101,-0.00061961,0.01638855,-0.00471242,-0
 .00066337,-0.00052703,-0.00000065,0.10795794,-0.01095699,-0.00000051,0
 .00000552,-0.00258612,-0.00000013,-0.00000052,0.00041319,-0.00000784,0
 .00332403,0.00041570,-0.00287176,-0.00166984,0.00041664,0.00287969,-0.
 00165647,-1.23782227,0.00000810,0.00042151,1.25011984,0.00000493,0.021
 83890,-0.00000110,0.00000021,-0.00023369,0.00000004,-0.00000973,0.0011
 5462,0.00000656,-0.00354221,-0.00091356,-0.00120055,0.00355110,-0.0009
 2652,0.00119496,0.00000327,-0.03845066,-0.00000007,-0.00000757,0.01753
 090,0.00001968,-0.00000110,0.02184420,0.00000194,0.00000004,-0.0002340
 9,0.00409531,0.00000614,-0.00161530,-0.00205552,-0.00119988,0.00045850
 ,-0.00203861,0.00119470,0.00046963,0.00040144,-0.00000007,-0.03845415,
 -0.00042423,0.00000016,0.01753121\\-0.00384331,-0.00005267,-0.00004758
 ,0.00258348,0.00000010,0.00000075,0.00300177,0.00000158,-0.00116389,0.
 00292545,0.00102693,0.00064140,0.00294512,-0.00097669,0.00060469,-0.00
 234695,-0.00000181,-0.00005055,-0.00526556,0.00000256,0.00001518\\\@


 THE WORLD IS NOT A HAMBURGER - YOU CAN'T HAVE IT YOUR WAY.
 Job cpu time:       0 days  0 hours  4 minutes  4.5 seconds.
 Elapsed time:       0 days  0 hours  0 minutes 10.7 seconds.
 File lengths (MBytes):  RWF=     88 Int=      0 D2E=      0 Chk=      2 Scr=      2
 Normal termination of Gaussian 16 at Sun Oct 13 09:48:02 2024.
