RxCoord=-6.68710 DE=1.65                                                
Freq      RB3LYP                                                      6-31++G(d,p)        
Number of atoms                            I                7
Info1-9                                    I   N=           9
          16          16           0           0           0         100
           6          18        -502
Full Title                                 C   N=           2
RxCoord=-6.68710 DE=1.65
Route                                      C   N=           6
#p b3lyp 6-31++g(d,p) scf=verytight NoSymm freq=noraman int=
ultrafine   
Charge                                     I               -1
Multiplicity                               I                1
Number of electrons                        I               40
Number of alpha electrons                  I               20
Number of beta electrons                   I               20
Number of basis functions                  I               98
Number of independent functions            I               98
Number of point charges in /Mol/           I                0
Number of translation vectors              I                0
Atomic numbers                             I   N=           7
           6          17           1           1           1           6
           7
Nuclear charges                            R   N=           7
  6.00000000E+00  1.70000000E+01  1.00000000E+00  1.00000000E+00  1.00000000E+00
  6.00000000E+00  7.00000000E+00
Current cartesian coordinates              R   N=          21
  1.44024154E+00  2.77789740E-04  8.31479495E-04 -4.55117104E+00 -4.72431531E-05
  3.02356180E-04  7.18662845E-01  5.06446601E-03 -1.93081066E+00  7.21924512E-01
  1.67028735E+00  9.71135925E-01  7.19654951E-01 -1.67450333E+00  9.63741426E-01
  4.18954361E+00 -1.81413708E-04 -7.46441819E-04  6.38536190E+00 -2.64561657E-05
 -1.11871787E-03
Number of symbols in /Mol/                 I                0
Force Field                                I                0
Atom Types                                 C   N=           7
                                                            
                        
Int Atom Types                             I   N=           7
           0           0           0           0           0           0
           0
MM charges                                 R   N=           7
  0.00000000E+00  0.00000000E+00  0.00000000E+00  0.00000000E+00  0.00000000E+00
  0.00000000E+00  0.00000000E+00
Integer atomic weights                     I   N=           7
          12          35           1           1           1          12
          14
Real atomic weights                        R   N=           7
  1.20000000E+01  3.49688527E+01  1.00782504E+00  1.00782504E+00  1.00782504E+00
  1.20000000E+01  1.40030740E+01
Atom fragment info                         I   N=           7
           0           0           0           0           0           0
           0
Atom residue num                           I   N=           7
           0           0           0           0           0           0
           0
Nuclear spins                              I   N=           7
           0           3           1           1           1           0
           2
Nuclear ZEff                               R   N=           7
 -3.60000000E+00 -1.42400000E+01 -1.00000000E+00 -1.00000000E+00 -1.00000000E+00
 -3.60000000E+00 -4.55000000E+00
Nuclear ZNuc                               R   N=           7
  6.00000000E+00  1.70000000E+01  1.00000000E+00  1.00000000E+00  1.00000000E+00
  6.00000000E+00  7.00000000E+00
Nuclear QMom                               R   N=           7
  0.00000000E+00 -8.16500000E+00  0.00000000E+00  0.00000000E+00  0.00000000E+00
  0.00000000E+00  2.04400000E+00
Nuclear GFac                               R   N=           7
  0.00000000E+00  8.21874000E-01  2.79284600E+00  2.79284600E+00  2.79284600E+00
  0.00000000E+00  4.03761000E-01
MicOpt                                     I   N=           7
          -1          -1          -1          -1          -1          -1
          -1
Number of residues                         I                0
Number of secondary structures             I                0
Number of contracted shells                I               33
Number of primitive shells                 I               72
Pure/Cartesian d shells                    I                1
Pure/Cartesian f shells                    I                0
Highest angular momentum                   I                2
Largest degree of contraction              I                6
Shell types                                I   N=          33
           0          -1          -1          -1           2           0
          -1          -1          -1          -1           2           0
           0           0           1           0           0           0
           1           0           0           0           1           0
          -1          -1          -1           2           0          -1
          -1          -1           2
Number of primitives per shell             I   N=          33
           6           3           1           1           1           6
           6           3           1           1           1           3
           1           1           1           3           1           1
           1           3           1           1           1           6
           3           1           1           1           6           3
           1           1           1
Shell to atom map                          I   N=          33
           1           1           1           1           1           2
           2           2           2           2           2           3
           3           3           3           4           4           4
           4           5           5           5           5           6
           6           6           6           6           7           7
           7           7           7
Primitive exponents                        R   N=          72
  3.04752488E+03  4.57369518E+02  1.03948685E+02  2.92101553E+01  9.28666296E+00
  3.16392696E+00  7.86827235E+00  1.88128854E+00  5.44249258E-01  1.68714478E-01
  4.38000000E-02  8.00000000E-01  2.51801000E+04  3.78035000E+03  8.60474000E+02
  2.42145000E+02  7.73349000E+01  2.62470000E+01  4.91765000E+02  1.16984000E+02
  3.74153000E+01  1.37834000E+01  5.45215000E+00  2.22588000E+00  3.18649000E+00
  1.14427000E+00  4.20377000E-01  1.42657000E-01  4.83000000E-02  7.50000000E-01
  1.87311370E+01  2.82539436E+00  6.40121692E-01  1.61277759E-01  3.60000000E-02
  1.10000000E+00  1.87311370E+01  2.82539436E+00  6.40121692E-01  1.61277759E-01
  3.60000000E-02  1.10000000E+00  1.87311370E+01  2.82539436E+00  6.40121692E-01
  1.61277759E-01  3.60000000E-02  1.10000000E+00  3.04752488E+03  4.57369518E+02
  1.03948685E+02  2.92101553E+01  9.28666296E+00  3.16392696E+00  7.86827235E+00
  1.88128854E+00  5.44249258E-01  1.68714478E-01  4.38000000E-02  8.00000000E-01
  4.17351146E+03  6.27457911E+02  1.42902093E+02  4.02343293E+01  1.28202129E+01
  4.39043701E+00  1.16263619E+01  2.71627981E+00  7.72218397E-01  2.12031498E-01
  6.39000000E-02  8.00000000E-01
Contraction coefficients                   R   N=          72
  1.83473713E-03  1.40373228E-02  6.88426223E-02  2.32184443E-01  4.67941348E-01
  3.62311985E-01 -1.19332420E-01 -1.60854152E-01  1.14345644E+00  1.00000000E+00
  1.00000000E+00  1.00000000E+00  1.83295985E-03  1.40341988E-02  6.90973943E-02
  2.37451980E-01  4.83033960E-01  3.39855972E-01 -2.29739142E-03 -3.07137189E-02
 -1.12528069E-01  4.50163278E-02  5.89353363E-01  4.65206287E-01 -2.51828028E-01
  6.15892514E-02  1.06018433E+00  1.00000000E+00  1.00000000E+00  1.00000000E+00
  3.34946043E-02  2.34726953E-01  8.13757326E-01  1.00000000E+00  1.00000000E+00
  1.00000000E+00  3.34946043E-02  2.34726953E-01  8.13757326E-01  1.00000000E+00
  1.00000000E+00  1.00000000E+00  3.34946043E-02  2.34726953E-01  8.13757326E-01
  1.00000000E+00  1.00000000E+00  1.00000000E+00  1.83473713E-03  1.40373228E-02
  6.88426223E-02  2.32184443E-01  4.67941348E-01  3.62311985E-01 -1.19332420E-01
 -1.60854152E-01  1.14345644E+00  1.00000000E+00  1.00000000E+00  1.00000000E+00
  1.83477216E-03  1.39946270E-02  6.85865518E-02  2.32240873E-01  4.69069948E-01
  3.60455199E-01 -1.14961182E-01 -1.69117479E-01  1.14585195E+00  1.00000000E+00
  1.00000000E+00  1.00000000E+00
P(S=P) Contraction coefficients            R   N=          72
  0.00000000E+00  0.00000000E+00  0.00000000E+00  0.00000000E+00  0.00000000E+00
  0.00000000E+00  6.89990666E-02  3.16423961E-01  7.44308291E-01  1.00000000E+00
  1.00000000E+00  0.00000000E+00  0.00000000E+00  0.00000000E+00  0.00000000E+00
  0.00000000E+00  0.00000000E+00  0.00000000E+00  3.98940088E-03  3.03177067E-02
  1.29880029E-01  3.27951072E-01  4.53527100E-01  2.52154056E-01 -1.42993147E-02
  3.23572333E-01  7.43507765E-01  1.00000000E+00  1.00000000E+00  0.00000000E+00
  0.00000000E+00  0.00000000E+00  0.00000000E+00  0.00000000E+00  0.00000000E+00
  0.00000000E+00  0.00000000E+00  0.00000000E+00  0.00000000E+00  0.00000000E+00
  0.00000000E+00  0.00000000E+00  0.00000000E+00  0.00000000E+00  0.00000000E+00
  0.00000000E+00  0.00000000E+00  0.00000000E+00  0.00000000E+00  0.00000000E+00
  0.00000000E+00  0.00000000E+00  0.00000000E+00  0.00000000E+00  6.89990666E-02
  3.16423961E-01  7.44308291E-01  1.00000000E+00  1.00000000E+00  0.00000000E+00
  0.00000000E+00  0.00000000E+00  0.00000000E+00  0.00000000E+00  0.00000000E+00
  0.00000000E+00  6.75797439E-02  3.23907296E-01  7.40895140E-01  1.00000000E+00
  1.00000000E+00  0.00000000E+00
Coordinates of each shell                  R   N=          99
  1.44024154E+00  2.77789740E-04  8.31479495E-04  1.44024154E+00  2.77789740E-04
  8.31479495E-04  1.44024154E+00  2.77789740E-04  8.31479495E-04  1.44024154E+00
  2.77789740E-04  8.31479495E-04  1.44024154E+00  2.77789740E-04  8.31479495E-04
 -4.55117104E+00 -4.72431531E-05  3.02356180E-04 -4.55117104E+00 -4.72431531E-05
  3.02356180E-04 -4.55117104E+00 -4.72431531E-05  3.02356180E-04 -4.55117104E+00
 -4.72431531E-05  3.02356180E-04 -4.55117104E+00 -4.72431531E-05  3.02356180E-04
 -4.55117104E+00 -4.72431531E-05  3.02356180E-04  7.18662845E-01  5.06446601E-03
 -1.93081066E+00  7.18662845E-01  5.06446601E-03 -1.93081066E+00  7.18662845E-01
  5.06446601E-03 -1.93081066E+00  7.18662845E-01  5.06446601E-03 -1.93081066E+00
  7.21924512E-01  1.67028735E+00  9.71135925E-01  7.21924512E-01  1.67028735E+00
  9.71135925E-01  7.21924512E-01  1.67028735E+00  9.71135925E-01  7.21924512E-01
  1.67028735E+00  9.71135925E-01  7.19654951E-01 -1.67450333E+00  9.63741426E-01
  7.19654951E-01 -1.67450333E+00  9.63741426E-01  7.19654951E-01 -1.67450333E+00
  9.63741426E-01  7.19654951E-01 -1.67450333E+00  9.63741426E-01  4.18954361E+00
 -1.81413708E-04 -7.46441819E-04  4.18954361E+00 -1.81413708E-04 -7.46441819E-04
  4.18954361E+00 -1.81413708E-04 -7.46441819E-04  4.18954361E+00 -1.81413708E-04
 -7.46441819E-04  4.18954361E+00 -1.81413708E-04 -7.46441819E-04  6.38536190E+00
 -2.64561657E-05 -1.11871787E-03  6.38536190E+00 -2.64561657E-05 -1.11871787E-03
  6.38536190E+00 -2.64561657E-05 -1.11871787E-03  6.38536190E+00 -2.64561657E-05
 -1.11871787E-03  6.38536190E+00 -2.64561657E-05 -1.11871787E-03
Num ILSW                                   I              100
ILSW                                       I   N=         100
           0           1           0           0           2           0
           0           0           0           0         402          -1
           5           0           0           0           2           0
           0           0           0           0           1           0
           1           1           0           0           0           0
           0           0      100000           0          -1           0
           0           0           0           0           0           0
           0           0           0           1           0           0
           0 -2000000000           1           0           0           0
           0           0           4          52           0           0
           0           0           5           0           0           0
           0           0           0           7           0           1
           0           0           0           0           0           0
           0           0           0           0           0           0
           0           0           0           0           0           0
           0           0           0           0           0           0
           0           0           0           0
Num RLSW                                   I               52
RLSW                                       R   N=          52
  8.00000000E-01  7.20000000E-01  1.00000000E+00  8.10000000E-01  2.00000000E-01
  0.00000000E+00  0.00000000E+00  1.00000000E+00  0.00000000E+00  0.00000000E+00
  0.00000000E+00  0.00000000E+00  1.00000000E+00  0.00000000E+00  0.00000000E+00
  0.00000000E+00  0.00000000E+00  1.00000000E+00  0.00000000E+00  0.00000000E+00
  0.00000000E+00  0.00000000E+00  1.00000000E+00  0.00000000E+00  0.00000000E+00
  0.00000000E+00  0.00000000E+00  1.00000000E+00  0.00000000E+00  0.00000000E+00
  0.00000000E+00  0.00000000E+00  1.00000000E+00  0.00000000E+00  0.00000000E+00
  0.00000000E+00  0.00000000E+00  0.00000000E+00  1.00000000E+00  1.00000000E+00
  0.00000000E+00  1.00000000E+00  0.00000000E+00  0.00000000E+00  0.00000000E+00
  0.00000000E+00  0.00000000E+00  0.00000000E+00  0.00000000E+00  0.00000000E+00
  0.00000000E+00  0.00000000E+00
MxBond                                     I                4
NBond                                      I   N=           7
           4           0           1           1           1           2
           1
IBond                                      I   N=          28
           3           4           5           6           0           0
           0           0           1           0           0           0
           1           0           0           0           1           0
           0           0           1           7           0           0
           6           0           0           0
RBond                                      R   N=          28
  1.00000000E+00  1.00000000E+00  1.00000000E+00  1.00000000E+00  0.00000000E+00
  0.00000000E+00  0.00000000E+00  0.00000000E+00  1.00000000E+00  0.00000000E+00
  0.00000000E+00  0.00000000E+00  1.00000000E+00  0.00000000E+00  0.00000000E+00
  0.00000000E+00  1.00000000E+00  0.00000000E+00  0.00000000E+00  0.00000000E+00
  1.00000000E+00  3.00000000E+00  0.00000000E+00  0.00000000E+00  3.00000000E+00
  0.00000000E+00  0.00000000E+00  0.00000000E+00
Virial Ratio                               R      2.004666093990161E+00
SCF Energy                                 R     -5.930596479762539E+02
Total Energy                               R     -5.930596479762539E+02
RMS Force                                  R      2.093774272967750E-03
RMS Density                                R      1.642528484367869E-09
NImag                                      I                2
Job Status                                 I                1
Nuclear derivative order                   I                2
External E-field                           R   N=          35
  0.00000000E+00  0.00000000E+00  0.00000000E+00  0.00000000E+00  0.00000000E+00
  0.00000000E+00  0.00000000E+00  0.00000000E+00  0.00000000E+00  0.00000000E+00
  0.00000000E+00  0.00000000E+00  0.00000000E+00  0.00000000E+00  0.00000000E+00
  0.00000000E+00  0.00000000E+00  0.00000000E+00  0.00000000E+00  0.00000000E+00
  0.00000000E+00  0.00000000E+00  0.00000000E+00  0.00000000E+00  0.00000000E+00
  0.00000000E+00  0.00000000E+00  0.00000000E+00  0.00000000E+00  0.00000000E+00
  0.00000000E+00  0.00000000E+00  0.00000000E+00  0.00000000E+00  0.00000000E+00
IOpCl                                      I                0
IROHF                                      I                0
Alpha Orbital Energies                     R   N=          98
 -1.01254997E+02 -1.42260590E+01 -1.01229386E+01 -1.00927638E+01 -9.16855659E+00
 -6.92640572E+00 -6.92640530E+00 -6.92618386E+00 -7.96218684E-01 -6.41179404E-01
 -5.07385190E-01 -3.78604428E-01 -3.24515780E-01 -3.24424311E-01 -2.56929044E-01
 -2.14896980E-01 -2.14882510E-01 -5.36072682E-02 -5.32441342E-02 -5.32421854E-02
  1.02092370E-01  1.37677215E-01  1.37695859E-01  1.43803407E-01  1.48984936E-01
  1.48993618E-01  1.99836395E-01  2.06648328E-01  2.06661157E-01  2.19401195E-01
  2.33001931E-01  2.33015331E-01  2.54428826E-01  2.60010888E-01  2.60020352E-01
  2.95872236E-01  3.28614193E-01  3.37553411E-01  3.37563699E-01  3.45886949E-01
  3.45936398E-01  3.55243763E-01  3.94564011E-01  4.12105972E-01  4.86505464E-01
  6.90007294E-01  7.88782219E-01  7.88788124E-01  8.47531560E-01  8.47712367E-01
  8.51139342E-01  8.51173445E-01  8.58410067E-01  8.91867158E-01  9.85685737E-01
  1.02666604E+00  1.02677949E+00  1.03713038E+00  1.09784570E+00  1.12233538E+00
  1.12236377E+00  1.15334917E+00  1.15335111E+00  1.15969195E+00  1.15972037E+00
  1.21860496E+00  1.26211711E+00  1.28047519E+00  1.45582831E+00  1.45588235E+00
  1.54239987E+00  1.62819661E+00  1.62820506E+00  1.86515832E+00  1.86527889E+00
  1.91235621E+00  2.05534626E+00  2.05544991E+00  2.15096525E+00  2.23975515E+00
  2.24058308E+00  2.31748824E+00  2.40001791E+00  2.40013013E+00  2.78537978E+00
  2.80469426E+00  2.80526964E+00  3.05790507E+00  3.09407856E+00  3.09432684E+00
  3.28773668E+00  3.45723277E+00  3.55497103E+00  3.55576444E+00  4.25642629E+00
  4.44773120E+00  4.58267283E+00  4.81301709E+00
Alpha MO coefficients                      R   N=        9604
  1.12201661E-06  1.65142222E-05 -2.97715839E-06  8.30535105E-09  9.41538204E-09
 -6.52101324E-05 -3.40747278E-05  1.51339487E-08  4.70241857E-08  1.47835149E-03
  5.41552062E-04 -5.73067856E-08 -2.47484289E-07 -1.52345028E-05  2.84588343E-06
  2.83332229E-06  4.38597112E-09  6.71096763E-09  5.35096327E-09  9.95997931E-01
  1.51397717E-02  4.00344727E-06 -1.18917334E-09  8.62118053E-10 -2.10656928E-02
 -1.10272520E-05  1.70255917E-09  2.40710124E-10  1.98524431E-03  2.78980026E-05
 -3.23298763E-09 -1.09962084E-09 -2.94365774E-04 -1.89652024E-05  1.26826601E-08
  2.79545297E-08  7.50334675E-03  7.50366437E-03  7.50366427E-03  5.31099459E-11
  6.75641399E-10 -4.39943713E-11  4.56053421E-06 -2.67992845E-05  6.71921326E-05
  6.20226409E-06  1.43223353E-08 -5.01710018E-06  4.59108746E-06 -2.68399533E-05
  6.71863855E-05  6.13804942E-06  4.34000590E-06  2.52321562E-06  4.56916973E-06
 -2.68087693E-05  6.71886270E-05  6.18162566E-06 -4.34836554E-06  2.50384995E-06
  3.25156458E-07 -2.17371729E-06  1.52348467E-06  2.68660225E-10  2.93211634E-09
 -8.36995176E-05 -1.36035959E-04  5.13767131E-09  3.15994660E-08 -1.79507835E-03
  4.62346458E-04 -1.41556407E-07 -4.05883663E-07  5.44663527E-06  1.25110430E-06
  1.25123011E-06 -1.50826296E-09 -4.81059659E-09  3.82802208E-10 -1.47715669E-06
 -7.62092126E-06  1.61948784E-06  2.76422725E-09  4.04125429E-09  1.14958508E-04
 -5.07558502E-05 -1.74673359E-08 -1.08441096E-08  2.00881329E-04 -9.61877950E-05
  3.53744815E-08  1.10378498E-07 -9.58464164E-07 -2.79474305E-06 -2.79492150E-06
  1.23189607E-09 -6.17987440E-10  2.12614630E-11  9.58354051E-06 -1.87580827E-04
  2.71808641E-04 -6.91042603E-08 -1.68173396E-07  1.01230834E-03  6.66763420E-04
 -2.14534376E-07 -5.59867798E-07  1.08371962E-02  3.03535407E-03 -4.35189321E-07
 -1.40792066E-06  4.75288407E-04  2.68290397E-05  2.68519251E-05 -1.37865268E-07
 -4.07413103E-07 -1.81362617E-08 -9.10199098E-09 -1.96297900E-06  4.78006398E-06
  4.32059394E-10  2.08930072E-09  1.57922996E-06 -2.84416877E-05 -2.13215504E-09
 -1.07425627E-08 -2.36188875E-05  7.70082274E-05  1.83369620E-10  1.30918624E-08
  4.53561046E-04  1.31003678E-04  6.56106448E-08  1.57512287E-07  1.64186771E-06
 -1.03469554E-05 -1.03452747E-05  2.79794362E-09  8.30652736E-09 -5.09329851E-10
  9.75640877E-08 -6.20211168E-05 -1.97940946E-04 -3.34871037E-06  1.05136293E-08
 -1.60559513E-06  1.22648916E-07 -6.19025041E-05 -1.98241597E-04 -3.29301749E-06
  1.38266560E-06  8.12910751E-07  1.03608904E-07 -6.19653109E-05 -1.97959925E-04
 -3.33376319E-06 -1.41194104E-06  8.28872713E-07  7.81024377E-05  3.29733115E-04
 -5.57905400E-04 -4.58628630E-08  8.94377589E-08 -1.72889032E-05  1.37872470E-03
 -1.46918834E-07 -6.79897143E-07 -8.58955173E-03  4.45898116E-03 -6.02990569E-07
 -2.61103579E-06 -1.44605996E-03  1.98633730E-05  1.98657505E-05 -3.07104227E-08
  4.42817310E-07  1.11012547E-09  9.92763714E-01  3.47235582E-02 -2.14195827E-03
 -1.81612993E-07  2.62884580E-07  3.53884311E-03  8.34487436E-04  1.06073754E-07
 -3.95569494E-08 -3.30334819E-03 -4.63269581E-04  2.03501547E-07  5.94016689E-07
 -7.31348897E-03 -8.36414822E-03 -8.36414970E-03  9.46500601E-08 -1.94458405E-07
  1.05163252E-09  5.56346660E-03  8.66902661E-05 -4.38030339E-04  5.36477447E-11
  2.61931419E-07  7.28610107E-03  2.71023988E-03 -5.55308065E-07 -1.55121941E-06
  8.47085549E-02  3.10619051E-02 -3.75747352E-06 -1.29511729E-05 -1.00807585E-03
 -1.97487375E-04 -1.97345806E-04  1.76722217E-07  5.78068907E-07 -1.27753765E-07
 -1.27265127E-07 -4.82455593E-06  2.55475705E-05  3.22598839E-09  1.71494750E-08
 -3.75912881E-06 -1.57360839E-04 -1.68550137E-08 -9.30894537E-08 -2.33769909E-04
  5.69583643E-04  2.36508158E-08  1.64714858E-07  5.36966023E-03  1.95804313E-03
  5.41296447E-07  1.37491342E-06  2.89091045E-05 -3.62443686E-05 -3.62323953E-05
  2.03253777E-08  7.01836149E-08 -4.27175776E-09 -1.22695786E-04 -6.93915094E-04
  3.20794666E-04  3.94003693E-05 -3.93730273E-08  1.55153769E-05 -1.22403562E-04
 -6.94715283E-04  3.25276398E-04  3.96444266E-05 -1.36843849E-05 -7.95903615E-06
 -1.22717476E-04 -6.94298692E-04  3.23440535E-04  3.91335626E-05  1.35447252E-05
 -7.79630984E-06  9.92775831E-01  5.04438354E-02  2.65941444E-04  3.41740073E-07
  3.47252185E-07 -1.06565097E-02  7.72584674E-03 -9.06201055E-07 -4.05458806E-06
 -9.47612930E-02  2.63971614E-02 -7.35878647E-06 -2.30375242E-05 -7.82208348E-03
 -9.88836505E-03 -9.88835626E-03 -4.17807778E-08 -6.94124953E-07  1.38472623E-08
 -4.68767077E-04  3.55183446E-04  3.38210646E-04  7.66584211E-08  6.13129708E-08
 -7.95973860E-03  3.26063105E-03  3.99803169E-07 -3.20148323E-07  8.55986068E-03
 -6.61848338E-03  1.90846686E-06  6.47293392E-06 -3.38027925E-05  3.40690112E-04
  3.40692410E-04 -1.81632388E-07 -2.23151887E-07 -1.30414532E-09  9.93015539E-01
  5.06666836E-02  7.65914520E-04  5.60491793E-07  4.95113526E-07 -2.45691137E-02
 -4.58677453E-03 -1.38504347E-06 -5.17760283E-07  4.87379343E-02  2.10034418E-02
 -1.62686138E-06 -1.00513747E-05 -8.94273170E-03 -8.87188870E-03 -8.87204174E-03
 -3.93909029E-08 -6.32183508E-08  3.16986780E-07  1.29378171E-06  1.64072377E-05
  5.02724612E-06  1.36696673E-08  1.37686270E-08  6.41115300E-05 -2.86841287E-05
 -8.14150623E-08 -8.61266559E-08 -3.85833427E-04  1.88243836E-04  2.05724415E-07
  2.79251590E-07  4.42648608E-03  1.67821488E-03  3.90508145E-07  8.92786336E-07
  1.48213404E-05  2.68711559E-05  2.68481012E-05  5.17630926E-08  8.11283719E-08
  1.17907363E-08  3.44618869E-06  3.19823902E-03  2.96639114E-04  2.62231392E-05
  4.11686843E-07 -1.20597499E-04  3.00935816E-06  3.20474235E-03  3.02763716E-04
  2.63168416E-05  1.03950499E-04  6.03465055E-05  3.40286169E-06  3.20037661E-03
  3.01930096E-04  2.65179796E-05 -1.04485444E-04  6.01529287E-05 -5.86220228E-03
 -4.20116169E-04  2.72039797E-04  7.97198454E-08 -9.54371952E-08  3.50957285E-03
 -9.45611104E-03  5.31104312E-07  4.77567462E-06 -5.72986698E-02  1.45253067E-02
 -5.57432374E-06 -1.36220149E-05 -8.37988683E-04 -9.96488416E-07 -9.52655447E-07
  1.10700979E-07  3.92214632E-07 -8.38255093E-08 -1.76470442E-05 -4.66194634E-05
 -2.49466467E-04  2.01800036E-08  1.81436727E-07  5.33252249E-03 -1.75489695E-03
 -7.81314267E-07 -1.32624361E-06  5.08812477E-03 -2.63415255E-03  1.73053574E-06
  3.70582073E-06  1.48487384E-04 -7.41096980E-05 -7.41032195E-05  1.30713670E-07
  2.17236766E-07  2.40411501E-09  5.50177037E-05  3.47317881E-04  2.06548443E-04
 -3.69986904E-08 -5.43492427E-08 -5.14789872E-03 -4.32540742E-03  1.97957314E-06
  4.38604794E-06  1.09782297E-02  6.73075316E-03 -4.57190617E-07  1.01698508E-06
 -1.71700053E-04  9.44274538E-05  9.42776124E-05 -2.58503900E-08  9.82802472E-08
  5.77189653E-08 -2.84640503E-01  1.02266402E+00  1.95937301E-04 -1.34340124E-07
  6.77884887E-08  7.50752995E-02  4.47690906E-04 -7.12262461E-09  7.14384392E-08
 -2.10616673E-02 -1.32289568E-03  2.44204336E-08 -8.00383631E-08  1.18564063E-02
  3.83873903E-03 -2.79986976E-07 -3.04582242E-07 -1.56487168E-02 -1.56191667E-02
 -1.56191221E-02 -2.22416449E-08  3.54625744E-10 -1.35879877E-08 -2.76729952E-05
 -6.94533964E-04 -2.76876323E-03  1.18132507E-04  3.63198781E-08 -5.17035526E-05
 -2.71572405E-05 -7.00171600E-04 -2.76254295E-03  1.18530218E-04  4.51235107E-05
  2.60838556E-05 -2.75534330E-05 -6.97303882E-04 -2.76587383E-03  1.18327164E-04
 -4.50746713E-05  2.56762429E-05 -4.64888481E-05 -2.91041162E-04 -2.48155500E-05
 -3.48406187E-08  4.98624485E-09  1.64647428E-04 -6.82734454E-03  5.38943469E-07
  2.57663454E-06 -5.72277605E-03  8.28062591E-04 -6.15174174E-07 -4.12028963E-06
  9.68182526E-05 -4.42079171E-05 -4.42477159E-05 -5.99075221E-08 -1.35343450E-07
  2.44885514E-08 -1.22247823E-04 -4.94573139E-04  2.68103965E-05  6.08967208E-08
  1.04494424E-07  6.43343269E-03 -1.95833311E-03 -5.76026057E-07 -4.12192133E-07
 -1.93180199E-03  9.89478982E-04  1.01169333E-07  7.95112029E-07 -1.89975749E-04
 -2.41060469E-04 -2.41051324E-04  6.16013118E-08  7.11878666E-08 -2.40641830E-09
 -2.54131592E-08 -7.63522995E-08 -6.93469429E-09  3.96192537E-06 -1.39696220E-05
 -2.53126446E-06 -3.52002743E-06  1.65580245E-04 -5.83294816E-04 -9.19017969E-05
 -3.67428580E-05 -9.94289962E-05  3.51805455E-04 -1.19786787E-07 -3.76626858E-05
  3.75762753E-05 -9.81466864E-06  3.45811946E-05  1.20099242E-05  4.31174696E-08
 -1.19302521E-07  7.91970648E-05 -2.70696996E-01  9.53132229E-01  2.75798449E-08
  2.65775740E-06 -8.09271636E-03  2.84947341E-02 -1.93687681E-07 -1.87780465E-06
  3.11902131E-03 -1.09822711E-02 -6.78032428E-06 -2.13705019E-06 -1.33232911E-03
  4.69145337E-03  2.71306906E-08  3.00801800E-06 -2.71677090E-06 -1.12770145E-05
  3.97187935E-05 -9.37666122E-07  1.49164948E-04 -1.02309892E-03  4.05445939E-03
  1.24366699E-05 -3.45568909E-06 -1.09417946E-04 -3.80494385E-05  2.60313707E-04
 -1.04260965E-03 -3.03476853E-06 -3.08018822E-05 -2.57441235E-06 -1.10809396E-04
  7.58503970E-04 -3.01861235E-03 -9.06638243E-06  7.51929601E-05 -3.21851547E-05
 -1.13397691E-07 -5.33138269E-07  1.70645398E-09 -1.09935839E-05  3.87806307E-05
 -6.41424262E-07 -7.05044024E-06  1.64606000E-05 -5.83671551E-05  1.09243127E-04
 -3.22217820E-05 -3.13763346E-04  1.10578875E-03 -1.74644725E-07 -5.60640435E-06
  5.34733070E-06  4.89402778E-06 -1.72424301E-05  1.74290381E-06 -1.31989549E-07
 -5.69202145E-07  3.91015190E-08  2.95264449E-06 -1.04207496E-05  7.31022125E-06
 -2.92687752E-06 -1.87657323E-05  6.62823966E-05 -4.00521467E-06  5.41805843E-06
  1.13363424E-04 -3.99583500E-04 -4.58958933E-08  2.88540276E-06 -3.44481766E-06
  2.04847240E-06 -7.24290828E-06 -1.01090496E-06 -8.59206314E-08 -5.05120031E-07
 -2.57719120E-08 -1.42919239E-05 -4.06455853E-06  3.27984413E-06 -7.16828838E-07
 -5.80427468E-04 -1.64926578E-04 -1.03650428E-05 -8.07649892E-06  3.48736281E-04
  9.95261960E-05 -2.37647103E-08 -1.04272807E-05  1.03005927E-05  3.42886120E-05
  9.74479269E-06 -4.33004000E-05 -6.64033488E-08  2.03772732E-07 -3.67628425E-04
  9.53132232E-01  2.70697022E-01 -1.51156684E-07 -1.10687166E-05  2.84943784E-02
  8.09263729E-03  6.48400502E-07  4.21052922E-06 -1.09813514E-02 -3.11881920E-03
 -3.56365213E-06 -3.05426914E-06  4.68942341E-03  1.33191417E-03 -7.14945221E-08
  7.44296588E-07 -8.20455871E-07  3.97223890E-05  1.12849368E-05  3.35329619E-06
  4.21405537E-05 -2.89386451E-04  1.13869755E-03  3.51521785E-06  1.31659384E-05
 -3.08134867E-05 -1.49972351E-04  1.02388273E-03 -4.07772975E-03 -1.22721676E-05
 -9.31730102E-05 -5.79873005E-05  1.08425222E-04 -7.41922330E-04  2.93372211E-03
  8.98031129E-06 -6.38808462E-05  4.79234032E-05  5.26297890E-09  2.09283936E-08
 -1.26542829E-08  3.87382161E-05  1.10226390E-05 -2.07136520E-06 -5.17661152E-07
 -5.87866657E-05 -1.68142843E-05  2.34707263E-05 -6.09878000E-06  1.10295258E-03
  3.13523447E-04 -5.89537569E-08 -1.47774683E-06  1.54339825E-06 -1.71525612E-05
 -4.87424576E-06 -6.29094641E-06 -5.92477908E-08 -2.21396642E-07  1.20721941E-08
 -1.03867829E-05 -2.95684687E-06  2.09110865E-06 -8.33878688E-07  6.61538828E-05
  1.88477112E-05 -2.67549458E-06  1.72599362E-06 -3.97701817E-04 -1.13068107E-04
 -4.02248661E-08  7.30205390E-07 -1.02122237E-06 -7.26953924E-06 -2.07332986E-06
  3.66037126E-06  8.25119184E-06  2.21359361E-04  2.36009918E-04 -5.29103013E-08
 -1.16435211E-07 -6.68021268E-03 -6.06626930E-03  1.49902655E-06  5.11297594E-06
 -1.09067718E-01 -4.28866929E-02  4.94355020E-06  1.75091720E-05 -2.93605889E-04
 -4.65726502E-05 -4.66500860E-05 -2.10547673E-08  1.15113851E-07 -3.00735696E-08
  9.51934486E-05 -1.93351725E-04  9.90709508E-01  3.75300229E-04  2.41584293E-05
  3.96641429E-04  3.02667587E-02  1.12790954E-05  9.32962048E-07 -1.71656914E-03
 -1.33213504E-02 -4.46565434E-06 -6.50530694E-07 -5.53013128E-03  2.57875505E-03
  1.05103181E-06 -1.80267215E-06  1.71024680E-04  2.93897009E-04  2.93898766E-04
 -4.21638186E-08 -8.72107993E-08  1.17816386E-09 -1.45021625E-04 -1.30141368E-04
 -2.51618205E-03  1.61637990E-04 -6.97543962E-08 -1.03497438E-05 -1.44566336E-04
 -1.34786322E-04 -2.52314033E-03  1.62677828E-04  9.34814732E-06  5.22221282E-06
 -1.44969269E-04 -1.33326161E-04 -2.51732479E-03  1.62144030E-04 -9.33155359E-06
  5.04623571E-06 -1.58315885E-04 -7.76488620E-04  1.79014133E-05 -1.64701463E-07