RxCoord=-6.58923 DE=1.74                                                
Freq      RB3LYP                                                      6-31++G(d,p)        
Number of atoms                            I                7
Info1-9                                    I   N=           9
          16          16           0           0           0         100
           6          18        -502
Full Title                                 C   N=           2
RxCoord=-6.58923 DE=1.74
Route                                      C   N=           6
#p b3lyp 6-31++g(d,p) scf=verytight NoSymm freq=noraman int=
ultrafine   
Charge                                     I               -1
Multiplicity                               I                1
Number of electrons                        I               40
Number of alpha electrons                  I               20
Number of beta electrons                   I               20
Number of basis functions                  I               98
Number of independent functions            I               98
Number of point charges in /Mol/           I                0
Number of translation vectors              I                0
Atomic numbers                             I   N=           7
           6          17           1           1           1           6
           7
Nuclear charges                            R   N=           7
  6.00000000E+00  1.70000000E+01  1.00000000E+00  1.00000000E+00  1.00000000E+00
  6.00000000E+00  7.00000000E+00
Current cartesian coordinates              R   N=          21
  1.43066630E+00 -6.99198666E-05  4.42195913E-04 -4.53911459E+00  2.64561657E-05
  4.23298652E-04  7.15232992E-01  5.75232632E-03 -1.92892093E+00  7.04882962E-01
  1.67258148E+00  9.72513535E-01  7.14994887E-01 -1.67300666E+00  9.63560013E-01
  4.17877406E+00 -6.44396608E-04 -1.26611650E-03  6.37449786E+00  1.60626721E-04
 -8.65494565E-04
Number of symbols in /Mol/                 I                0
Force Field                                I                0
Atom Types                                 C   N=           7
                                                            
                        
Int Atom Types                             I   N=           7
           0           0           0           0           0           0
           0
MM charges                                 R   N=           7
  0.00000000E+00  0.00000000E+00  0.00000000E+00  0.00000000E+00  0.00000000E+00
  0.00000000E+00  0.00000000E+00
Integer atomic weights                     I   N=           7
          12          35           1           1           1          12
          14
Real atomic weights                        R   N=           7
  1.20000000E+01  3.49688527E+01  1.00782504E+00  1.00782504E+00  1.00782504E+00
  1.20000000E+01  1.40030740E+01
Atom fragment info                         I   N=           7
           0           0           0           0           0           0
           0
Atom residue num                           I   N=           7
           0           0           0           0           0           0
           0
Nuclear spins                              I   N=           7
           0           3           1           1           1           0
           2
Nuclear ZEff                               R   N=           7
 -3.60000000E+00 -1.42400000E+01 -1.00000000E+00 -1.00000000E+00 -1.00000000E+00
 -3.60000000E+00 -4.55000000E+00
Nuclear ZNuc                               R   N=           7
  6.00000000E+00  1.70000000E+01  1.00000000E+00  1.00000000E+00  1.00000000E+00
  6.00000000E+00  7.00000000E+00
Nuclear QMom                               R   N=           7
  0.00000000E+00 -8.16500000E+00  0.00000000E+00  0.00000000E+00  0.00000000E+00
  0.00000000E+00  2.04400000E+00
Nuclear GFac                               R   N=           7
  0.00000000E+00  8.21874000E-01  2.79284600E+00  2.79284600E+00  2.79284600E+00
  0.00000000E+00  4.03761000E-01
MicOpt                                     I   N=           7
          -1          -1          -1          -1          -1          -1
          -1
Number of residues                         I                0
Number of secondary structures             I                0
Number of contracted shells                I               33
Number of primitive shells                 I               72
Pure/Cartesian d shells                    I                1
Pure/Cartesian f shells                    I                0
Highest angular momentum                   I                2
Largest degree of contraction              I                6
Shell types                                I   N=          33
           0          -1          -1          -1           2           0
          -1          -1          -1          -1           2           0
           0           0           1           0           0           0
           1           0           0           0           1           0
          -1          -1          -1           2           0          -1
          -1          -1           2
Number of primitives per shell             I   N=          33
           6           3           1           1           1           6
           6           3           1           1           1           3
           1           1           1           3           1           1
           1           3           1           1           1           6
           3           1           1           1           6           3
           1           1           1
Shell to atom map                          I   N=          33
           1           1           1           1           1           2
           2           2           2           2           2           3
           3           3           3           4           4           4
           4           5           5           5           5           6
           6           6           6           6           7           7
           7           7           7
Primitive exponents                        R   N=          72
  3.04752488E+03  4.57369518E+02  1.03948685E+02  2.92101553E+01  9.28666296E+00
  3.16392696E+00  7.86827235E+00  1.88128854E+00  5.44249258E-01  1.68714478E-01
  4.38000000E-02  8.00000000E-01  2.51801000E+04  3.78035000E+03  8.60474000E+02
  2.42145000E+02  7.73349000E+01  2.62470000E+01  4.91765000E+02  1.16984000E+02
  3.74153000E+01  1.37834000E+01  5.45215000E+00  2.22588000E+00  3.18649000E+00
  1.14427000E+00  4.20377000E-01  1.42657000E-01  4.83000000E-02  7.50000000E-01
  1.87311370E+01  2.82539436E+00  6.40121692E-01  1.61277759E-01  3.60000000E-02
  1.10000000E+00  1.87311370E+01  2.82539436E+00  6.40121692E-01  1.61277759E-01
  3.60000000E-02  1.10000000E+00  1.87311370E+01  2.82539436E+00  6.40121692E-01
  1.61277759E-01  3.60000000E-02  1.10000000E+00  3.04752488E+03  4.57369518E+02
  1.03948685E+02  2.92101553E+01  9.28666296E+00  3.16392696E+00  7.86827235E+00
  1.88128854E+00  5.44249258E-01  1.68714478E-01  4.38000000E-02  8.00000000E-01
  4.17351146E+03  6.27457911E+02  1.42902093E+02  4.02343293E+01  1.28202129E+01
  4.39043701E+00  1.16263619E+01  2.71627981E+00  7.72218397E-01  2.12031498E-01
  6.39000000E-02  8.00000000E-01
Contraction coefficients                   R   N=          72
  1.83473713E-03  1.40373228E-02  6.88426223E-02  2.32184443E-01  4.67941348E-01
  3.62311985E-01 -1.19332420E-01 -1.60854152E-01  1.14345644E+00  1.00000000E+00
  1.00000000E+00  1.00000000E+00  1.83295985E-03  1.40341988E-02  6.90973943E-02
  2.37451980E-01  4.83033960E-01  3.39855972E-01 -2.29739142E-03 -3.07137189E-02
 -1.12528069E-01  4.50163278E-02  5.89353363E-01  4.65206287E-01 -2.51828028E-01
  6.15892514E-02  1.06018433E+00  1.00000000E+00  1.00000000E+00  1.00000000E+00
  3.34946043E-02  2.34726953E-01  8.13757326E-01  1.00000000E+00  1.00000000E+00
  1.00000000E+00  3.34946043E-02  2.34726953E-01  8.13757326E-01  1.00000000E+00
  1.00000000E+00  1.00000000E+00  3.34946043E-02  2.34726953E-01  8.13757326E-01
  1.00000000E+00  1.00000000E+00  1.00000000E+00  1.83473713E-03  1.40373228E-02
  6.88426223E-02  2.32184443E-01  4.67941348E-01  3.62311985E-01 -1.19332420E-01
 -1.60854152E-01  1.14345644E+00  1.00000000E+00  1.00000000E+00  1.00000000E+00
  1.83477216E-03  1.39946270E-02  6.85865518E-02  2.32240873E-01  4.69069948E-01
  3.60455199E-01 -1.14961182E-01 -1.69117479E-01  1.14585195E+00  1.00000000E+00
  1.00000000E+00  1.00000000E+00
P(S=P) Contraction coefficients            R   N=          72
  0.00000000E+00  0.00000000E+00  0.00000000E+00  0.00000000E+00  0.00000000E+00
  0.00000000E+00  6.89990666E-02  3.16423961E-01  7.44308291E-01  1.00000000E+00
  1.00000000E+00  0.00000000E+00  0.00000000E+00  0.00000000E+00  0.00000000E+00
  0.00000000E+00  0.00000000E+00  0.00000000E+00  3.98940088E-03  3.03177067E-02
  1.29880029E-01  3.27951072E-01  4.53527100E-01  2.52154056E-01 -1.42993147E-02
  3.23572333E-01  7.43507765E-01  1.00000000E+00  1.00000000E+00  0.00000000E+00
  0.00000000E+00  0.00000000E+00  0.00000000E+00  0.00000000E+00  0.00000000E+00
  0.00000000E+00  0.00000000E+00  0.00000000E+00  0.00000000E+00  0.00000000E+00
  0.00000000E+00  0.00000000E+00  0.00000000E+00  0.00000000E+00  0.00000000E+00
  0.00000000E+00  0.00000000E+00  0.00000000E+00  0.00000000E+00  0.00000000E+00
  0.00000000E+00  0.00000000E+00  0.00000000E+00  0.00000000E+00  6.89990666E-02
  3.16423961E-01  7.44308291E-01  1.00000000E+00  1.00000000E+00  0.00000000E+00
  0.00000000E+00  0.00000000E+00  0.00000000E+00  0.00000000E+00  0.00000000E+00
  0.00000000E+00  6.75797439E-02  3.23907296E-01  7.40895140E-01  1.00000000E+00
  1.00000000E+00  0.00000000E+00
Coordinates of each shell                  R   N=          99
  1.43066630E+00 -6.99198666E-05  4.42195913E-04  1.43066630E+00 -6.99198666E-05
  4.42195913E-04  1.43066630E+00 -6.99198666E-05  4.42195913E-04  1.43066630E+00
 -6.99198666E-05  4.42195913E-04  1.43066630E+00 -6.99198666E-05  4.42195913E-04
 -4.53911459E+00  2.64561657E-05  4.23298652E-04 -4.53911459E+00  2.64561657E-05
  4.23298652E-04 -4.53911459E+00  2.64561657E-05  4.23298652E-04 -4.53911459E+00
  2.64561657E-05  4.23298652E-04 -4.53911459E+00  2.64561657E-05  4.23298652E-04
 -4.53911459E+00  2.64561657E-05  4.23298652E-04  7.15232992E-01  5.75232632E-03
 -1.92892093E+00  7.15232992E-01  5.75232632E-03 -1.92892093E+00  7.15232992E-01
  5.75232632E-03 -1.92892093E+00  7.15232992E-01  5.75232632E-03 -1.92892093E+00
  7.04882962E-01  1.67258148E+00  9.72513535E-01  7.04882962E-01  1.67258148E+00
  9.72513535E-01  7.04882962E-01  1.67258148E+00  9.72513535E-01  7.04882962E-01
  1.67258148E+00  9.72513535E-01  7.14994887E-01 -1.67300666E+00  9.63560013E-01
  7.14994887E-01 -1.67300666E+00  9.63560013E-01  7.14994887E-01 -1.67300666E+00
  9.63560013E-01  7.14994887E-01 -1.67300666E+00  9.63560013E-01  4.17877406E+00
 -6.44396608E-04 -1.26611650E-03  4.17877406E+00 -6.44396608E-04 -1.26611650E-03
  4.17877406E+00 -6.44396608E-04 -1.26611650E-03  4.17877406E+00 -6.44396608E-04
 -1.26611650E-03  4.17877406E+00 -6.44396608E-04 -1.26611650E-03  6.37449786E+00
  1.60626721E-04 -8.65494565E-04  6.37449786E+00  1.60626721E-04 -8.65494565E-04
  6.37449786E+00  1.60626721E-04 -8.65494565E-04  6.37449786E+00  1.60626721E-04
 -8.65494565E-04  6.37449786E+00  1.60626721E-04 -8.65494565E-04
Num ILSW                                   I              100
ILSW                                       I   N=         100
           0           1           0           0           2           0
           0           0           0           0         402          -1
           5           0           0           0           2           0
           0           0           0           0           1           0
           1           1           0           0           0           0
           0           0      100000           0          -1           0
           0           0           0           0           0           0
           0           0           0           1           0           0
           0 -2000000000           1           0           0           0
           0           0           4          52           0           0
           0           0           5           0           0           0
           0           0           0           7           0           1
           0           0           0           0           0           0
           0           0           0           0           0           0
           0           0           0           0           0           0
           0           0           0           0           0           0
           0           0           0           0
Num RLSW                                   I               52
RLSW                                       R   N=          52
  8.00000000E-01  7.20000000E-01  1.00000000E+00  8.10000000E-01  2.00000000E-01
  0.00000000E+00  0.00000000E+00  1.00000000E+00  0.00000000E+00  0.00000000E+00
  0.00000000E+00  0.00000000E+00  1.00000000E+00  0.00000000E+00  0.00000000E+00
  0.00000000E+00  0.00000000E+00  1.00000000E+00  0.00000000E+00  0.00000000E+00
  0.00000000E+00  0.00000000E+00  1.00000000E+00  0.00000000E+00  0.00000000E+00
  0.00000000E+00  0.00000000E+00  1.00000000E+00  0.00000000E+00  0.00000000E+00
  0.00000000E+00  0.00000000E+00  1.00000000E+00  0.00000000E+00  0.00000000E+00
  0.00000000E+00  0.00000000E+00  0.00000000E+00  1.00000000E+00  1.00000000E+00
  0.00000000E+00  1.00000000E+00  0.00000000E+00  0.00000000E+00  0.00000000E+00
  0.00000000E+00  0.00000000E+00  0.00000000E+00  0.00000000E+00  0.00000000E+00
  0.00000000E+00  0.00000000E+00
MxBond                                     I                4
NBond                                      I   N=           7
           4           0           1           1           1           2
           1
IBond                                      I   N=          28
           3           4           5           6           0           0
           0           0           1           0           0           0
           1           0           0           0           1           0
           0           0           1           7           0           0
           6           0           0           0
RBond                                      R   N=          28
  1.00000000E+00  1.00000000E+00  1.00000000E+00  1.00000000E+00  0.00000000E+00
  0.00000000E+00  0.00000000E+00  0.00000000E+00  1.00000000E+00  0.00000000E+00
  0.00000000E+00  0.00000000E+00  1.00000000E+00  0.00000000E+00  0.00000000E+00
  0.00000000E+00  1.00000000E+00  0.00000000E+00  0.00000000E+00  0.00000000E+00
  1.00000000E+00  3.00000000E+00  0.00000000E+00  0.00000000E+00  3.00000000E+00
  0.00000000E+00  0.00000000E+00  0.00000000E+00
Virial Ratio                               R      2.004658154208286E+00
SCF Energy                                 R     -5.930595530647730E+02
Total Energy                               R     -5.930595530647730E+02
RMS Force                                  R      2.302716554986537E-03
RMS Density                                R      1.597896306408936E-09
NImag                                      I                2
Job Status                                 I                1
Nuclear derivative order                   I                2
External E-field                           R   N=          35
  0.00000000E+00  0.00000000E+00  0.00000000E+00  0.00000000E+00  0.00000000E+00
  0.00000000E+00  0.00000000E+00  0.00000000E+00  0.00000000E+00  0.00000000E+00
  0.00000000E+00  0.00000000E+00  0.00000000E+00  0.00000000E+00  0.00000000E+00
  0.00000000E+00  0.00000000E+00  0.00000000E+00  0.00000000E+00  0.00000000E+00
  0.00000000E+00  0.00000000E+00  0.00000000E+00  0.00000000E+00  0.00000000E+00
  0.00000000E+00  0.00000000E+00  0.00000000E+00  0.00000000E+00  0.00000000E+00
  0.00000000E+00  0.00000000E+00  0.00000000E+00  0.00000000E+00  0.00000000E+00
IOpCl                                      I                0
IROHF                                      I                0
Alpha Orbital Energies                     R   N=          98
 -1.01254993E+02 -1.42256826E+01 -1.01225261E+01 -1.00921914E+01 -9.16856911E+00
 -6.92642023E+00 -6.92641965E+00 -6.92618795E+00 -7.95920438E-01 -6.40997296E-01
 -5.07483413E-01 -3.78183266E-01 -3.24748906E-01 -3.23764094E-01 -2.56615438E-01
 -2.14638485E-01 -2.14459973E-01 -5.36201014E-02 -5.33229790E-02 -5.33218646E-02
  1.02253211E-01  1.37807725E-01  1.38032950E-01  1.43911947E-01  1.49252655E-01
  1.49312120E-01  1.99925754E-01  2.06780755E-01  2.06849736E-01  2.19402800E-01
  2.33132578E-01  2.33275769E-01  2.54664392E-01  2.60070611E-01  2.60096645E-01
  2.96366605E-01  3.28840222E-01  3.37756612E-01  3.37876680E-01  3.45975806E-01
  3.46603161E-01  3.56016614E-01  3.94647952E-01  4.12507439E-01  4.86789277E-01
  6.90027227E-01  7.89061025E-01  7.89083129E-01  8.47301750E-01  8.47726582E-01
  8.51487105E-01  8.51689574E-01  8.58836893E-01  8.92785482E-01  9.85616210E-01
  1.02641889E+00  1.02763565E+00  1.03785022E+00  1.09791129E+00  1.12270640E+00
  1.12273782E+00  1.15331206E+00  1.15332171E+00  1.15982892E+00  1.15986887E+00
  1.21964368E+00  1.26389280E+00  1.28184037E+00  1.45595457E+00  1.45641436E+00
  1.54301450E+00  1.62845663E+00  1.62855403E+00  1.86555982E+00  1.86649772E+00
  1.91369378E+00  2.05566730E+00  2.05581295E+00  2.15130616E+00  2.23886234E+00
  2.24295762E+00  2.31943061E+00  2.40006647E+00  2.40159709E+00  2.78666841E+00
  2.80463504E+00  2.80753486E+00  3.05897414E+00  3.09423534E+00  3.09687722E+00
  3.28880666E+00  3.45853685E+00  3.55430046E+00  3.55826304E+00  4.25740098E+00
  4.44885370E+00  4.58325434E+00  4.81381557E+00
Alpha MO coefficients                      R   N=        9604
  1.13596968E-06  1.74781699E-05 -2.61517167E-06 -3.91190245E-08 -2.43472147E-08
 -7.42217753E-05 -4.17436862E-05  7.33582099E-08  1.00977127E-07  1.50106644E-03
  5.53333723E-04 -1.67480067E-07 -3.35871870E-07 -1.63441067E-05  2.72589330E-06
  2.73576686E-06 -7.74256470E-09  4.51069022E-10 -1.44784546E-08  9.95997925E-01
  1.51398738E-02  3.92234461E-06  1.08707908E-08  9.20173564E-09 -2.10656931E-02
 -1.07769909E-05 -1.33208607E-08 -9.90543542E-09  1.98439086E-03  2.71667663E-05
  2.57036498E-08  1.84324622E-08 -2.91497733E-04 -1.76097421E-05 -2.96849960E-08
 -3.33926340E-09  7.50342423E-03  7.50390782E-03  7.50390758E-03  1.82126506E-09
  1.85114060E-09  8.31960471E-11  4.39074577E-06 -2.75726735E-05  6.79480245E-05
  6.62313575E-06  7.08899639E-09 -5.19477321E-06  4.28156271E-06 -2.74485304E-05
  6.80320802E-05  6.80699782E-06  4.48145292E-06  2.60380914E-06  4.38680942E-06
 -2.75718728E-05  6.79587240E-05  6.62663013E-06 -4.50566857E-06  2.58343221E-06
  2.32797784E-07 -2.83732139E-06  1.54250034E-06  1.44330041E-08  1.38813166E-08
 -8.38476605E-05 -1.49701046E-04 -1.03648510E-07 -5.58137015E-08 -1.82563518E-03
  4.67955854E-04 -1.75347059E-07 -4.63959214E-07  5.87879330E-06  1.13280195E-06
  1.13692137E-06 -7.42646725E-09 -1.02307517E-08 -3.02075755E-09 -1.64996452E-06
 -8.41228058E-06  1.76905645E-06  1.60754924E-09  4.76152464E-09  1.25977886E-04
 -5.47106641E-05 -1.03957505E-08 -1.91860945E-08  2.06045035E-04 -9.74146155E-05
  5.47087062E-08  1.29269280E-07 -1.21130347E-06 -3.10863617E-06 -3.10886752E-06
 -6.68080890E-09 -5.57042033E-09  7.74775575E-11  9.60844298E-06 -1.87322409E-04
  2.72551214E-04  2.66072830E-08 -1.15192022E-07  1.01799962E-03  6.71015052E-04
 -4.80686441E-07 -8.46099786E-07  1.09118492E-02  3.06898525E-03 -8.57166551E-07
 -1.86804695E-06  4.76075025E-04  2.67863155E-05  2.67309956E-05 -3.39759809E-07
 -5.99058079E-07  5.66063643E-08 -1.13454868E-08 -2.12170184E-06  4.79341521E-06
  2.72961226E-09  3.46688187E-09  1.34718725E-06 -2.86637398E-05 -1.45420772E-08
 -1.80405229E-08 -2.18487743E-05  7.88071511E-05  2.31533457E-08  2.38944148E-08
  4.61322337E-04  1.32601927E-04  1.14911052E-07  2.04886916E-07  1.67980456E-06
 -1.07512150E-05 -1.07506552E-05  9.65048829E-09  1.32945227E-08  5.18471012E-10
  6.50111130E-08 -6.15196009E-05 -1.96525831E-04 -3.36771220E-06  3.27154822E-08
 -1.41074430E-06  9.35739621E-08 -6.09786459E-05 -1.95082096E-04 -3.47647251E-06
  1.53484992E-06  9.09707277E-07  8.34207411E-08 -6.13584327E-05 -1.96384289E-04
 -3.36176820E-06 -1.25840671E-06  7.74966551E-07  7.81749870E-05  3.30093093E-04
 -5.57768956E-04 -2.12111120E-07 -1.13431030E-07 -2.02516690E-05  1.38640466E-03
 -1.68043136E-07 -6.64699810E-07 -8.68093659E-03  4.48217498E-03 -7.30387300E-07
 -2.59973492E-06 -1.44719937E-03  2.00296461E-05  2.00541256E-05 -3.77342526E-07
  1.88876313E-08 -1.65133528E-08  9.92763702E-01  3.47248539E-02 -2.14222992E-03
 -1.16817986E-06 -7.83044336E-07  3.53330956E-03  8.36049108E-04  6.28886338E-07
  5.00491683E-07 -3.30079359E-03 -4.65776434E-04  3.45266160E-07  7.36779267E-07
 -7.31319094E-03 -8.36425930E-03 -8.36425677E-03  4.53919595E-07  2.38724716E-07
 -2.90668713E-09  5.55888965E-03  8.46420759E-05 -4.39693963E-04  8.35663883E-07
  8.87769369E-07  7.31533438E-03  2.73098442E-03 -8.14539792E-07 -1.94483797E-06
  8.55625088E-02  3.14591910E-02 -4.80952690E-06 -1.46842955E-05 -1.00773706E-03
 -1.97199501E-04 -1.98035587E-04  3.12304972E-07  7.12701311E-07  6.82781019E-07
 -1.43074082E-07 -5.21532413E-06  2.56689450E-05  3.03164208E-08  3.56832954E-08
 -4.84674718E-06 -1.58406887E-04 -1.70736687E-07 -1.97765885E-07 -2.28924425E-04
  5.77904826E-04  3.73114608E-07  3.94132621E-07  5.47834175E-03  1.99005047E-03
  1.37174553E-08  9.03312036E-07  2.90200053E-05 -3.70219307E-05 -3.70202052E-05
  6.35250487E-08  9.79507881E-08  5.57573232E-09 -1.21765272E-04 -6.90847579E-04
  3.40074387E-04  4.14135709E-05  2.00301396E-08  1.63985800E-05 -1.23691535E-04
 -6.88955915E-04  3.48275671E-04  3.66987058E-05 -1.33491562E-05 -7.74509384E-06
 -1.21998393E-04 -6.90839621E-04  3.43784484E-04  4.06528631E-05  1.42176421E-05
 -8.09452613E-06  9.92776243E-01  5.04520362E-02  2.66831916E-04 -1.41705039E-07
  1.90396016E-07 -1.06710508E-02  7.76686884E-03 -1.51545627E-06 -4.38660474E-06
 -9.58123865E-02  2.66680297E-02 -1.17283146E-05 -2.74649917E-05 -7.81900833E-03
 -9.88871013E-03 -9.88852388E-03  7.31439020E-07  7.46253850E-08 -1.31758749E-07
 -4.68616230E-04  3.56921417E-04  3.39140922E-04  2.06612504E-07  2.19076672E-07
 -7.99455831E-03  3.27501119E-03  2.22755187E-06  1.65806531E-06  8.59205857E-03
 -6.65142687E-03  2.94490211E-06  7.31466485E-06 -3.49977954E-05  3.41720571E-04
  3.41717489E-04 -6.60137848E-07 -7.27309844E-07  3.06779380E-09  9.93014669E-01
  5.06758472E-02  7.67733008E-04 -2.89630139E-06 -2.04361137E-06 -2.45906863E-02
 -4.59348014E-03  1.02404643E-05  8.25721214E-06  4.89842069E-02  2.11419206E-02
 -1.31920164E-05 -1.87132658E-05 -8.94416968E-03 -8.87557473E-03 -8.87251435E-03
  4.94410832E-07  3.88846026E-07 -2.28974170E-06  1.31666287E-06  1.65170297E-05
  4.96647210E-06 -5.30812516E-08 -3.15866880E-08  6.52038044E-05 -2.85128040E-05
  3.04826126E-07  1.76055630E-07 -3.87575287E-04  1.86585211E-04 -5.50257973E-07
 -2.26829635E-07  4.48412610E-03  1.69369148E-03 -4.95850871E-07  1.49840852E-07
  1.45173351E-05  2.69627401E-05  2.70098268E-05 -1.47893827E-07 -5.66758022E-08
 -4.77097827E-08  2.31531714E-06  3.21323774E-03  2.97070333E-04  2.53122920E-05
 -5.35210807E-07 -1.19080600E-04  5.22230573E-06  3.18940326E-03  3.21595471E-04
  2.77521299E-05  1.05385952E-04  6.10498601E-05  2.68664342E-06  3.21163704E-03
  3.04540542E-04  2.58027830E-05 -1.04027366E-04  5.86637585E-05 -5.85813340E-03
 -4.20351732E-04  2.73002299E-04 -7.23034317E-07 -6.52781680E-07  3.52262625E-03
 -9.46044022E-03  3.79967745E-06  6.66221348E-06 -5.76315034E-02  1.46012227E-02
  1.13117180E-06 -9.75458510E-06 -8.37439218E-04 -3.27003425E-07 -1.09396895E-06
 -1.48576507E-07  1.93660777E-07  5.81639350E-07 -1.76337638E-05 -4.64799674E-05
 -2.49203163E-04  1.67713944E-07  2.67164614E-07  5.33084463E-03 -1.75318451E-03
 -3.51572542E-06 -3.91689253E-06  5.09830574E-03 -2.64130711E-03 -1.69067567E-06
  1.49057862E-06  1.48057934E-04 -7.40964580E-05 -7.40378403E-05  6.85891550E-07
  7.36662594E-07 -3.83595708E-08  5.50520802E-05  3.46846857E-04  2.08569297E-04
 -9.44059761E-09 -6.92396105E-08 -5.19395298E-03 -4.36695717E-03 -1.18007237E-06
  2.47050227E-06  1.09242434E-02  6.81278265E-03  6.63022608E-06  5.63058012E-06
 -1.70561915E-04  9.39985904E-05  9.40360203E-05  5.90093979E-07  5.70476146E-07
 -1.07083612E-07 -2.84640263E-01  1.02266547E+00  1.89951607E-04  1.24155812E-06
  1.03007862E-06  7.50828531E-02  4.51066932E-04  2.45938643E-07  2.36126158E-07
 -2.10986262E-02 -1.33619570E-03 -5.40048615E-07 -4.33793098E-07  1.19596085E-02
  3.88246407E-03  1.66107264E-06  9.18364353E-07 -1.56477034E-02 -1.56152212E-02
 -1.56152403E-02  8.76413032E-08  7.90635163E-08  4.05622742E-08 -2.82671733E-05
 -6.89451202E-04 -2.76412889E-03  1.17992138E-04  2.07611697E-07 -5.12949670E-05
 -3.05621877E-05 -6.84618010E-04 -2.76883839E-03  1.17622342E-04  4.37635419E-05
  2.52989589E-05 -2.84411419E-05 -6.91207976E-04 -2.76178089E-03  1.18128447E-04
 -4.45286985E-05  2.55625064E-05 -4.69636158E-05 -2.93397453E-04 -2.51057593E-05
  1.85951866E-07  1.48321731E-07  1.99956997E-04 -6.86897342E-03 -1.04677521E-06
  1.18687155E-06 -5.76625116E-03  8.25927603E-04 -5.01089850E-06 -6.90915635E-06
  9.70325320E-05 -4.49916146E-05 -4.48741667E-05 -3.31171799E-08 -1.35527182E-07
 -1.07658155E-07 -1.22438270E-04 -4.95479082E-04  2.67543821E-05  1.01085904E-07
  1.66434797E-07  6.45446254E-03 -1.96286499E-03 -1.46096735E-06 -1.57616736E-06
 -1.93691296E-03  9.93228889E-04  1.53055242E-06  1.74258009E-06 -1.90505191E-04
 -2.41202646E-04 -2.41201313E-04  1.05749334E-07  1.50417066E-07  3.84781160E-09
  4.95462740E-07  3.76238342E-06  4.25901213E-07 -1.22760785E-05 -8.96808918E-06
 -5.11572111E-05 -2.63850415E-05 -4.89776733E-04 -3.57748187E-04 -6.92779397E-04
 -2.43974781E-04  2.90120304E-04  2.14018351E-04 -1.02490333E-06 -2.27030409E-05
  2.28538569E-05  2.87978451E-05  2.10499373E-05 -3.66068876E-05  9.40612203E-07
 -2.67245759E-06  4.71800011E-03  8.00617467E-01  5.83717425E-01  2.15912039E-06
  1.44424717E-04  2.39372425E-02  1.74523101E-02 -8.69576464E-06 -6.33143828E-05
 -9.22805569E-03 -6.72819741E-03 -2.54972681E-05  1.28073476E-05  3.94629926E-03
  2.87768842E-03  8.31048825E-07  3.22431062E-06 -2.79982971E-07  3.32050670E-05
  2.42248260E-05  2.92618266E-06  9.05007131E-05 -6.19626719E-04  2.48061715E-03
  9.13442663E-06  1.15795767E-05 -6.67700807E-05 -1.56828083E-04  1.07578810E-03
 -4.20485115E-03 -1.46474807E-05 -9.98019180E-05 -5.62853501E-05  6.27691596E-05
 -4.26863007E-04  1.71235378E-03  6.52786657E-06 -3.36152076E-05  3.41469112E-05
 -1.02203257E-06 -4.82054526E-06  6.40025952E-08  3.29968734E-05  2.41467115E-05
  1.52578872E-05 -5.72460095E-05 -5.06268751E-05 -3.73887199E-05  7.26497625E-04
 -2.17842420E-04  9.27375707E-04  6.78173511E-04 -7.99105385E-07 -4.80552000E-06
  1.94559532E-06 -1.44301908E-05 -1.05469104E-05 -5.39808806E-06 -6.04460431E-07
 -2.90294180E-06  2.46334330E-07 -8.82407251E-06 -6.48735869E-06  4.43405760E-05
 -1.75050867E-05  5.60897487E-05  4.12599235E-05 -1.30833171E-05  2.98239442E-05
 -3.32977992E-04 -2.43847540E-04 -6.70000549E-08  8.23350531E-07 -3.03576302E-06
 -6.25624737E-06 -4.59343085E-06  3.10724107E-06 -7.76649820E-09  3.50975079E-08
 -3.61974016E-09  9.26688832E-06 -1.27344135E-05 -2.73266209E-06 -2.98566040E-06
  3.55991227E-04 -4.89189648E-04 -7.74150758E-05 -3.01098068E-05 -2.13985622E-04
  2.96834936E-04 -1.03338740E-07 -3.16274921E-05  3.15586769E-05 -2.08420006E-05
  2.86593289E-05  2.61942087E-05  5.02698459E-08 -1.40974563E-07  1.78642867E-04
 -5.83724779E-01  8.00626081E-01  6.21351483E-08  5.61267626E-06 -1.74522619E-02
  2.39372643E-02 -3.25888682E-07 -2.89918912E-06  6.72766213E-03 -9.22776796E-03
 -5.17639886E-06 -1.05594877E-06 -2.87654538E-03  3.94611855E-03  4.30925787E-08
  2.43853957E-06 -2.17014792E-06 -2.42438586E-05  3.32740729E-05 -1.98948735E-06
  1.25743999E-04 -8.65717909E-04  3.43072001E-03  1.19422499E-05 -7.86976168E-06
 -9.26464187E-05  1.64082373E-05 -1.11707239E-04  4.33405430E-04  1.66286574E-06
  3.31082019E-06  1.80078359E-05 -1.42052540E-04  9.75102373E-04 -3.86867937E-03
 -1.33671345E-05  9.32958471E-05 -4.71784293E-05 -9.92482882E-08 -4.66812990E-07
  1.37402998E-09 -2.42219530E-05  3.33469525E-05 -1.95230542E-07 -6.09098436E-06
  3.83844854E-05 -5.33369309E-05  8.96132631E-05 -2.64524437E-05 -6.77646818E-04
  9.32067264E-04 -1.40801732E-07 -4.83452134E-06  4.59957901E-06  1.04956559E-05
 -1.44298719E-05  3.89165632E-06 -1.04905888E-07 -4.57342124E-07  3.17894561E-08
  6.51886986E-06 -9.01482178E-06  6.02514368E-06 -2.41590396E-06 -4.15819799E-05
  5.75335904E-05 -3.01866405E-06  4.29679388E-06  2.43321019E-04 -3.35168551E-04
 -3.08037021E-08  2.46348271E-06 -2.90441440E-06  4.65871499E-06 -6.43468778E-06
 -2.22977181E-06  6.78509975E-06  2.10593268E-04  2.35796023E-04  2.01369115E-09
 -1.00249298E-07 -6.62908385E-03 -6.05441056E-03  4.54110630E-06  7.54381204E-06
 -1.10397098E-01 -4.34920737E-02  4.85495511E-06  1.84458066E-05 -2.86651732E-04
 -4.90842223E-05 -4.97860381E-05  5.14930102E-07  5.17558567E-07  4.77622593E-07
  9.37683678E-05 -1.86744644E-04  9.90697140E-01 -3.70760967E-03 -2.92434291E-03
  3.99599025E-04  3.02731446E-02 -1.10672707E-04 -8.71558102E-05 -1.72710549E-03
 -1.33455506E-02  4.24489166E-05  3.32879551E-05 -5.70614316E-03  2.52521901E-03
 -1.78024689E-05 -1.53021122E-05  1.70998320E-04  2.97315329E-04  2.97327382E-04
 -5.61116022E-08 -9.08969562E-08 -7.24905455E-09 -1.46222233E-04 -1.09458233E-04
 -2.53806912E-03  1.58965046E-04 -1.15387932E-07 -7.82427788E-06 -1.48546227E-04
 -1.17932525E-04 -2.49876757E-03  1.57926141E-04  7.68926814E-06  4.23825970E-06
 -1.46470203E-04 -1.13040894E-04 -2.53455185E-03  1.59282592E-04 -7.22558835E-06
  3.77065198E-06 -1.58498467E-04 -7.75988554E-04  1.71052116E-05 -5.21705480E-07