 Entering Gaussian System, Link 0=g16
 Initial command:
 /usr/local/g16_AVX//g16/l1.exe "/scratch/alanqf/0037-54479.ixchel.mda.cinvestav.mx/Gau-29827.inp" -scrdir="/scratch/alanqf/0037-54479.ixchel.mda.cinvestav.mx/"
 Entering Link 1 = /usr/local/g16_AVX//g16/l1.exe PID=     29828.
  
 Copyright (c) 1988-2017, Gaussian, Inc.  All Rights Reserved.
  
 This is part of the Gaussian(R) 16 program.  It is based on
 the Gaussian(R) 09 system (copyright 2009, Gaussian, Inc.),
 the Gaussian(R) 03 system (copyright 2003, Gaussian, Inc.),
 the Gaussian(R) 98 system (copyright 1998, Gaussian, Inc.),
 the Gaussian(R) 94 system (copyright 1995, Gaussian, Inc.),
 the Gaussian 92(TM) system (copyright 1992, Gaussian, Inc.),
 the Gaussian 90(TM) system (copyright 1990, Gaussian, Inc.),
 the Gaussian 88(TM) system (copyright 1988, Gaussian, Inc.),
 the Gaussian 86(TM) system (copyright 1986, Carnegie Mellon
 University), and the Gaussian 82(TM) system (copyright 1983,
 Carnegie Mellon University). Gaussian is a federally registered
 trademark of Gaussian, Inc.
  
 This software contains proprietary and confidential information,
 including trade secrets, belonging to Gaussian, Inc.
  
 This software is provided under written license and may be
 used, copied, transmitted, or stored only in accord with that
 written license.
  
 The following legend is applicable only to US Government
 contracts under FAR:
  
                    RESTRICTED RIGHTS LEGEND
  
 Use, reproduction and disclosure by the US Government is
 subject to restrictions as set forth in subparagraphs (a)
 and (c) of the Commercial Computer Software - Restricted
 Rights clause in FAR 52.227-19.
  
 Gaussian, Inc.
 340 Quinnipiac St., Bldg. 40, Wallingford CT 06492
  
  
 ---------------------------------------------------------------
 Warning -- This program may not be used in any manner that
 competes with the business of Gaussian, Inc. or will provide
 assistance to any competitor of Gaussian, Inc.  The licensee
 of this program is prohibited from giving any competitor of
 Gaussian, Inc. access to this program.  By using this program,
 the user acknowledges that Gaussian, Inc. is engaged in the
 business of creating and licensing software in the field of
 computational chemistry and represents and warrants to the
 licensee that it is not a competitor of Gaussian, Inc. and that
 it will not use this program in any manner prohibited above.
 ---------------------------------------------------------------
  

 Cite this work as:
 Gaussian 16, Revision B.01,
 M. J. Frisch, G. W. Trucks, H. B. Schlegel, G. E. Scuseria, 
 M. A. Robb, J. R. Cheeseman, G. Scalmani, V. Barone, 
 G. A. Petersson, H. Nakatsuji, X. Li, M. Caricato, A. V. Marenich, 
 J. Bloino, B. G. Janesko, R. Gomperts, B. Mennucci, H. P. Hratchian, 
 J. V. Ortiz, A. F. Izmaylov, J. L. Sonnenberg, D. Williams-Young, 
 F. Ding, F. Lipparini, F. Egidi, J. Goings, B. Peng, A. Petrone, 
 T. Henderson, D. Ranasinghe, V. G. Zakrzewski, J. Gao, N. Rega, 
 G. Zheng, W. Liang, M. Hada, M. Ehara, K. Toyota, R. Fukuda, 
 J. Hasegawa, M. Ishida, T. Nakajima, Y. Honda, O. Kitao, H. Nakai, 
 T. Vreven, K. Throssell, J. A. Montgomery, Jr., J. E. Peralta, 
 F. Ogliaro, M. J. Bearpark, J. J. Heyd, E. N. Brothers, K. N. Kudin, 
 V. N. Staroverov, T. A. Keith, R. Kobayashi, J. Normand, 
 K. Raghavachari, A. P. Rendell, J. C. Burant, S. S. Iyengar, 
 J. Tomasi, M. Cossi, J. M. Millam, M. Klene, C. Adamo, R. Cammi, 
 J. W. Ochterski, R. L. Martin, K. Morokuma, O. Farkas, 
 J. B. Foresman, and D. J. Fox, Gaussian, Inc., Wallingford CT, 2016.
 
 ******************************************
 Gaussian 16:  ES64L-G16RevB.01 20-Dec-2017
                13-Oct-2024 
 ******************************************
 %NProcShared=26
 Will use up to   26 processors via shared memory.
 %MEM=20GB
 %chk=CHKfiles/0037.chk
 ---------------------------------------------------------------------
 #p b3lyp 6-31++g(d,p) scf=verytight NoSymm freq=noraman int=ultrafine
 ---------------------------------------------------------------------
 1/10=4,30=1,38=1/1,3;
 2/12=2,15=1,17=6,18=5,40=1/2;
 3/5=1,6=6,7=1111,11=2,25=1,30=1,71=2,74=-5,75=-5,140=1/1,2,3;
 4//1;
 5/5=2,17=3,38=5,98=1/2;
 8/6=4,10=90,11=11/1;
 11/6=1,8=1,9=11,15=111,16=1,31=1/1,2,10;
 10/6=1,31=1/2;
 6/7=2,8=2,9=2,10=2,28=1/1;
 7/8=1,10=1,25=1,30=1/1,2,3,16;
 1/10=4,30=1/3;
 99//99;
 Leave Link    1 at Sun Oct 13 09:48:04 2024, MaxMem=  2684354560 cpu:               1.3 elap:               0.1
 (Enter /usr/local/g16_AVX//g16/l101.exe)
 ------------------------
 RxCoord=-6.39110 DE=1.94
 ------------------------
 Symbolic Z-matrix:
 Charge = -1 Multiplicity = 1
 C                     0.74635   0.00004   0.0002 
 Cl                   -2.38918  0.         0.00024 
 H                     0.36441   0.00264  -1.02089 
 H                     0.36346   0.88381   0.51367 
 H                     0.36528  -0.88563   0.50944 
 C                     2.20043  -0.00006  -0.00059 
 N                     3.3624   -0.00004  -0.00043 
 
 ITRead=  0  0  0  0  0  0  0
 MicOpt= -1 -1 -1 -1 -1 -1 -1
 NAtoms=      7 NQM=        7 NQMF=       0 NMMI=      0 NMMIF=      0
                NMic=       0 NMicF=      0.
                    Isotopes and Nuclear Properties:
 (Nuclear quadrupole moments (NQMom) in fm**2, nuclear magnetic moments (NMagM)
  in nuclear magnetons)

  Atom         1           2           3           4           5           6           7
 IAtWgt=          12          35           1           1           1          12          14
 AtmWgt=  12.0000000  34.9688527   1.0078250   1.0078250   1.0078250  12.0000000  14.0030740
 NucSpn=           0           3           1           1           1           0           2
 AtZEff=  -0.0000000  -0.0000000  -0.0000000  -0.0000000  -0.0000000  -0.0000000  -0.0000000
 NQMom=    0.0000000  -8.1650000   0.0000000   0.0000000   0.0000000   0.0000000   2.0440000
 NMagM=    0.0000000   0.8218740   2.7928460   2.7928460   2.7928460   0.0000000   0.4037610
 AtZNuc=   6.0000000  17.0000000   1.0000000   1.0000000   1.0000000   6.0000000   7.0000000
 Leave Link  101 at Sun Oct 13 09:48:04 2024, MaxMem=  2684354560 cpu:               2.1 elap:               0.1
 (Enter /usr/local/g16_AVX//g16/l103.exe)

 GradGradGradGradGradGradGradGradGradGradGradGradGradGradGradGradGradGrad
 Berny optimization.
 Initialization pass.
 Trust Radius=3.00D-01 FncErr=1.00D-07 GrdErr=1.00D-07 EigMax=2.50D+02 EigMin=1.00D-04
 Number of steps in this run=      2 maximum allowed number of steps=      2.
 GradGradGradGradGradGradGradGradGradGradGradGradGradGradGradGradGradGrad

 Leave Link  103 at Sun Oct 13 09:48:04 2024, MaxMem=  2684354560 cpu:               0.5 elap:               0.0
 (Enter /usr/local/g16_AVX//g16/l202.exe)
                          Input orientation:                          
 ---------------------------------------------------------------------
 Center     Atomic      Atomic             Coordinates (Angstroms)
 Number     Number       Type             X           Y           Z
 ---------------------------------------------------------------------
      1          6           0        0.746345    0.000044    0.000197
      2         17           0       -2.389182   -0.000004    0.000242
      3          1           0        0.364405    0.002643   -1.020892
      4          1           0        0.363456    0.883813    0.513671
      5          1           0        0.365282   -0.885634    0.509438
      6          6           0        2.200432   -0.000058   -0.000589
      7          7           0        3.362399   -0.000036   -0.000428
 ---------------------------------------------------------------------
                    Distance matrix (angstroms):
                    1          2          3          4          5
     1  C    0.000000
     2  Cl   3.135527   0.000000
     3  H    1.090187   2.936829   0.000000
     4  H    1.091470   2.936283   1.769561   0.000000
     5  H    1.090395   2.937804   1.769448   1.769453   0.000000
     6  C    1.454087   4.589614   2.100481   2.102421   2.100511
     7  N    2.616054   5.751581   3.166910   3.168461   3.166537
                    6          7
     6  C    0.000000
     7  N    1.161967   0.000000
 Symmetry turned off by external request.
 This structure is nearly, but not quite of a higher symmetry.
 Consider Symm=Loose if the higher symmetry is desired.
 Stoichiometry    C2H3ClN(1-)
 Framework group  C1[X(C2H3ClN)]
 Deg. of freedom    15
 Full point group                 C1      NOp   1
 Rotational constants (GHZ):         160.1536315           1.1899948           1.1899941
 Leave Link  202 at Sun Oct 13 09:48:04 2024, MaxMem=  2684354560 cpu:               1.2 elap:               0.1
 (Enter /usr/local/g16_AVX//g16/l301.exe)
 Standard basis: 6-31++G(d,p) (6D, 7F)
 Ernie: Thresh=  0.10000D-02 Tol=  0.10000D-05 Strict=F.
    98 basis functions,   176 primitive gaussians,    98 cartesian basis functions
    20 alpha electrons       20 beta electrons
       nuclear repulsion energy       107.5093702860 Hartrees.
 IExCor=  402 DFT=T Ex+Corr=B3LYP ExCW=0 ScaHFX=  0.200000
 ScaDFX=  0.800000  0.720000  1.000000  0.810000 ScalE2=  1.000000  1.000000
 IRadAn=      5 IRanWt=     -1 IRanGd=            0 ICorTp=0 IEmpDi=  4
 NAtoms=    7 NActive=    7 NUniq=    7 SFac= 1.00D+00 NAtFMM=   60 NAOKFM=F Big=F
 Integral buffers will be    131072 words long.
 Raffenetti 2 integral format.
 Two-electron integral symmetry is turned off.
 Leave Link  301 at Sun Oct 13 09:48:04 2024, MaxMem=  2684354560 cpu:               2.0 elap:               0.1
 (Enter /usr/local/g16_AVX//g16/l302.exe)
 NPDir=0 NMtPBC=     1 NCelOv=     1 NCel=       1 NClECP=     1 NCelD=      1
         NCelK=      1 NCelE2=     1 NClLst=     1 CellRange=     0.0.
 One-electron integrals computed using PRISM.
 NBasis=    98 RedAO= T EigKep=  1.36D-05  NBF=    98
 NBsUse=    98 1.00D-06 EigRej= -1.00D+00 NBFU=    98
 Precomputing XC quadrature grid using
 IXCGrd= 4 IRadAn=           5 IRanWt=          -1 IRanGd=           0 AccXCQ= 0.00D+00.
 Generated NRdTot=       0 NPtTot=           0 NUsed=           0 NTot=          32
 NSgBfM=    98    98    98    98    98 MxSgAt=     7 MxSgA2=     7.
 Leave Link  302 at Sun Oct 13 09:48:05 2024, MaxMem=  2684354560 cpu:               4.3 elap:               0.2
 (Enter /usr/local/g16_AVX//g16/l303.exe)
 DipDrv:  MaxL=1.
 Leave Link  303 at Sun Oct 13 09:48:05 2024, MaxMem=  2684354560 cpu:               1.4 elap:               0.1
 (Enter /usr/local/g16_AVX//g16/l401.exe)
 ExpMin= 3.60D-02 ExpMax= 2.52D+04 ExpMxC= 3.78D+03 IAcc=3 IRadAn=         5 AccDes= 0.00D+00
 Harris functional with IExCor=  402 and IRadAn=       5 diagonalized for initial guess.
 HarFok:  IExCor=  402 AccDes= 0.00D+00 IRadAn=         5 IDoV= 1 UseB2=F ITyADJ=14
 ICtDFT=  3500011 ScaDFX=  1.000000  1.000000  1.000000  1.000000
 FoFCou: FMM=F IPFlag=           0 FMFlag=      100000 FMFlg1=           0
         NFxFlg=           0 DoJE=T BraDBF=F KetDBF=T FulRan=T
         wScrn=  0.000000 ICntrl=       500 IOpCl=  0 I1Cent=   200000004 NGrid=           0
         NMat0=    1 NMatS0=      1 NMatT0=    0 NMatD0=    1 NMtDS0=    0 NMtDT0=    0
 Symmetry not used in FoFCou.
 Harris En= -593.113530409880    
 JPrj=0 DoOrth=F DoCkMO=F.
 Leave Link  401 at Sun Oct 13 09:48:05 2024, MaxMem=  2684354560 cpu:               6.2 elap:               0.3
 (Enter /usr/local/g16_AVX//g16/l502.exe)
 Keep R1 ints in memory in canonical form, NReq=35752935.
 FoFCou: FMM=F IPFlag=           0 FMFlag=           0 FMFlg1=           0
         NFxFlg=           0 DoJE=F BraDBF=F KetDBF=F FulRan=T
         wScrn=  0.000000 ICntrl=       600 IOpCl=  0 I1Cent=           0 NGrid=           0
         NMat0=    1 NMatS0=   4851 NMatT0=    0 NMatD0=    1 NMtDS0=    0 NMtDT0=    0
 Symmetry not used in FoFCou.
 Two-electron integral symmetry not used.
 Closed shell SCF:
 Using DIIS extrapolation, IDIIS=  1040.
 NGot=  2684354560 LenX=  2672563405 LenY=  2672553360
 Requested convergence on RMS density matrix=1.00D-08 within 128 cycles.
 Requested convergence on MAX density matrix=1.00D-06.
 Requested convergence on             energy=1.00D-06.
 No special actions if energy rises.

 Cycle   1  Pass 1  IDiag  1:
 E= -592.949321949535    
 DIIS: error= 2.82D-02 at cycle   1 NSaved=   1.
 NSaved= 1 IEnMin= 1 EnMin= -592.949321949535     IErMin= 1 ErrMin= 2.82D-02
 ErrMax= 2.82D-02  0.00D+00 EMaxC= 1.00D-01 BMatC= 1.05D-01 BMatP= 1.05D-01
 IDIUse=3 WtCom= 7.18D-01 WtEn= 2.82D-01
 Coeff-Com:  0.100D+01
 Coeff-En:   0.100D+01
 Coeff:      0.100D+01
 Gap=     0.174 Goal=   None    Shift=    0.000
 GapD=    0.174 DampG=1.000 DampE=0.500 DampFc=0.5000 IDamp=-1.
 Damping current iteration by 5.00D-01
 RMSDP=1.20D-02 MaxDP=2.47D-01              OVMax= 1.73D-01

 Cycle   2  Pass 1  IDiag  1:
 E= -592.990329530652     Delta-E=       -0.041007581117 Rises=F Damp=T
 DIIS: error= 1.60D-02 at cycle   2 NSaved=   2.
 NSaved= 2 IEnMin= 2 EnMin= -592.990329530652     IErMin= 2 ErrMin= 1.60D-02
 ErrMax= 1.60D-02  0.00D+00 EMaxC= 1.00D-01 BMatC= 1.39D-02 BMatP= 1.05D-01
 IDIUse=3 WtCom= 8.40D-01 WtEn= 1.60D-01
 Coeff-Com:  0.149D+00 0.851D+00
 Coeff-En:   0.226D+00 0.774D+00
 Coeff:      0.162D+00 0.838D+00
 Gap=     0.150 Goal=   None    Shift=    0.000
 RMSDP=5.10D-03 MaxDP=1.64D-01 DE=-4.10D-02 OVMax= 1.38D-01

 Cycle   3  Pass 1  IDiag  1:
 E= -593.041645702466     Delta-E=       -0.051316171814 Rises=F Damp=F
 DIIS: error= 1.36D-02 at cycle   3 NSaved=   3.
 NSaved= 3 IEnMin= 3 EnMin= -593.041645702466     IErMin= 3 ErrMin= 1.36D-02
 ErrMax= 1.36D-02  0.00D+00 EMaxC= 1.00D-01 BMatC= 1.93D-02 BMatP= 1.39D-02
 IDIUse=2 WtCom= 0.00D+00 WtEn= 1.00D+00
 Coeff-En:   0.000D+00 0.000D+00 0.100D+01
 Coeff:      0.000D+00 0.000D+00 0.100D+01
 Gap=     0.159 Goal=   None    Shift=    0.000
 RMSDP=7.58D-03 MaxDP=2.76D-01 DE=-5.13D-02 OVMax= 1.63D-01

 Cycle   4  Pass 1  IDiag  1:
 E= -592.947141690264     Delta-E=        0.094504012202 Rises=F Damp=F
 DIIS: error= 3.10D-02 at cycle   4 NSaved=   4.
 NSaved= 4 IEnMin= 3 EnMin= -593.041645702466     IErMin= 3 ErrMin= 1.36D-02
 ErrMax= 3.10D-02  0.00D+00 EMaxC= 1.00D-01 BMatC= 1.25D-01 BMatP= 1.39D-02
 IDIUse=2 WtCom= 0.00D+00 WtEn= 1.00D+00
 Coeff-En:   0.000D+00 0.000D+00 0.803D+00 0.197D+00
 Coeff:      0.000D+00 0.000D+00 0.803D+00 0.197D+00
 Gap=     0.156 Goal=   None    Shift=    0.000
 RMSDP=3.62D-03 MaxDP=1.31D-01 DE= 9.45D-02 OVMax= 8.31D-02

 Cycle   5  Pass 1  IDiag  1:
 E= -593.049943110152     Delta-E=       -0.102801419888 Rises=F Damp=F
 DIIS: error= 9.15D-03 at cycle   5 NSaved=   5.
 NSaved= 5 IEnMin= 5 EnMin= -593.049943110152     IErMin= 5 ErrMin= 9.15D-03
 ErrMax= 9.15D-03  0.00D+00 EMaxC= 1.00D-01 BMatC= 1.06D-02 BMatP= 1.39D-02
 IDIUse=3 WtCom= 9.09D-01 WtEn= 9.15D-02
 Coeff-Com: -0.965D-03 0.191D-01 0.322D+00-0.101D+00 0.761D+00
 Coeff-En:   0.000D+00 0.000D+00 0.389D+00 0.000D+00 0.611D+00
 Coeff:     -0.877D-03 0.174D-01 0.328D+00-0.918D-01 0.748D+00
 Gap=     0.157 Goal=   None    Shift=    0.000
 RMSDP=1.54D-03 MaxDP=5.45D-02 DE=-1.03D-01 OVMax= 3.28D-02

 Cycle   6  Pass 1  IDiag  1:
 E= -593.059429268205     Delta-E=       -0.009486158053 Rises=F Damp=F
 DIIS: error= 1.54D-04 at cycle   6 NSaved=   6.
 NSaved= 6 IEnMin= 6 EnMin= -593.059429268205     IErMin= 6 ErrMin= 1.54D-04
 ErrMax= 1.54D-04  0.00D+00 EMaxC= 1.00D-01 BMatC= 4.70D-06 BMatP= 1.06D-02
 IDIUse=3 WtCom= 9.98D-01 WtEn= 1.54D-03
 Coeff-Com: -0.167D-02 0.758D-02 0.118D+00-0.492D-01 0.324D+00 0.601D+00
 Coeff-En:   0.000D+00 0.000D+00 0.000D+00 0.000D+00 0.000D+00 0.100D+01
 Coeff:     -0.167D-02 0.757D-02 0.118D+00-0.492D-01 0.323D+00 0.602D+00
 Gap=     0.156 Goal=   None    Shift=    0.000
 RMSDP=3.97D-05 MaxDP=6.81D-04 DE=-9.49D-03 OVMax= 6.39D-04

 Cycle   7  Pass 1  IDiag  1:
 E= -593.059433626076     Delta-E=       -0.000004357871 Rises=F Damp=F
 DIIS: error= 6.71D-05 at cycle   7 NSaved=   7.
 NSaved= 7 IEnMin= 7 EnMin= -593.059433626076     IErMin= 7 ErrMin= 6.71D-05
 ErrMax= 6.71D-05  0.00D+00 EMaxC= 1.00D-01 BMatC= 5.23D-07 BMatP= 4.70D-06
 IDIUse=1 WtCom= 1.00D+00 WtEn= 0.00D+00
 Coeff-Com: -0.238D-03 0.874D-03 0.185D-01-0.972D-02 0.539D-01 0.189D+00
 Coeff-Com:  0.748D+00
 Coeff:     -0.238D-03 0.874D-03 0.185D-01-0.972D-02 0.539D-01 0.189D+00
 Coeff:      0.748D+00
 Gap=     0.156 Goal=   None    Shift=    0.000
 RMSDP=8.74D-06 MaxDP=1.32D-04 DE=-4.36D-06 OVMax= 2.49D-04

 Cycle   8  Pass 1  IDiag  1:
 E= -593.059434127203     Delta-E=       -0.000000501127 Rises=F Damp=F
 DIIS: error= 1.09D-05 at cycle   8 NSaved=   8.
 NSaved= 8 IEnMin= 8 EnMin= -593.059434127203     IErMin= 8 ErrMin= 1.09D-05
 ErrMax= 1.09D-05  0.00D+00 EMaxC= 1.00D-01 BMatC= 1.25D-08 BMatP= 5.23D-07
 IDIUse=1 WtCom= 1.00D+00 WtEn= 0.00D+00
 Coeff-Com:  0.364D-04-0.133D-03 0.399D-02-0.196D-02 0.106D-01 0.504D-01
 Coeff-Com:  0.262D+00 0.676D+00
 Coeff:      0.364D-04-0.133D-03 0.399D-02-0.196D-02 0.106D-01 0.504D-01
 Coeff:      0.262D+00 0.676D+00
 Gap=     0.156 Goal=   None    Shift=    0.000
 RMSDP=4.97D-06 MaxDP=1.53D-04 DE=-5.01D-07 OVMax= 3.55D-05

 Cycle   9  Pass 1  IDiag  1:
 E= -593.059434140985     Delta-E=       -0.000000013781 Rises=F Damp=F
 DIIS: error= 2.39D-06 at cycle   9 NSaved=   9.
 NSaved= 9 IEnMin= 9 EnMin= -593.059434140985     IErMin= 9 ErrMin= 2.39D-06
 ErrMax= 2.39D-06  0.00D+00 EMaxC= 1.00D-01 BMatC= 7.00D-10 BMatP= 1.25D-08
 IDIUse=1 WtCom= 1.00D+00 WtEn= 0.00D+00
 Coeff-Com:  0.313D-04-0.716D-04-0.650D-03 0.105D-03-0.143D-02-0.616D-03
 Coeff-Com:  0.167D-01 0.206D+00 0.780D+00
 Coeff:      0.313D-04-0.716D-04-0.650D-03 0.105D-03-0.143D-02-0.616D-03
 Coeff:      0.167D-01 0.206D+00 0.780D+00
 Gap=     0.156 Goal=   None    Shift=    0.000
 RMSDP=1.30D-06 MaxDP=4.76D-05 DE=-1.38D-08 OVMax= 7.34D-06

 Cycle  10  Pass 1  IDiag  1:
 E= -593.059434141723     Delta-E=       -0.000000000738 Rises=F Damp=F
 DIIS: error= 2.70D-07 at cycle  10 NSaved=  10.
 NSaved=10 IEnMin=10 EnMin= -593.059434141723     IErMin=10 ErrMin= 2.70D-07
 ErrMax= 2.70D-07  0.00D+00 EMaxC= 1.00D-01 BMatC= 1.46D-11 BMatP= 7.00D-10
 IDIUse=1 WtCom= 1.00D+00 WtEn= 0.00D+00
 Coeff-Com:  0.675D-05-0.184D-04-0.121D-03 0.567D-04-0.330D-03-0.341D-03
 Coeff-Com: -0.270D-02 0.257D-01 0.150D+00 0.828D+00
 Coeff:      0.675D-05-0.184D-04-0.121D-03 0.567D-04-0.330D-03-0.341D-03
 Coeff:     -0.270D-02 0.257D-01 0.150D+00 0.828D+00
 Gap=     0.156 Goal=   None    Shift=    0.000
 RMSDP=7.49D-08 MaxDP=1.28D-06 DE=-7.38D-10 OVMax= 1.23D-06

 Cycle  11  Pass 1  IDiag  1:
 E= -593.059434141739     Delta-E=       -0.000000000016 Rises=F Damp=F
 DIIS: error= 6.51D-08 at cycle  11 NSaved=  11.
 NSaved=11 IEnMin=11 EnMin= -593.059434141739     IErMin=11 ErrMin= 6.51D-08
 ErrMax= 6.51D-08  0.00D+00 EMaxC= 1.00D-01 BMatC= 5.01D-13 BMatP= 1.46D-11
 IDIUse=1 WtCom= 1.00D+00 WtEn= 0.00D+00
 Coeff-Com: -0.597D-06 0.969D-06-0.142D-04 0.681D-05-0.291D-04-0.751D-04
 Coeff-Com: -0.112D-02-0.177D-02 0.361D-02 0.920D-01 0.907D+00
 Coeff:     -0.597D-06 0.969D-06-0.142D-04 0.681D-05-0.291D-04-0.751D-04
 Coeff:     -0.112D-02-0.177D-02 0.361D-02 0.920D-01 0.907D+00
 Gap=     0.156 Goal=   None    Shift=    0.000
 RMSDP=9.53D-08 MaxDP=3.68D-06 DE=-1.59D-11 OVMax= 2.04D-07

 Cycle  12  Pass 1  IDiag  1:
 E= -593.059434141737     Delta-E=        0.000000000002 Rises=F Damp=F
 DIIS: error= 2.03D-08 at cycle  12 NSaved=  12.
 NSaved=12 IEnMin=11 EnMin= -593.059434141739     IErMin=12 ErrMin= 2.03D-08
 ErrMax= 2.03D-08  0.00D+00 EMaxC= 1.00D-01 BMatC= 1.26D-14 BMatP= 5.01D-13
 IDIUse=1 WtCom= 1.00D+00 WtEn= 0.00D+00
 Coeff-Com: -0.492D-06 0.104D-05-0.862D-06-0.122D-07 0.197D-05-0.122D-04
 Coeff-Com: -0.225D-03-0.121D-02-0.331D-02 0.350D-02 0.287D+00 0.714D+00
 Coeff:     -0.492D-06 0.104D-05-0.862D-06-0.122D-07 0.197D-05-0.122D-04
 Coeff:     -0.225D-03-0.121D-02-0.331D-02 0.350D-02 0.287D+00 0.714D+00
 Gap=     0.156 Goal=   None    Shift=    0.000
 RMSDP=2.10D-08 MaxDP=8.34D-07 DE= 1.71D-12 OVMax= 4.10D-08

 Cycle  13  Pass 1  IDiag  1:
 E= -593.059434141739     Delta-E=       -0.000000000002 Rises=F Damp=F
 DIIS: error= 1.10D-09 at cycle  13 NSaved=  13.
 NSaved=13 IEnMin=13 EnMin= -593.059434141739     IErMin=13 ErrMin= 1.10D-09
 ErrMax= 1.10D-09  0.00D+00 EMaxC= 1.00D-01 BMatC= 1.96D-16 BMatP= 1.26D-14
 IDIUse=1 WtCom= 1.00D+00 WtEn= 0.00D+00
 Coeff-Com: -0.124D-07 0.169D-07 0.313D-06-0.722D-07 0.506D-06-0.244D-05
 Coeff-Com:  0.118D-04-0.162D-04-0.317D-03 0.531D-03-0.120D-01 0.145D-01
 Coeff-Com:  0.997D+00
 Coeff:     -0.124D-07 0.169D-07 0.313D-06-0.722D-07 0.506D-06-0.244D-05
 Coeff:      0.118D-04-0.162D-04-0.317D-03 0.531D-03-0.120D-01 0.145D-01
 Coeff:      0.997D+00
 Gap=     0.156 Goal=   None    Shift=    0.000
 RMSDP=1.62D-09 MaxDP=5.41D-08 DE=-1.82D-12 OVMax= 7.47D-09

 SCF Done:  E(RB3LYP) =  -593.059434142     A.U. after   13 cycles
            NFock= 13  Conv=0.16D-08     -V/T= 2.0047
 KE= 5.903128723448D+02 PE=-1.625329925596D+03 EE= 3.344482488235D+02
 Leave Link  502 at Sun Oct 13 09:48:07 2024, MaxMem=  2684354560 cpu:              34.4 elap:               1.5
 (Enter /usr/local/g16_AVX//g16/l801.exe)
 DoSCS=F DFT=T ScalE2(SS,OS)=  1.000000  1.000000
 Range of M.O.s used for correlation:     1    98
 NBasis=    98 NAE=    20 NBE=    20 NFC=     0 NFV=     0
 NROrb=     98 NOA=    20 NOB=    20 NVA=    78 NVB=    78

 **** Warning!!: The largest alpha MO coefficient is  0.13601258D+03

 Leave Link  801 at Sun Oct 13 09:48:07 2024, MaxMem=  2684354560 cpu:               0.4 elap:               0.0
 (Enter /usr/local/g16_AVX//g16/l1101.exe)
 Using compressed storage, NAtomX=     7.
 Will process      8 centers per pass.
 Leave Link 1101 at Sun Oct 13 09:48:07 2024, MaxMem=  2684354560 cpu:               5.6 elap:               0.3
 (Enter /usr/local/g16_AVX//g16/l1102.exe)
 Symmetrizing basis deriv contribution to polar:
 IMax=3 JMax=2 DiffMx= 0.00D+00
 Leave Link 1102 at Sun Oct 13 09:48:07 2024, MaxMem=  2684354560 cpu:               3.4 elap:               0.2
 (Enter /usr/local/g16_AVX//g16/l1110.exe)
 Forming Gx(P) for the SCF density, NAtomX=     7.
 Integral derivatives from FoFJK, PRISM(SPDF).
 Do as many integral derivatives as possible in FoFJK.
 G2DrvN: MDV=    2684353864.
 G2DrvN: will do     8 centers at a time, making    1 passes.
 Calling FoFCou, ICntrl=  3107 FMM=F I1Cent=   0 AccDes= 0.00D+00.
 FoFJK:  IHMeth= 1 ICntrl=    3107 DoSepK=F KAlg= 0 I1Cent=           0 FoldK=F
 IRaf=         0 NMat=       1 IRICut=       1 DoRegI=T DoRafI=F ISym2E= 0 IDoP0=0 IntGTp=1.
 FoFCou: FMM=F IPFlag=           0 FMFlag=      100000 FMFlg1=           0
         NFxFlg=           0 DoJE=F BraDBF=F KetDBF=F FulRan=T
         wScrn=  0.000000 ICntrl=      3107 IOpCl=  0 I1Cent=           0 NGrid=           0
         NMat0=    1 NMatS0=      1 NMatT0=    0 NMatD0=    1 NMtDS0=    0 NMtDT0=    0
 Symmetry not used in FoFCou.
 End of G2Drv F.D. properties file   721 does not exist.
 End of G2Drv F.D. properties file   722 does not exist.
 End of G2Drv F.D. properties file   788 does not exist.
 Leave Link 1110 at Sun Oct 13 09:48:09 2024, MaxMem=  2684354560 cpu:              39.2 elap:               1.5
 (Enter /usr/local/g16_AVX//g16/l1002.exe)
 Minotr:  Closed shell wavefunction.
          IDoAtm=1111111
          Direct CPHF calculation.
          Differentiating once with respect to electric field.
                with respect to dipole field.
          Differentiating once with respect to nuclear coordinates.
          Requested convergence is 1.0D-08 RMS, and 1.0D-07 maximum.
          Secondary convergence is 1.0D-12 RMS, and 1.0D-12 maximum.
          NewPWx=T KeepS1=F KeepF1=F KeepIn=T MapXYZ=F SortEE=F KeepMc=T.
         2136 words used for storage of precomputed grid.
 Keep R1 ints in memory in canonical form, NReq=35668397.
 FoFCou: FMM=F IPFlag=           0 FMFlag=           0 FMFlg1=           0
         NFxFlg=           0 DoJE=F BraDBF=F KetDBF=F FulRan=T
         wScrn=  0.000000 ICntrl=       600 IOpCl=  0 I1Cent=           0 NGrid=           0
         NMat0=    1 NMatS0=   4851 NMatT0=    0 NMatD0=    1 NMtDS0=    0 NMtDT0=    0
 Symmetry not used in FoFCou.
 Two-electron integral symmetry not used.
          MDV=    2684354560 using IRadAn=       1.
          Solving linear equations simultaneously, MaxMat=       0.
          There are    24 degrees of freedom in the 1st order CPHF.  IDoFFX=6 NUNeed=     3.
     21 vectors produced by pass  0 Test12= 6.50D-15 4.17D-09 XBig12= 6.92D+01 2.89D+00.
 AX will form    21 AO Fock derivatives at one time.
     21 vectors produced by pass  1 Test12= 6.50D-15 4.17D-09 XBig12= 4.77D+01 2.27D+00.
     21 vectors produced by pass  2 Test12= 6.50D-15 4.17D-09 XBig12= 1.48D+00 3.21D-01.
     21 vectors produced by pass  3 Test12= 6.50D-15 4.17D-09 XBig12= 9.84D-03 2.16D-02.
     21 vectors produced by pass  4 Test12= 6.50D-15 4.17D-09 XBig12= 1.35D-05 7.32D-04.
     18 vectors produced by pass  5 Test12= 6.50D-15 4.17D-09 XBig12= 1.34D-08 2.18D-05.
      5 vectors produced by pass  6 Test12= 6.50D-15 4.17D-09 XBig12= 1.91D-11 9.40D-07.
      3 vectors produced by pass  7 Test12= 6.50D-15 4.17D-09 XBig12= 3.05D-14 5.13D-08.
 InvSVY:  IOpt=1 It=  1 EMax= 7.82D-15
 Solved reduced A of dimension   131 with    24 vectors.
 FullF1:  Do perturbations      1 to       3.
 Isotropic polarizability for W=    0.000000       54.01 Bohr**3.
 End of Minotr F.D. properties file   721 does not exist.
 End of Minotr F.D. properties file   722 does not exist.
 End of Minotr F.D. properties file   788 does not exist.
 Leave Link 1002 at Sun Oct 13 09:48:11 2024, MaxMem=  2684354560 cpu:              53.1 elap:               2.1
 (Enter /usr/local/g16_AVX//g16/l601.exe)
 Copying SCF densities to generalized density rwf, IOpCl= 0 IROHF=0.

 **********************************************************************

            Population analysis using the SCF Density.

 **********************************************************************

 Alpha  occ. eigenvalues -- -101.25505 -14.22504 -10.12186 -10.09119  -9.16867
 Alpha  occ. eigenvalues --   -6.92652  -6.92652  -6.92627  -0.79528  -0.64010
 Alpha  occ. eigenvalues --   -0.50777  -0.37759  -0.32341  -0.32311  -0.25605
 Alpha  occ. eigenvalues --   -0.21390  -0.21384  -0.05373  -0.05356  -0.05356
 Alpha virt. eigenvalues --    0.10262   0.13833   0.13840   0.14411   0.14974
 Alpha virt. eigenvalues --    0.14976   0.20013   0.20712   0.20715   0.21938
 Alpha virt. eigenvalues --    0.23368   0.23373   0.25511   0.26020   0.26021
 Alpha virt. eigenvalues --    0.29724   0.32916   0.33829   0.33833   0.34698
 Alpha virt. eigenvalues --    0.34718   0.35744   0.39474   0.41326   0.48728
 Alpha virt. eigenvalues --    0.69008   0.78960   0.78960   0.84750   0.84760
 Alpha virt. eigenvalues --    0.85250   0.85260   0.85965   0.89444   0.98539
 Alpha virt. eigenvalues --    1.02711   1.02748   1.03895   1.09800   1.12347
 Alpha virt. eigenvalues --    1.12349   1.15317   1.15318   1.16018   1.16021
 Alpha virt. eigenvalues --    1.22134   1.26752   1.28470   1.45701   1.45717
 Alpha virt. eigenvalues --    1.54355   1.62911   1.62914   1.86625   1.86654
 Alpha virt. eigenvalues --    1.91600   2.05636   2.05641   2.15268   2.24188
 Alpha virt. eigenvalues --    2.24298   2.32126   2.40102   2.40151   2.79255
 Alpha virt. eigenvalues --    2.80581   2.80664   3.06048   3.09568   3.09653
 Alpha virt. eigenvalues --    3.28965   3.45913   3.55718   3.55828   4.25874
 Alpha virt. eigenvalues --    4.45034   4.58437   4.81474
          Condensed to atoms (all electrons):
               1          2          3          4          5          6
     1  C    6.022976  -0.129605   0.419242   0.420349   0.419670  -1.098362
     2  Cl  -0.129605  17.938712  -0.008659  -0.008574  -0.008657   0.133026
     3  H    0.419242  -0.008659   0.484875  -0.024319  -0.024206  -0.060305
     4  H    0.420349  -0.008574  -0.024319   0.484846  -0.024373  -0.061315
     5  H    0.419670  -0.008657  -0.024206  -0.024373   0.485048  -0.060768
     6  C   -1.098362   0.133026  -0.060305  -0.061315  -0.060768   6.852932
     7  N   -0.061409   0.001327  -0.005378  -0.005424  -0.005411   0.456343
               7
     1  C   -0.061409
     2  Cl   0.001327
     3  H   -0.005378
     4  H   -0.005424
     5  H   -0.005411
     6  C    0.456343
     7  N    7.204231
 Mulliken charges:
               1
     1  C    0.007139
     2  Cl  -0.917568
     3  H    0.218752
     4  H    0.218809
     5  H    0.218697
     6  C   -0.161551
     7  N   -0.584278
 Sum of Mulliken charges =  -1.00000
 Mulliken charges with hydrogens summed into heavy atoms:
               1
     1  C    0.663397
     2  Cl  -0.917568
     6  C   -0.161551
     7  N   -0.584278
 APT charges:
               1
     1  C   -0.001830
     2  Cl  -0.980345
     3  H    0.085990
     4  H    0.086254
     5  H    0.085843
     6  C    0.219911
     7  N   -0.495823
 Sum of APT charges =  -1.00000
 APT charges with hydrogens summed into heavy atoms:
               1
     1  C    0.256257
     2  Cl  -0.980345
     6  C    0.219911
     7  N   -0.495823
 Electronic spatial extent (au):  <R**2>=            874.3287
 Charge=             -1.0000 electrons
 Dipole moment (field-independent basis, Debye):
    X=              5.6888    Y=              0.0004    Z=              0.0003  Tot=              5.6888
 Quadrupole moment (field-independent basis, Debye-Ang):
   XX=            -86.4156   YY=            -35.4086   ZZ=            -35.4070
   XY=             -0.0011   XZ=              0.0057   YZ=             -0.0006
 Traceless Quadrupole moment (field-independent basis, Debye-Ang):
   XX=            -34.0052   YY=             17.0018   ZZ=             17.0034
   XY=             -0.0011   XZ=              0.0057   YZ=             -0.0006
 Octapole moment (field-independent basis, Debye-Ang**2):
  XXX=            -13.8395  YYY=             -0.0083  ZZZ=             -0.8521  XYY=              4.0549
  XXY=             -0.0008  XXZ=              0.0038  XZZ=              4.0561  YZZ=              0.0052
  YYZ=              0.8489  XYZ=             -0.0015
 Hexadecapole moment (field-independent basis, Debye-Ang**3):
 XXXX=          -1736.0150 YYYY=            -57.9236 ZZZZ=            -57.9190 XXXY=              0.0173
 XXXZ=              0.1424 YYYX=              0.0038 YYYZ=             -0.0014 ZZZX=             -0.1686
 ZZZY=             -0.0028 XXYY=           -220.5310 XXZZ=           -220.5291 YYZZ=            -19.3049
 XXYZ=             -0.0014 YYXZ=              0.2716 ZZXY=              0.0036
 N-N= 1.075093702860D+02 E-N=-1.625329925344D+03  KE= 5.903128723448D+02
  Exact polarizability:  79.111  -0.006  41.454  -0.008   0.004  41.452
 Approx polarizability:  97.887  -0.010  50.156  -0.007   0.005  50.151
 No NMR shielding tensors so no spin-rotation constants.
 Leave Link  601 at Sun Oct 13 09:48:11 2024, MaxMem=  2684354560 cpu:               3.7 elap:               0.2
 (Enter /usr/local/g16_AVX//g16/l701.exe)
 ... and contract with generalized density number  0.
 Compute integral second derivatives.
 Leave Link  701 at Sun Oct 13 09:48:11 2024, MaxMem=  2684354560 cpu:               4.8 elap:               0.2
 (Enter /usr/local/g16_AVX//g16/l702.exe)
 L702 exits ... SP integral derivatives will be done elsewhere.
 Leave Link  702 at Sun Oct 13 09:48:11 2024, MaxMem=  2684354560 cpu:               1.0 elap:               0.1
 (Enter /usr/local/g16_AVX//g16/l703.exe)
 Integral derivatives from FoFJK, PRISM(SPDF).
 Compute integral second derivatives, UseDBF=F ICtDFT=           0.
 Calling FoFJK, ICntrl=    100127 FMM=F ISym2X=0 I1Cent= 0 IOpClX= 0 NMat=1 NMatS=1 NMatT=0.
 FoFJK:  IHMeth= 1 ICntrl=  100127 DoSepK=F KAlg= 0 I1Cent=           0 FoldK=F
 IRaf=         0 NMat=       1 IRICut=       1 DoRegI=T DoRafI=F ISym2E= 0 IDoP0=0 IntGTp=1.
 FoFCou: FMM=F IPFlag=           0 FMFlag=      100000 FMFlg1=         800
         NFxFlg=           0 DoJE=F BraDBF=F KetDBF=F FulRan=T
         wScrn=  0.000000 ICntrl=    100127 IOpCl=  0 I1Cent=           0 NGrid=           0
         NMat0=    1 NMatS0=      1 NMatT0=    0 NMatD0=    1 NMtDS0=    0 NMtDT0=    0
 Symmetry not used in FoFCou.
 Leave Link  703 at Sun Oct 13 09:48:14 2024, MaxMem=  2684354560 cpu:              63.3 elap:               2.5
 (Enter /usr/local/g16_AVX//g16/l716.exe)
 Dipole        = 2.23815310D+00 1.64629888D-04 1.13925743D-04
 Polarizability= 7.91114566D+01-5.73570626D-03 4.14544734D+01
                -8.43212887D-03 3.56943532D-03 4.14518884D+01
 Full mass-weighted force constant matrix:
 Low frequencies ---  -69.2854  -68.0418  -26.9219  -26.8881   -0.0049   -0.0040
 Low frequencies ---   -0.0032  120.3770  142.0762
 ******    2 imaginary frequencies (negative Signs) ****** 
 Diagonal vibrational polarizability:
       28.1145775     133.7436100     131.4244631
 Harmonic frequencies (cm**-1), IR intensities (KM/Mole), Raman scattering
 activities (A**4/AMU), depolarization ratios for plane and unpolarized
 incident light, reduced masses (AMU), force constants (mDyne/A),
 and normal coordinates:
                      1                      2                      3
                      A                      A                      A
 Frequencies --    -66.5501               -65.4918               142.0762
 Red. masses --      3.6403                 3.6518                12.2864
 Frc consts  --      0.0095                 0.0092                 0.1461
 IR Inten    --     21.3854                21.4124                20.1335
  Atom  AN      X      Y      Z        X      Y      Z        X      Y      Z
     1   6     0.00  -0.18   0.33     0.00   0.33   0.18    -0.36  -0.00   0.00
     2  17    -0.00   0.04  -0.07    -0.00  -0.07  -0.04     0.44   0.00  -0.00
     3   1    -0.24  -0.23   0.42    -0.13   0.41   0.23    -0.36  -0.00   0.00
     4   1     0.01  -0.22   0.41     0.27   0.42   0.23    -0.36  -0.00  -0.00
     5   1     0.23  -0.24   0.42    -0.14   0.42   0.22    -0.36   0.00  -0.00
     6   6     0.00  -0.02   0.03     0.00   0.03   0.02    -0.38  -0.00   0.00
     7   7     0.00   0.12  -0.21     0.00  -0.22  -0.12    -0.38   0.00  -0.00
                      4                      5                      6
                      A                      A                      A
 Frequencies --    373.0695               374.0967               928.9353
 Red. masses --      3.4624                 3.4626                 4.8088
 Frc consts  --      0.2839                 0.2855                 2.4449
 IR Inten    --      1.2471                 1.2218                12.0847
  Atom  AN      X      Y      Z        X      Y      Z        X      Y      Z
     1   6    -0.00   0.03  -0.05    -0.00  -0.06  -0.03     0.44  -0.00  -0.00
     2  17    -0.00   0.00  -0.00    -0.00  -0.00  -0.00    -0.00  -0.00   0.00
     3   1     0.53   0.14  -0.26     0.28  -0.25  -0.14     0.47   0.00  -0.01
     4   1    -0.02   0.13  -0.25    -0.59  -0.26  -0.14     0.48   0.01   0.00
     5   1    -0.51   0.14  -0.25     0.31  -0.26  -0.13     0.47  -0.01   0.00
     6   6     0.00  -0.19   0.35     0.00   0.35   0.19    -0.20   0.00   0.00
     7   7     0.00   0.11  -0.20     0.00  -0.20  -0.11    -0.30  -0.00  -0.00
                      7                      8                      9
                      A                      A                      A
 Frequencies --   1017.8267              1017.9258              1352.2332
 Red. masses --      1.5090                 1.5083                 1.2162
 Frc consts  --      0.9211                 0.9208                 1.3102
 IR Inten    --      1.5127                 1.5252                42.7346
  Atom  AN      X      Y      Z        X      Y      Z        X      Y      Z
     1   6    -0.00   0.14  -0.09    -0.00  -0.09  -0.14    -0.14  -0.00  -0.00
     2  17     0.00  -0.00   0.00     0.00   0.00   0.00     0.00  -0.00  -0.00
     3   1    -0.40  -0.27   0.07    -0.60   0.18   0.10     0.52   0.00  -0.23
     4   1    -0.32  -0.19   0.23     0.64   0.02   0.18     0.52   0.20   0.12
     5   1     0.72  -0.09   0.08    -0.05   0.17   0.28     0.52  -0.20   0.12
     6   6    -0.00  -0.11   0.07     0.00   0.07   0.11     0.00   0.00   0.00
     7   7    -0.00   0.02  -0.01     0.00  -0.01  -0.02     0.00   0.00   0.00
                     10                     11                     12
                      A                      A                      A
 Frequencies --   1442.2285              1443.4548              2350.8607
 Red. masses --      1.0401                 1.0403                12.4985
 Frc consts  --      1.2746                 1.2770                40.6969
 IR Inten    --     12.4285                12.5219                53.4024
  Atom  AN      X      Y      Z        X      Y      Z        X      Y      Z
     1   6     0.00  -0.04  -0.02     0.00   0.02  -0.04    -0.09  -0.00   0.00
     2  17    -0.00  -0.00  -0.00    -0.00   0.00  -0.00     0.00   0.00   0.00
     3   1     0.14   0.66  -0.06     0.32  -0.29  -0.15    -0.07  -0.00   0.02
     4   1    -0.36  -0.10  -0.15    -0.04  -0.37   0.61    -0.07  -0.02  -0.01
     5   1     0.21   0.20   0.55    -0.29   0.32   0.30    -0.07   0.02  -0.01
     6   6    -0.00  -0.02  -0.01    -0.00   0.01  -0.02     0.79   0.00   0.00
     7   7    -0.00   0.00   0.00    -0.00  -0.00   0.00    -0.59  -0.00  -0.00
                     13                     14                     15
                      A                      A                      A
 Frequencies --   3090.8292              3170.5398              3178.0363
 Red. masses --      1.0339                 1.1027                 1.1031
 Frc consts  --      5.8195                 6.5311                 6.5645
 IR Inten    --      2.3235                 0.3047                 0.3179
  Atom  AN      X      Y      Z        X      Y      Z        X      Y      Z
     1   6    -0.05   0.00   0.00    -0.00  -0.08  -0.04    -0.00   0.04  -0.08
     2  17    -0.00  -0.00  -0.00    -0.00   0.00   0.00    -0.00  -0.00   0.00
     3   1     0.18  -0.00   0.51     0.13  -0.02   0.35     0.26   0.01   0.70
     4   1     0.21  -0.51  -0.30    -0.27   0.62   0.36    -0.02   0.06   0.01
     5   1     0.19   0.46  -0.26     0.18   0.40  -0.25    -0.23  -0.54   0.30
     6   6    -0.00  -0.00  -0.00    -0.00   0.00   0.00    -0.00  -0.00   0.00
     7   7     0.00   0.00   0.00     0.00  -0.00  -0.00     0.00   0.00  -0.00

 -------------------
 - Thermochemistry -
 -------------------
 Temperature   298.150 Kelvin.  Pressure   1.00000 Atm.
 Atom     1 has atomic number  6 and mass  12.00000
 Atom     2 has atomic number 17 and mass  34.96885
 Atom     3 has atomic number  1 and mass   1.00783
 Atom     4 has atomic number  1 and mass   1.00783
 Atom     5 has atomic number  1 and mass   1.00783
 Atom     6 has atomic number  6 and mass  12.00000
 Atom     7 has atomic number  7 and mass  14.00307
 Molecular mass:    75.99540 amu.
 Principal axes and moments of inertia in atomic units:
                           1         2         3
     Eigenvalues --    11.268811516.595881516.59683
           X            1.00000   0.00011  -0.00006
           Y           -0.00001   0.50776   0.86150
           Z           -0.00013   0.86150  -0.50776
 This molecule is an asymmetric top.
 Rotational symmetry number  1.
 Rotational temperatures (Kelvin)      7.68616     0.05711     0.05711
 Rotational constants (GHZ):         160.15363     1.18999     1.18999
    2 imaginary frequencies ignored.
 Zero-point vibrational energy     118921.4 (Joules/Mol)
                                   28.42291 (Kcal/Mol)
 Warning -- explicit consideration of   3 degrees of freedom as
           vibrations may cause significant error
 Vibrational temperatures:    204.42   536.76   538.24  1336.53  1464.43
          (Kelvin)           1464.57  1945.56  2075.05  2076.81  3382.36
                             4447.01  4561.70  4572.49
 
 Zero-point correction=                           0.045295 (Hartree/Particle)
 Thermal correction to Energy=                    0.049595
 Thermal correction to Enthalpy=                  0.050539
 Thermal correction to Gibbs Free Energy=         0.017793
 Sum of electronic and zero-point Energies=           -593.014139
 Sum of electronic and thermal Energies=              -593.009839
 Sum of electronic and thermal Enthalpies=            -593.008895
 Sum of electronic and thermal Free Energies=         -593.041641
 
                     E (Thermal)             CV                S
                      KCal/Mol        Cal/Mol-Kelvin    Cal/Mol-Kelvin
 Total                   31.121             12.414             68.920
 Electronic               0.000              0.000              0.000
 Translational            0.889              2.981             38.900
 Rotational               0.889              2.981             24.764
 Vibrational             29.344              6.452              5.257
 Vibration     1          0.616              1.911              2.776
 Vibration     2          0.744              1.527              1.067
 Vibration     3          0.745              1.525              1.063
                       Q            Log10(Q)             Ln(Q)
 Total Bot       0.654266D-08         -8.184245        -18.844921
 Total V=0       0.446572D+13         12.649891         29.127451
 Vib (Bot)       0.435979D-20        -20.360535        -46.881864
 Vib (Bot)    1  0.143037D+01          0.155447          0.357930
 Vib (Bot)    2  0.486977D+00         -0.312491         -0.719538
 Vib (Bot)    3  0.485297D+00         -0.313993         -0.722995
 Vib (V=0)       0.297579D+01          0.473602          1.090508
 Vib (V=0)    1  0.201524D+01          0.304326          0.700737
 Vib (V=0)    2  0.119796D+01          0.078442          0.180619
 Vib (V=0)    3  0.119679D+01          0.078017          0.179641
 Electronic      0.100000D+01          0.000000          0.000000
 Translational   0.260396D+08          7.415635         17.075130
 Rotational      0.576308D+05          4.760655         10.961812
 
                                                       RxCoord=-6.39110 DE=1.94
                                                             IR Spectrum
 
     33  3                             2                                  11  1             1                                        
     11  0                             3                                  44  3             0  9                     33        1     
     77  9                             5                                  44  5             1  2                     77        4     
     81  1                             1                                  32  2             8  9                     43        2     
 
     XX  X                             X                                  XX  X             X  X                     XX        X     
                                       X                                  XX  X                X                               X     
                                       X                                  XX  X                X                               X     
                                       X                                  XX  X                X                               X     
                                       X                                  XX  X                X                               X     
                                       X                                      X                                                X     
                                       X                                      X                                                X     
                                       X                                      X                                                X     
                                       X                                      X                                                      
                                       X                                      X                                                      
                                       X                                      X                                                      
                                       X                                      X                                                      
                                       X                                      X                                                      
                                       X                                      X                                                      
                                       X                                      X                                                      
                                       X                                      X                                                      
                                       X                                                                                             
                                       X                                                                                             
                                       X                                                                                             
                                       X                                                                                             
 
 -------------------------------------------------------------------
 Center     Atomic                   Forces (Hartrees/Bohr)
 Number     Number              X              Y              Z
 -------------------------------------------------------------------
      1        6           0.004103367    0.000504737    0.000417911
      2       17          -0.003783028    0.000003275    0.000001797
      3        1          -0.003091426   -0.000048108    0.000790423
      4        1          -0.002649925   -0.001300562   -0.000778857
      5        1          -0.003034420    0.000747930   -0.000506293
      6        6           0.002710185    0.000109061    0.000111155
      7        7           0.005745248   -0.000016334   -0.000036137
 -------------------------------------------------------------------
 Cartesian Forces:  Max     0.005745248 RMS     0.002198319
 Z-matrix is all fixed cartesians, so copy forces.
 Force constants in Cartesian coordinates: 
                1             2             3             4             5 
      1  0.487864D+00
      2  0.477945D-03  0.557127D+00
      3  0.522755D-03 -0.111537D-02  0.559006D+00
      4 -0.823165D-02 -0.110324D-05  0.378778D-05  0.145428D-01
      5 -0.731626D-05 -0.185500D-03  0.000000D+00  0.120093D-05 -0.474977D-03
      6 -0.194991D-05  0.000000D+00 -0.187072D-03 -0.150976D-04  0.000000D+00
      7 -0.702539D-01  0.211224D-03 -0.914674D-01 -0.957820D-03  0.269800D-05
      8  0.192484D-03 -0.402013D-01  0.635697D-03  0.000000D+00 -0.107849D-02
      9 -0.900810D-01  0.668828D-03 -0.295458D+00 -0.134934D-02 -0.375076D-05
     10 -0.702087D-01  0.783198D-01  0.454922D-01 -0.942427D-03  0.837552D-03
     11  0.771008D-01 -0.229367D+00 -0.109725D+00  0.116822D-02  0.172388D-03
     12  0.447816D-01 -0.109723D+00 -0.104254D+00  0.683804D-03  0.724681D-03
     13 -0.700684D-01 -0.789954D-01  0.453837D-01 -0.942024D-03 -0.835095D-03
     14 -0.777994D-01 -0.231896D+00  0.110205D+00 -0.117296D-02  0.181549D-03
     15  0.446764D-01  0.110170D+00 -0.103606D+00  0.676012D-03 -0.720646D-03
     16 -0.257975D+00 -0.207702D-05  0.839545D-04 -0.739586D-03  0.270061D-05
     17  0.391152D-04 -0.774621D-01  0.308024D-05  0.536543D-05  0.165252D-02
     18  0.687817D-04  0.308054D-05 -0.775018D-01  0.000000D+00  0.110876D-05
     19 -0.111265D-01 -0.104064D-04 -0.190176D-04 -0.272927D-02 -0.174025D-05
     20 -0.366834D-05  0.219853D-01 -0.321358D-05 -0.117354D-05 -0.267498D-03
     21  0.333797D-04 -0.322958D-05  0.220008D-01  0.000000D+00  0.000000D+00
                6             7             8             9            10 
      6 -0.475474D-03
      7 -0.956447D-03  0.834007D-01
      8 -0.368531D-05 -0.250587D-03  0.426441D-01
      9  0.577011D-03  0.100175D+00 -0.671675D-03  0.314436D+00
     10  0.489788D-03  0.430935D-02 -0.942233D-02 -0.462837D-02  0.832488D-01
     11  0.724726D-03 -0.741608D-03  0.451441D-03  0.126223D-02 -0.858410D-01
     12 -0.647357D-03  0.104851D-01 -0.240923D-01 -0.128401D-01 -0.498754D-01
     13  0.483542D-03  0.430808D-02  0.948569D-02 -0.459423D-02  0.430060D-02
     14 -0.720755D-03  0.711663D-03  0.384980D-03 -0.123780D-02 -0.866815D-02
     15 -0.652312D-03  0.104912D-01  0.241647D-01 -0.127134D-01 -0.587172D-02
     16  0.133737D-05 -0.212509D-01  0.700755D-05 -0.287115D-02 -0.211842D-01
     17  0.111237D-05  0.754902D-04 -0.336249D-02 -0.249405D-04  0.282814D-01
     18  0.165303D-02 -0.327976D-01 -0.428834D-04  0.764081D-02  0.164299D-01
     19 -0.117331D-05  0.444465D-03 -0.127259D-04  0.334896D-02  0.476506D-03
     20  0.000000D+00 -0.887969D-05  0.116177D-02  0.711459D-05 -0.350724D-02
     21 -0.267821D-03  0.407005D-02  0.101778D-04 -0.164234D-02 -0.203638D-02
               11            12            13            14            15 
     11  0.244229D+00
     12  0.116924D+00  0.110880D+00
     13  0.873312D-02 -0.584333D-02  0.831745D-01
     14 -0.194159D-01  0.126042D-01  0.865353D-01  0.246806D+00
     15 -0.127619D-01  0.702216D-02 -0.497523D-01 -0.117325D+00  0.110128D+00
     16  0.247401D-02  0.145046D-02 -0.212199D-01 -0.250609D-02  0.145361D-02
     17  0.486342D-02  0.477725D-02 -0.284568D-01  0.487914D-02 -0.473544D-02
     18  0.479264D-02 -0.616624D-03  0.163510D-01 -0.473287D-02 -0.643495D-03
     19 -0.289355D-02 -0.168225D-02  0.447059D-03  0.289966D-02 -0.167313D-02
     20 -0.933435D-03 -0.121490D-02  0.353312D-02 -0.939872D-03  0.120858D-02
     21 -0.121673D-02  0.455328D-03 -0.202840D-02  0.120735D-02  0.465565D-03
               16            17            18            19            20 
     16  0.156078D+01
     17  0.396228D-04  0.107792D+00
     18  0.457951D-04 -0.232262D-04  0.107833D+00
     19 -0.123841D+01  0.157495D-04 -0.987137D-04  0.125089D+01
     20 -0.151770D-04 -0.383623D-01  0.215242D-05  0.301290D-05  0.173560D-01
     21 -0.164009D-03  0.215725D-05 -0.383652D-01  0.125325D-03  0.000000D+00
               21 
     21  0.173536D-01
 Leave Link  716 at Sun Oct 13 09:48:14 2024, MaxMem=  2684354560 cpu:               1.2 elap:               0.1
 (Enter /usr/local/g16_AVX//g16/l103.exe)

 GradGradGradGradGradGradGradGradGradGradGradGradGradGradGradGradGradGrad
 Berny optimization.
 Search for a local minimum.
 Step number   1 out of a maximum of    2
 All quantities printed in internal units (Hartrees-Bohrs-Radians)
 Second derivative matrix not updated -- analytic derivatives used.
 ITU=  0
     Eigenvalues ---   -0.00077  -0.00075   0.01430   0.02405   0.02415
     Eigenvalues ---    0.09549   0.09569   0.09708   0.16184   0.16199
     Eigenvalues ---    0.28157   0.65066   0.82204   0.82634   2.66916
 Eigenvalue     1 is  -7.66D-04 should be greater than     0.000000 Eigenvector:
                          Z3        Z5        Z4        Z7        Z1
   1                    0.39034   0.38042   0.37071  -0.31082   0.29700
                          X3        X5        Z2        Y5        Y3
   1                   -0.24641   0.24071  -0.23710  -0.22029  -0.20445
 Eigenvalue     2 is  -7.45D-04 should be greater than     0.000000 Eigenvector:
                          Y4        Y5        Y3        Y7        Y1
   1                    0.38980   0.38073   0.37124  -0.31149   0.29729
                          X4        Y2        Z4        Z3        Z5
   1                    0.27977  -0.23721   0.21539   0.21484   0.19814
 Angle between quadratic step and forces=  50.40 degrees.
 Linear search not attempted -- first point.
 B after Tr=    -0.024716   -0.000533   -0.001146
         Rot=    1.000000    0.000000    0.000096   -0.000064 Ang=   0.01 deg.
 Variable       Old X    -DE/DX   Delta X   Delta X   Delta X     New X
                                 (Linear)    (Quad)   (Total)
    X1        1.41039   0.00410   0.00000   0.07738   0.05266   1.46305
    Y1        0.00008   0.00050   0.00000   0.00111   0.00077   0.00085
    Z1        0.00037   0.00042   0.00000   0.00264   0.00178   0.00215
    X2       -4.51490  -0.00378   0.00000  -0.18361  -0.20833  -4.72323
    Y2       -0.00001   0.00000   0.00000  -0.00089  -0.00203  -0.00203
    Z2        0.00046   0.00000   0.00000  -0.00193  -0.00398  -0.00352
    X3        0.68863  -0.00309   0.00000   0.02824   0.00389   0.69252
    Y3        0.00499  -0.00005   0.00000   0.00103   0.00058   0.00558
    Z3       -1.92921   0.00079   0.00000   0.01781   0.01680  -1.91240
    X4        0.68683  -0.00265   0.00000   0.03515   0.01004   0.69687
    Y4        1.67016  -0.00130   0.00000  -0.01192  -0.01236   1.65780
    Z4        0.97070  -0.00078   0.00000  -0.00506  -0.00607   0.96463
    X5        0.69028  -0.00303   0.00000   0.02984   0.00515   0.69543
    Y5       -1.67361   0.00075   0.00000   0.01398   0.01354  -1.66007
    Z5        0.96270  -0.00051   0.00000  -0.00494  -0.00595   0.95675
    X6        4.15821   0.00271   0.00000   0.09110   0.06639   4.22460
    Y6       -0.00011   0.00011   0.00000   0.00006   0.00006  -0.00005
    Z6       -0.00111   0.00011   0.00000   0.00050   0.00017  -0.00094
    X7        6.35401   0.00575   0.00000   0.09492   0.07020   6.42422
    Y7       -0.00007  -0.00002   0.00000  -0.00085  -0.00056  -0.00063
    Z7       -0.00081  -0.00004   0.00000  -0.00285  -0.00275  -0.00356
         Item               Value     Threshold  Converged?
 Maximum Force            0.005745     0.000450     NO 
 RMS     Force            0.002198     0.000300     NO 
 Maximum Displacement     0.208328     0.001800     NO 
 RMS     Displacement     0.051812     0.001200     NO 
 Predicted change in Energy=-7.908668D-04
 GradGradGradGradGradGradGradGradGradGradGradGradGradGradGradGradGradGrad

 Leave Link  103 at Sun Oct 13 09:48:14 2024, MaxMem=  2684354560 cpu:               3.7 elap:               0.2
 (Enter /usr/local/g16_AVX//g16/l9999.exe)

 ----------------------------------------------------------------------

 Electric dipole moment (input orientation):
 (Debye = 10**-18 statcoulomb cm , SI units = C m)
                  (au)            (Debye)         (10**-30 SI)
   Tot        0.223815D+01      0.568882D+01      0.189759D+02
   x          0.223815D+01      0.568882D+01      0.189759D+02
   y          0.164630D-03      0.418447D-03      0.139579D-02
   z          0.113926D-03      0.289570D-03      0.965903D-03

 Dipole polarizability, Alpha (input orientation).
 (esu units = cm**3 , SI units = C**2 m**2 J**-1)
 Alpha(0;0):
               (au)            (10**-24 esu)      (10**-40 SI)
   iso        0.540059D+02      0.800285D+01      0.890438D+01
   aniso      0.376583D+02      0.558038D+01      0.620901D+01
   xx         0.791115D+02      0.117231D+02      0.130437D+02
   yx        -0.573571D-02     -0.849944D-03     -0.945690D-03
   yy         0.414545D+02      0.614292D+01      0.683492D+01
   zx        -0.843213D-02     -0.124951D-02     -0.139027D-02
   zy         0.356944D-02      0.528936D-03      0.588520D-03
   zz         0.414519D+02      0.614254D+01      0.683449D+01

 ----------------------------------------------------------------------

 Dipole orientation:
     6         -0.00030048         -0.00002062          1.41038766
    17         -0.00068715          0.00032449         -4.51489960
     1          1.92924096          0.00508580          0.68852781
     1         -0.97078538          1.67004259          0.68700456
     1         -0.96254006         -1.67372728          0.69020883
     6          0.00132474         -0.00041537          4.15821375
     7          0.00113227         -0.00053532          6.35401316

 Electric dipole moment (dipole orientation):
 (Debye = 10**-18 statcoulomb cm , SI units = C m)
                  (au)            (Debye)         (10**-30 SI)
   Tot        0.223815D+01      0.568882D+01      0.189759D+02
   x          0.000000D+00      0.000000D+00      0.000000D+00
   y          0.000000D+00      0.000000D+00      0.000000D+00
   z          0.223815D+01      0.568882D+01      0.189759D+02

 Dipole polarizability, Alpha (dipole orientation).
 (esu units = cm**3 , SI units = C**2 m**2 J**-1)
 Alpha(0;0):
               (au)            (10**-24 esu)      (10**-40 SI)
   iso        0.540059D+02      0.800285D+01      0.890438D+01
   aniso      0.376583D+02      0.558038D+01      0.620901D+01
   xx         0.414519D+02      0.614254D+01      0.683449D+01
   yx        -0.357068D-02     -0.529120D-03     -0.588725D-03
   yy         0.414545D+02      0.614292D+01      0.683492D+01
   zx         0.103494D-01      0.153363D-02      0.170639D-02
   zy        -0.850467D-02     -0.126026D-02     -0.140223D-02
   zz         0.791115D+02      0.117231D+02      0.130437D+02

 ----------------------------------------------------------------------
 1\1\GINC-NODO8\Freq\RB3LYP\6-31++G(d,p)\C2H3Cl1N1(1-)\ALANQF\13-Oct-20
 24\0\\#p b3lyp 6-31++g(d,p) scf=verytight NoSymm freq=noraman int=ultr
 afine\\RxCoord=-6.39110 DE=1.94\\-1,1\C,0.746345,0.000044,0.000197\Cl,
 -2.389182,-0.000004,0.000242\H,0.364405,0.002643,-1.020892\H,0.363456,
 0.883813,0.513671\H,0.365282,-0.885634,0.509438\C,2.200432,-0.000058,-
 0.000589\N,3.362399,-0.000036,-0.000428\\Version=ES64L-G16RevB.01\HF=-
 593.0594341\RMSD=1.622e-09\RMSF=2.198e-03\ZeroPoint=0.0452948\Thermal=
 0.0495953\Dipole=2.3202595,0.0001849,0.0001616\DipoleDeriv=-0.1251156,
 -0.0002378,-0.0001193,0.000022,0.0600142,0.0002462,0.0002524,0.0002463
 ,0.0596121,-1.08886,-0.0000125,0.0000071,-0.0002565,-0.9260657,0.00000
 89,-0.0001325,0.0000089,-0.9261095,0.1300667,-0.0000449,0.0147657,-0.0
 000793,0.1090096,0.0001306,-0.0175691,0.0001389,0.018893,0.1310573,-0.
 0124427,-0.0072029,0.0153467,0.0413613,-0.0393557,0.008922,-0.0393542,
 0.086342,0.1297789,0.0127807,-0.0073304,-0.0153098,0.0410393,0.0389514
 ,0.0086657,0.0389415,0.0867121,0.5375625,-0.0001862,-0.0005866,0.00032
 04,0.0611558,0.000027,-0.0001812,0.0000271,0.0610143,-0.7144897,0.0001
 434,0.0004664,-0.0000434,-0.3865145,-0.0000084,0.0000428,-0.0000084,-0
 .386464\Polar=79.1114566,-0.0057357,41.4544734,-0.0084321,0.0035694,41
 .4518884\Quadrupole=-25.2820663,12.6404268,12.6416395,-0.0008126,0.004
 2462,-0.0004481\PG=C01 [X(C2H3Cl1N1)]\NImag=2\\0.48786412,0.00047794,0
 .55712685,0.00052276,-0.00111537,0.55900587,-0.00823165,-0.00000110,0.
 00000379,0.01454278,-0.00000732,-0.00018550,-0.00000021,0.00000120,-0.
 00047498,-0.00000195,-0.00000022,-0.00018707,-0.00001510,-0.00000090,-
 0.00047547,-0.07025387,0.00021122,-0.09146741,-0.00095782,0.00000270,-
 0.00095645,0.08340071,0.00019248,-0.04020132,0.00063570,0.00000046,-0.
 00107849,-0.00000369,-0.00025059,0.04264412,-0.09008099,0.00066883,-0.
 29545783,-0.00134934,-0.00000375,0.00057701,0.10017512,-0.00067168,0.3
 1443584,-0.07020866,0.07831979,0.04549221,-0.00094243,0.00083755,0.000
 48979,0.00430935,-0.00942233,-0.00462837,0.08324879,0.07710085,-0.2293
 6704,-0.10972499,0.00116822,0.00017239,0.00072473,-0.00074161,0.000451
 44,0.00126223,-0.08584104,0.24422916,0.04478163,-0.10972305,-0.1042537
 9,0.00068380,0.00072468,-0.00064736,0.01048511,-0.02409230,-0.01284011
 ,-0.04987543,0.11692406,0.11088040,-0.07006835,-0.07899537,0.04538373,
 -0.00094202,-0.00083509,0.00048354,0.00430808,0.00948569,-0.00459423,0
 .00430060,0.00873312,-0.00584333,0.08317453,-0.07779941,-0.23189621,0.
 11020501,-0.00117296,0.00018155,-0.00072075,0.00071166,0.00038498,-0.0
 0123780,-0.00866815,-0.01941594,0.01260425,0.08653529,0.24680636,0.044
 67640,0.11016996,-0.10360614,0.00067601,-0.00072065,-0.00065231,0.0104
 9115,0.02416467,-0.01271338,-0.00587172,-0.01276194,0.00702216,-0.0497
 5233,-0.11732518,0.11012760,-0.25797508,-0.00000208,0.00008395,-0.0007
 3959,0.00000270,0.00000134,-0.02125091,0.00000701,-0.00287115,-0.02118
 416,0.00247401,0.00145046,-0.02121989,-0.00250609,0.00145361,1.5607755
 9,0.00003912,-0.07746208,0.00000308,0.00000537,0.00165252,0.00000111,0
 .00007549,-0.00336249,-0.00002494,0.02828141,0.00486342,0.00477725,-0.
 02845676,0.00487914,-0.00473544,0.00003962,0.10779181,0.00006878,0.000
 00308,-0.07750184,0.00000079,0.00000111,0.00165303,-0.03279757,-0.0000
 4288,0.00764081,0.01642990,0.00479264,-0.00061662,0.01635101,-0.004732
 87,-0.00064349,0.00004580,-0.00002323,0.10783331,-0.01112651,-0.000010
 41,-0.00001902,-0.00272927,-0.00000174,-0.00000117,0.00044446,-0.00001
 273,0.00334896,0.00047651,-0.00289355,-0.00168225,0.00044706,0.0028996
 6,-0.00167313,-1.23840596,0.00001575,-0.00009871,1.25089371,-0.0000036
 7,0.02198531,-0.00000321,-0.00000117,-0.00026750,-0.00000029,-0.000008
 88,0.00116177,0.00000711,-0.00350724,-0.00093343,-0.00121490,0.0035331
 2,-0.00093987,0.00120858,-0.00001518,-0.03836232,0.00000215,0.00000301
 ,0.01735605,0.00003338,-0.00000323,0.02200081,0.00000004,-0.00000029,-
 0.00026782,0.00407005,0.00001018,-0.00164234,-0.00203638,-0.00121673,0
 .00045533,-0.00202840,0.00120735,0.00046557,-0.00016401,0.00000216,-0.
 03836518,0.00012532,0.00000056,0.01735364\\-0.00410337,-0.00050474,-0.
 00041791,0.00378303,-0.00000328,-0.00000180,0.00309143,0.00004811,-0.0
 0079042,0.00264993,0.00130056,0.00077886,0.00303442,-0.00074793,0.0005
 0629,-0.00271018,-0.00010906,-0.00011116,-0.00574525,0.00001633,0.0000
 3614\\\@


 The lyf so short, the craft so long to lerne.
                             -- Chaucer
 Job cpu time:       0 days  0 hours  3 minutes 53.8 seconds.
 Elapsed time:       0 days  0 hours  0 minutes 10.0 seconds.
 File lengths (MBytes):  RWF=     88 Int=      0 D2E=      0 Chk=      2 Scr=      2
 Normal termination of Gaussian 16 at Sun Oct 13 09:48:14 2024.
