 Entering Gaussian System, Link 0=g16
 Initial command:
 /usr/local/g16_AVX//g16/l1.exe "/scratch/alanqf/0038-54480.ixchel.mda.cinvestav.mx/Gau-16889.inp" -scrdir="/scratch/alanqf/0038-54480.ixchel.mda.cinvestav.mx/"
 Entering Link 1 = /usr/local/g16_AVX//g16/l1.exe PID=     16890.
  
 Copyright (c) 1988-2017, Gaussian, Inc.  All Rights Reserved.
  
 This is part of the Gaussian(R) 16 program.  It is based on
 the Gaussian(R) 09 system (copyright 2009, Gaussian, Inc.),
 the Gaussian(R) 03 system (copyright 2003, Gaussian, Inc.),
 the Gaussian(R) 98 system (copyright 1998, Gaussian, Inc.),
 the Gaussian(R) 94 system (copyright 1995, Gaussian, Inc.),
 the Gaussian 92(TM) system (copyright 1992, Gaussian, Inc.),
 the Gaussian 90(TM) system (copyright 1990, Gaussian, Inc.),
 the Gaussian 88(TM) system (copyright 1988, Gaussian, Inc.),
 the Gaussian 86(TM) system (copyright 1986, Carnegie Mellon
 University), and the Gaussian 82(TM) system (copyright 1983,
 Carnegie Mellon University). Gaussian is a federally registered
 trademark of Gaussian, Inc.
  
 This software contains proprietary and confidential information,
 including trade secrets, belonging to Gaussian, Inc.
  
 This software is provided under written license and may be
 used, copied, transmitted, or stored only in accord with that
 written license.
  
 The following legend is applicable only to US Government
 contracts under FAR:
  
                    RESTRICTED RIGHTS LEGEND
  
 Use, reproduction and disclosure by the US Government is
 subject to restrictions as set forth in subparagraphs (a)
 and (c) of the Commercial Computer Software - Restricted
 Rights clause in FAR 52.227-19.
  
 Gaussian, Inc.
 340 Quinnipiac St., Bldg. 40, Wallingford CT 06492
  
  
 ---------------------------------------------------------------
 Warning -- This program may not be used in any manner that
 competes with the business of Gaussian, Inc. or will provide
 assistance to any competitor of Gaussian, Inc.  The licensee
 of this program is prohibited from giving any competitor of
 Gaussian, Inc. access to this program.  By using this program,
 the user acknowledges that Gaussian, Inc. is engaged in the
 business of creating and licensing software in the field of
 computational chemistry and represents and warrants to the
 licensee that it is not a competitor of Gaussian, Inc. and that
 it will not use this program in any manner prohibited above.
 ---------------------------------------------------------------
  

 Cite this work as:
 Gaussian 16, Revision B.01,
 M. J. Frisch, G. W. Trucks, H. B. Schlegel, G. E. Scuseria, 
 M. A. Robb, J. R. Cheeseman, G. Scalmani, V. Barone, 
 G. A. Petersson, H. Nakatsuji, X. Li, M. Caricato, A. V. Marenich, 
 J. Bloino, B. G. Janesko, R. Gomperts, B. Mennucci, H. P. Hratchian, 
 J. V. Ortiz, A. F. Izmaylov, J. L. Sonnenberg, D. Williams-Young, 
 F. Ding, F. Lipparini, F. Egidi, J. Goings, B. Peng, A. Petrone, 
 T. Henderson, D. Ranasinghe, V. G. Zakrzewski, J. Gao, N. Rega, 
 G. Zheng, W. Liang, M. Hada, M. Ehara, K. Toyota, R. Fukuda, 
 J. Hasegawa, M. Ishida, T. Nakajima, Y. Honda, O. Kitao, H. Nakai, 
 T. Vreven, K. Throssell, J. A. Montgomery, Jr., J. E. Peralta, 
 F. Ogliaro, M. J. Bearpark, J. J. Heyd, E. N. Brothers, K. N. Kudin, 
 V. N. Staroverov, T. A. Keith, R. Kobayashi, J. Normand, 
 K. Raghavachari, A. P. Rendell, J. C. Burant, S. S. Iyengar, 
 J. Tomasi, M. Cossi, J. M. Millam, M. Klene, C. Adamo, R. Cammi, 
 J. W. Ochterski, R. L. Martin, K. Morokuma, O. Farkas, 
 J. B. Foresman, and D. J. Fox, Gaussian, Inc., Wallingford CT, 2016.
 
 ******************************************
 Gaussian 16:  ES64L-G16RevB.01 20-Dec-2017
                13-Oct-2024 
 ******************************************
 %NProcShared=26
 Will use up to   26 processors via shared memory.
 %MEM=20GB
 %chk=CHKfiles/0038.chk
 ---------------------------------------------------------------------
 #p b3lyp 6-31++g(d,p) scf=verytight NoSymm freq=noraman int=ultrafine
 ---------------------------------------------------------------------
 1/10=4,30=1,38=1/1,3;
 2/12=2,15=1,17=6,18=5,40=1/2;
 3/5=1,6=6,7=1111,11=2,25=1,30=1,71=2,74=-5,75=-5,140=1/1,2,3;
 4//1;
 5/5=2,17=3,38=5,98=1/2;
 8/6=4,10=90,11=11/1;
 11/6=1,8=1,9=11,15=111,16=1,31=1/1,2,10;
 10/6=1,31=1/2;
 6/7=2,8=2,9=2,10=2,28=1/1;
 7/8=1,10=1,25=1,30=1/1,2,3,16;
 1/10=4,30=1/3;
 99//99;
 Leave Link    1 at Sun Oct 13 09:48:04 2024, MaxMem=  2684354560 cpu:               1.3 elap:               0.1
 (Enter /usr/local/g16_AVX//g16/l101.exe)
 ------------------------
 RxCoord=-6.29113 DE=2.05
 ------------------------
 Symbolic Z-matrix:
 Charge = -1 Multiplicity = 1
 C                     0.74085   0.        0.00015 
 Cl                   -2.38262   0.        0.00024 
 H                     0.35773   0.00235  -1.02107 
 H                     0.35965   0.88342   0.51334 
 H                     0.3592   -0.88597   0.50919 
 C                     2.19482   0.00004  -0.00057 
 N                     3.35671  -0.00002  -0.00035 
 
 ITRead=  0  0  0  0  0  0  0
 MicOpt= -1 -1 -1 -1 -1 -1 -1
 NAtoms=      7 NQM=        7 NQMF=       0 NMMI=      0 NMMIF=      0
                NMic=       0 NMicF=      0.
                    Isotopes and Nuclear Properties:
 (Nuclear quadrupole moments (NQMom) in fm**2, nuclear magnetic moments (NMagM)
  in nuclear magnetons)

  Atom         1           2           3           4           5           6           7
 IAtWgt=          12          35           1           1           1          12          14
 AtmWgt=  12.0000000  34.9688527   1.0078250   1.0078250   1.0078250  12.0000000  14.0030740
 NucSpn=           0           3           1           1           1           0           2
 AtZEff=  -0.0000000  -0.0000000  -0.0000000  -0.0000000  -0.0000000  -0.0000000  -0.0000000
 NQMom=    0.0000000  -8.1650000   0.0000000   0.0000000   0.0000000   0.0000000   2.0440000
 NMagM=    0.0000000   0.8218740   2.7928460   2.7928460   2.7928460   0.0000000   0.4037610
 AtZNuc=   6.0000000  17.0000000   1.0000000   1.0000000   1.0000000   6.0000000   7.0000000
 Leave Link  101 at Sun Oct 13 09:48:04 2024, MaxMem=  2684354560 cpu:               2.8 elap:               0.1
 (Enter /usr/local/g16_AVX//g16/l103.exe)

 GradGradGradGradGradGradGradGradGradGradGradGradGradGradGradGradGradGrad
 Berny optimization.
 Initialization pass.
 Trust Radius=3.00D-01 FncErr=1.00D-07 GrdErr=1.00D-07 EigMax=2.50D+02 EigMin=1.00D-04
 Number of steps in this run=      2 maximum allowed number of steps=      2.
 GradGradGradGradGradGradGradGradGradGradGradGradGradGradGradGradGradGrad

 Leave Link  103 at Sun Oct 13 09:48:04 2024, MaxMem=  2684354560 cpu:               0.5 elap:               0.1
 (Enter /usr/local/g16_AVX//g16/l202.exe)
                          Input orientation:                          
 ---------------------------------------------------------------------
 Center     Atomic      Atomic             Coordinates (Angstroms)
 Number     Number       Type             X           Y           Z
 ---------------------------------------------------------------------
      1          6           0        0.740846    0.000002    0.000145
      2         17           0       -2.382615    0.000000    0.000241
      3          1           0        0.357726    0.002350   -1.021069
      4          1           0        0.359645    0.883416    0.513344
      5          1           0        0.359199   -0.885969    0.509188
      6          6           0        2.194824    0.000040   -0.000565
      7          7           0        3.356712   -0.000022   -0.000348
 ---------------------------------------------------------------------
                    Distance matrix (angstroms):
                    1          2          3          4          5
     1  C    0.000000
     2  Cl   3.123461   0.000000
     3  H    1.090717   2.924474   0.000000
     4  H    1.090462   2.926378   1.769380   0.000000
     5  H    1.090745   2.926006   1.769406   1.769390   0.000000
     6  C    1.453978   4.577439   2.101514   2.100556   2.101042
     7  N    2.615866   5.739327   3.167932   3.166505   3.166956
                    6          7
     6  C    0.000000
     7  N    1.161888   0.000000
 Symmetry turned off by external request.
 This structure is nearly, but not quite of a higher symmetry.
 Consider Symm=Loose if the higher symmetry is desired.
 Stoichiometry    C2H3ClN(1-)
 Framework group  C1[X(C2H3ClN)]
 Deg. of freedom    15
 Full point group                 C1      NOp   1
 Rotational constants (GHZ):         160.1709606           1.1957299           1.1957297
 Leave Link  202 at Sun Oct 13 09:48:04 2024, MaxMem=  2684354560 cpu:               0.2 elap:               0.0
 (Enter /usr/local/g16_AVX//g16/l301.exe)
 Standard basis: 6-31++G(d,p) (6D, 7F)
 Ernie: Thresh=  0.10000D-02 Tol=  0.10000D-05 Strict=F.
    98 basis functions,   176 primitive gaussians,    98 cartesian basis functions
    20 alpha electrons       20 beta electrons
       nuclear repulsion energy       107.6698698075 Hartrees.
 IExCor=  402 DFT=T Ex+Corr=B3LYP ExCW=0 ScaHFX=  0.200000
 ScaDFX=  0.800000  0.720000  1.000000  0.810000 ScalE2=  1.000000  1.000000
 IRadAn=      5 IRanWt=     -1 IRanGd=            0 ICorTp=0 IEmpDi=  4
 NAtoms=    7 NActive=    7 NUniq=    7 SFac= 1.00D+00 NAtFMM=   60 NAOKFM=F Big=F
 Integral buffers will be    131072 words long.
 Raffenetti 2 integral format.
 Two-electron integral symmetry is turned off.
 Leave Link  301 at Sun Oct 13 09:48:05 2024, MaxMem=  2684354560 cpu:               1.3 elap:               0.1
 (Enter /usr/local/g16_AVX//g16/l302.exe)
 NPDir=0 NMtPBC=     1 NCelOv=     1 NCel=       1 NClECP=     1 NCelD=      1
         NCelK=      1 NCelE2=     1 NClLst=     1 CellRange=     0.0.
 One-electron integrals computed using PRISM.
 NBasis=    98 RedAO= T EigKep=  1.35D-05  NBF=    98
 NBsUse=    98 1.00D-06 EigRej= -1.00D+00 NBFU=    98
 Precomputing XC quadrature grid using
 IXCGrd= 4 IRadAn=           5 IRanWt=          -1 IRanGd=           0 AccXCQ= 0.00D+00.
 Generated NRdTot=       0 NPtTot=           0 NUsed=           0 NTot=          32
 NSgBfM=    98    98    98    98    98 MxSgAt=     7 MxSgA2=     7.
 Leave Link  302 at Sun Oct 13 09:48:05 2024, MaxMem=  2684354560 cpu:               3.9 elap:               0.2
 (Enter /usr/local/g16_AVX//g16/l303.exe)
 DipDrv:  MaxL=1.
 Leave Link  303 at Sun Oct 13 09:48:05 2024, MaxMem=  2684354560 cpu:               0.8 elap:               0.1
 (Enter /usr/local/g16_AVX//g16/l401.exe)
 ExpMin= 3.60D-02 ExpMax= 2.52D+04 ExpMxC= 3.78D+03 IAcc=3 IRadAn=         5 AccDes= 0.00D+00
 Harris functional with IExCor=  402 and IRadAn=       5 diagonalized for initial guess.
 HarFok:  IExCor=  402 AccDes= 0.00D+00 IRadAn=         5 IDoV= 1 UseB2=F ITyADJ=14
 ICtDFT=  3500011 ScaDFX=  1.000000  1.000000  1.000000  1.000000
 FoFCou: FMM=F IPFlag=           0 FMFlag=      100000 FMFlg1=           0
         NFxFlg=           0 DoJE=T BraDBF=F KetDBF=T FulRan=T
         wScrn=  0.000000 ICntrl=       500 IOpCl=  0 I1Cent=   200000004 NGrid=           0
         NMat0=    1 NMatS0=      1 NMatT0=    0 NMatD0=    1 NMtDS0=    0 NMtDT0=    0
 Symmetry not used in FoFCou.
 Harris En= -593.113459517919    
 JPrj=0 DoOrth=F DoCkMO=F.
 Leave Link  401 at Sun Oct 13 09:48:05 2024, MaxMem=  2684354560 cpu:               6.0 elap:               0.3
 (Enter /usr/local/g16_AVX//g16/l502.exe)
 Keep R1 ints in memory in canonical form, NReq=35752935.
 FoFCou: FMM=F IPFlag=           0 FMFlag=           0 FMFlg1=           0
         NFxFlg=           0 DoJE=F BraDBF=F KetDBF=F FulRan=T
         wScrn=  0.000000 ICntrl=       600 IOpCl=  0 I1Cent=           0 NGrid=           0
         NMat0=    1 NMatS0=   4851 NMatT0=    0 NMatD0=    1 NMtDS0=    0 NMtDT0=    0
 Symmetry not used in FoFCou.
 Two-electron integral symmetry not used.
 Closed shell SCF:
 Using DIIS extrapolation, IDIIS=  1040.
 NGot=  2684354560 LenX=  2672563405 LenY=  2672553360
 Requested convergence on RMS density matrix=1.00D-08 within 128 cycles.
 Requested convergence on MAX density matrix=1.00D-06.
 Requested convergence on             energy=1.00D-06.
 No special actions if energy rises.

 Cycle   1  Pass 1  IDiag  1:
 E= -592.949182302824    
 DIIS: error= 2.82D-02 at cycle   1 NSaved=   1.
 NSaved= 1 IEnMin= 1 EnMin= -592.949182302824     IErMin= 1 ErrMin= 2.82D-02
 ErrMax= 2.82D-02  0.00D+00 EMaxC= 1.00D-01 BMatC= 1.05D-01 BMatP= 1.05D-01
 IDIUse=3 WtCom= 7.18D-01 WtEn= 2.82D-01
 Coeff-Com:  0.100D+01
 Coeff-En:   0.100D+01
 Coeff:      0.100D+01
 Gap=     0.175 Goal=   None    Shift=    0.000
 GapD=    0.175 DampG=1.000 DampE=0.500 DampFc=0.5000 IDamp=-1.
 Damping current iteration by 5.00D-01
 RMSDP=1.21D-02 MaxDP=2.51D-01              OVMax= 1.73D-01

 Cycle   2  Pass 1  IDiag  1:
 E= -592.990279058932     Delta-E=       -0.041096756108 Rises=F Damp=T
 DIIS: error= 1.59D-02 at cycle   2 NSaved=   2.
 NSaved= 2 IEnMin= 2 EnMin= -592.990279058932     IErMin= 2 ErrMin= 1.59D-02
 ErrMax= 1.59D-02  0.00D+00 EMaxC= 1.00D-01 BMatC= 1.38D-02 BMatP= 1.05D-01
 IDIUse=3 WtCom= 8.41D-01 WtEn= 1.59D-01
 Coeff-Com:  0.149D+00 0.851D+00
 Coeff-En:   0.225D+00 0.775D+00
 Coeff:      0.161D+00 0.839D+00
 Gap=     0.150 Goal=   None    Shift=    0.000
 RMSDP=5.12D-03 MaxDP=1.65D-01 DE=-4.11D-02 OVMax= 1.38D-01

 Cycle   3  Pass 1  IDiag  1:
 E= -593.041569115923     Delta-E=       -0.051290056991 Rises=F Damp=F
 DIIS: error= 1.36D-02 at cycle   3 NSaved=   3.
 NSaved= 3 IEnMin= 3 EnMin= -593.041569115923     IErMin= 3 ErrMin= 1.36D-02
 ErrMax= 1.36D-02  0.00D+00 EMaxC= 1.00D-01 BMatC= 1.93D-02 BMatP= 1.38D-02
 IDIUse=2 WtCom= 0.00D+00 WtEn= 1.00D+00
 Coeff-En:   0.000D+00 0.000D+00 0.100D+01
 Coeff:      0.000D+00 0.000D+00 0.100D+01
 Gap=     0.159 Goal=   None    Shift=    0.000
 RMSDP=7.59D-03 MaxDP=2.77D-01 DE=-5.13D-02 OVMax= 1.63D-01

 Cycle   4  Pass 1  IDiag  1:
 E= -592.947123140298     Delta-E=        0.094445975625 Rises=F Damp=F
 DIIS: error= 3.09D-02 at cycle   4 NSaved=   4.
 NSaved= 4 IEnMin= 3 EnMin= -593.041569115923     IErMin= 3 ErrMin= 1.36D-02
 ErrMax= 3.09D-02  0.00D+00 EMaxC= 1.00D-01 BMatC= 1.25D-01 BMatP= 1.38D-02
 IDIUse=2 WtCom= 0.00D+00 WtEn= 1.00D+00
 Coeff-En:   0.000D+00 0.000D+00 0.803D+00 0.197D+00
 Coeff:      0.000D+00 0.000D+00 0.803D+00 0.197D+00
 Gap=     0.156 Goal=   None    Shift=    0.000
 RMSDP=3.64D-03 MaxDP=1.32D-01 DE= 9.44D-02 OVMax= 8.30D-02

 Cycle   5  Pass 1  IDiag  1:
 E= -593.049852879228     Delta-E=       -0.102729738929 Rises=F Damp=F
 DIIS: error= 9.13D-03 at cycle   5 NSaved=   5.
 NSaved= 5 IEnMin= 5 EnMin= -593.049852879228     IErMin= 5 ErrMin= 9.13D-03
 ErrMax= 9.13D-03  0.00D+00 EMaxC= 1.00D-01 BMatC= 1.06D-02 BMatP= 1.38D-02
 IDIUse=3 WtCom= 9.09D-01 WtEn= 9.13D-02
 Coeff-Com: -0.959D-03 0.190D-01 0.321D+00-0.101D+00 0.762D+00
 Coeff-En:   0.000D+00 0.000D+00 0.389D+00 0.000D+00 0.611D+00
 Coeff:     -0.872D-03 0.173D-01 0.328D+00-0.920D-01 0.748D+00
 Gap=     0.157 Goal=   None    Shift=    0.000
 RMSDP=1.54D-03 MaxDP=5.47D-02 DE=-1.03D-01 OVMax= 3.28D-02

 Cycle   6  Pass 1  IDiag  1:
 E= -593.059338036864     Delta-E=       -0.009485157636 Rises=F Damp=F
 DIIS: error= 1.53D-04 at cycle   6 NSaved=   6.
 NSaved= 6 IEnMin= 6 EnMin= -593.059338036864     IErMin= 6 ErrMin= 1.53D-04
 ErrMax= 1.53D-04  0.00D+00 EMaxC= 1.00D-01 BMatC= 4.66D-06 BMatP= 1.06D-02
 IDIUse=3 WtCom= 9.98D-01 WtEn= 1.53D-03
 Coeff-Com: -0.166D-02 0.755D-02 0.118D+00-0.493D-01 0.324D+00 0.601D+00
 Coeff-En:   0.000D+00 0.000D+00 0.000D+00 0.000D+00 0.000D+00 0.100D+01
 Coeff:     -0.165D-02 0.754D-02 0.118D+00-0.492D-01 0.323D+00 0.602D+00
 Gap=     0.156 Goal=   None    Shift=    0.000
 RMSDP=4.00D-05 MaxDP=6.82D-04 DE=-9.49D-03 OVMax= 6.40D-04

 Cycle   7  Pass 1  IDiag  1:
 E= -593.059342362293     Delta-E=       -0.000004325430 Rises=F Damp=F
 DIIS: error= 6.69D-05 at cycle   7 NSaved=   7.
 NSaved= 7 IEnMin= 7 EnMin= -593.059342362293     IErMin= 7 ErrMin= 6.69D-05
 ErrMax= 6.69D-05  0.00D+00 EMaxC= 1.00D-01 BMatC= 5.22D-07 BMatP= 4.66D-06
 IDIUse=1 WtCom= 1.00D+00 WtEn= 0.00D+00
 Coeff-Com: -0.232D-03 0.856D-03 0.184D-01-0.968D-02 0.537D-01 0.189D+00
 Coeff-Com:  0.748D+00
 Coeff:     -0.232D-03 0.856D-03 0.184D-01-0.968D-02 0.537D-01 0.189D+00
 Coeff:      0.748D+00
 Gap=     0.156 Goal=   None    Shift=    0.000
 RMSDP=8.82D-06 MaxDP=1.32D-04 DE=-4.33D-06 OVMax= 2.48D-04

 Cycle   8  Pass 1  IDiag  1:
 E= -593.059342862788     Delta-E=       -0.000000500494 Rises=F Damp=F
 DIIS: error= 1.08D-05 at cycle   8 NSaved=   8.
 NSaved= 8 IEnMin= 8 EnMin= -593.059342862788     IErMin= 8 ErrMin= 1.08D-05
 ErrMax= 1.08D-05  0.00D+00 EMaxC= 1.00D-01 BMatC= 1.24D-08 BMatP= 5.22D-07
 IDIUse=1 WtCom= 1.00D+00 WtEn= 0.00D+00
 Coeff-Com:  0.373D-04-0.134D-03 0.399D-02-0.196D-02 0.106D-01 0.505D-01
 Coeff-Com:  0.261D+00 0.676D+00
 Coeff:      0.373D-04-0.134D-03 0.399D-02-0.196D-02 0.106D-01 0.505D-01
 Coeff:      0.261D+00 0.676D+00
 Gap=     0.156 Goal=   None    Shift=    0.000
 RMSDP=4.88D-06 MaxDP=1.50D-04 DE=-5.00D-07 OVMax= 3.52D-05

 Cycle   9  Pass 1  IDiag  1:
 E= -593.059342876417     Delta-E=       -0.000000013630 Rises=F Damp=F
 DIIS: error= 2.40D-06 at cycle   9 NSaved=   9.
 NSaved= 9 IEnMin= 9 EnMin= -593.059342876417     IErMin= 9 ErrMin= 2.40D-06
 ErrMax= 2.40D-06  0.00D+00 EMaxC= 1.00D-01 BMatC= 7.05D-10 BMatP= 1.24D-08
 IDIUse=1 WtCom= 1.00D+00 WtEn= 0.00D+00
 Coeff-Com:  0.313D-04-0.716D-04-0.653D-03 0.106D-03-0.144D-02-0.609D-03
 Coeff-Com:  0.169D-01 0.208D+00 0.778D+00
 Coeff:      0.313D-04-0.716D-04-0.653D-03 0.106D-03-0.144D-02-0.609D-03
 Coeff:      0.169D-01 0.208D+00 0.778D+00
 Gap=     0.156 Goal=   None    Shift=    0.000
 RMSDP=1.32D-06 MaxDP=4.83D-05 DE=-1.36D-08 OVMax= 7.36D-06

 Cycle  10  Pass 1  IDiag  1:
 E= -593.059342877158     Delta-E=       -0.000000000741 Rises=F Damp=F
 DIIS: error= 2.69D-07 at cycle  10 NSaved=  10.
 NSaved=10 IEnMin=10 EnMin= -593.059342877158     IErMin=10 ErrMin= 2.69D-07
 ErrMax= 2.69D-07  0.00D+00 EMaxC= 1.00D-01 BMatC= 1.47D-11 BMatP= 7.05D-10
 IDIUse=1 WtCom= 1.00D+00 WtEn= 0.00D+00
 Coeff-Com:  0.672D-05-0.184D-04-0.122D-03 0.569D-04-0.331D-03-0.342D-03
 Coeff-Com: -0.269D-02 0.260D-01 0.150D+00 0.828D+00
 Coeff:      0.672D-05-0.184D-04-0.122D-03 0.569D-04-0.331D-03-0.342D-03
 Coeff:     -0.269D-02 0.260D-01 0.150D+00 0.828D+00
 Gap=     0.156 Goal=   None    Shift=    0.000
 RMSDP=7.55D-08 MaxDP=1.28D-06 DE=-7.41D-10 OVMax= 1.23D-06

 Cycle  11  Pass 1  IDiag  1:
 E= -593.059342877174     Delta-E=       -0.000000000016 Rises=F Damp=F
 DIIS: error= 6.50D-08 at cycle  11 NSaved=  11.
 NSaved=11 IEnMin=11 EnMin= -593.059342877174     IErMin=11 ErrMin= 6.50D-08
 ErrMax= 6.50D-08  0.00D+00 EMaxC= 1.00D-01 BMatC= 5.06D-13 BMatP= 1.47D-11
 IDIUse=1 WtCom= 1.00D+00 WtEn= 0.00D+00
 Coeff-Com: -0.586D-06 0.933D-06-0.145D-04 0.700D-05-0.300D-04-0.771D-04
 Coeff-Com: -0.114D-02-0.173D-02 0.388D-02 0.946D-01 0.905D+00
 Coeff:     -0.586D-06 0.933D-06-0.145D-04 0.700D-05-0.300D-04-0.771D-04
 Coeff:     -0.114D-02-0.173D-02 0.388D-02 0.946D-01 0.905D+00
 Gap=     0.156 Goal=   None    Shift=    0.000
 RMSDP=9.60D-08 MaxDP=3.70D-06 DE=-1.59D-11 OVMax= 2.04D-07

 Cycle  12  Pass 1  IDiag  1:
 E= -593.059342877175     Delta-E=       -0.000000000001 Rises=F Damp=F
 DIIS: error= 2.05D-08 at cycle  12 NSaved=  12.
 NSaved=12 IEnMin=12 EnMin= -593.059342877175     IErMin=12 ErrMin= 2.05D-08
 ErrMax= 2.05D-08  0.00D+00 EMaxC= 1.00D-01 BMatC= 1.29D-14 BMatP= 5.06D-13
 IDIUse=1 WtCom= 1.00D+00 WtEn= 0.00D+00
 Coeff-Com: -0.493D-06 0.105D-05-0.865D-06-0.121D-07 0.198D-05-0.124D-04
 Coeff-Com: -0.226D-03-0.122D-02-0.331D-02 0.357D-02 0.285D+00 0.716D+00
 Coeff:     -0.493D-06 0.105D-05-0.865D-06-0.121D-07 0.198D-05-0.124D-04
 Coeff:     -0.226D-03-0.122D-02-0.331D-02 0.357D-02 0.285D+00 0.716D+00
 Gap=     0.156 Goal=   None    Shift=    0.000
 RMSDP=2.08D-08 MaxDP=8.26D-07 DE=-1.14D-12 OVMax= 4.16D-08

 Cycle  13  Pass 1  IDiag  1:
 E= -593.059342877174     Delta-E=        0.000000000001 Rises=F Damp=F
 DIIS: error= 1.10D-09 at cycle  13 NSaved=  13.
 NSaved=13 IEnMin=12 EnMin= -593.059342877175     IErMin=13 ErrMin= 1.10D-09
 ErrMax= 1.10D-09  0.00D+00 EMaxC= 1.00D-01 BMatC= 1.96D-16 BMatP= 1.29D-14
 IDIUse=1 WtCom= 1.00D+00 WtEn= 0.00D+00
 Coeff-Com: -0.120D-07 0.161D-07 0.315D-06-0.724D-07 0.506D-06-0.245D-05
 Coeff-Com:  0.120D-04-0.159D-04-0.314D-03 0.513D-03-0.120D-01 0.132D-01
 Coeff-Com:  0.999D+00
 Coeff:     -0.120D-07 0.161D-07 0.315D-06-0.724D-07 0.506D-06-0.245D-05
 Coeff:      0.120D-04-0.159D-04-0.314D-03 0.513D-03-0.120D-01 0.132D-01
 Coeff:      0.999D+00
 Gap=     0.156 Goal=   None    Shift=    0.000
 RMSDP=1.53D-09 MaxDP=4.97D-08 DE= 9.09D-13 OVMax= 7.52D-09

 SCF Done:  E(RB3LYP) =  -593.059342877     A.U. after   13 cycles
            NFock= 13  Conv=0.15D-08     -V/T= 2.0046
 KE= 5.903156216843D+02 PE=-1.625660547264D+03 EE= 3.346157128947D+02
 Leave Link  502 at Sun Oct 13 09:48:07 2024, MaxMem=  2684354560 cpu:              38.6 elap:               1.8
 (Enter /usr/local/g16_AVX//g16/l801.exe)
 DoSCS=F DFT=T ScalE2(SS,OS)=  1.000000  1.000000
 Range of M.O.s used for correlation:     1    98
 NBasis=    98 NAE=    20 NBE=    20 NFC=     0 NFV=     0
 NROrb=     98 NOA=    20 NOB=    20 NVA=    78 NVB=    78

 **** Warning!!: The largest alpha MO coefficient is  0.13646573D+03

 Leave Link  801 at Sun Oct 13 09:48:07 2024, MaxMem=  2684354560 cpu:               0.8 elap:               0.1
 (Enter /usr/local/g16_AVX//g16/l1101.exe)
 Using compressed storage, NAtomX=     7.
 Will process      8 centers per pass.
 Leave Link 1101 at Sun Oct 13 09:48:07 2024, MaxMem=  2684354560 cpu:               3.5 elap:               0.2
 (Enter /usr/local/g16_AVX//g16/l1102.exe)
 Symmetrizing basis deriv contribution to polar:
 IMax=3 JMax=2 DiffMx= 0.00D+00
 Leave Link 1102 at Sun Oct 13 09:48:07 2024, MaxMem=  2684354560 cpu:               0.7 elap:               0.1
 (Enter /usr/local/g16_AVX//g16/l1110.exe)
 Forming Gx(P) for the SCF density, NAtomX=     7.
 Integral derivatives from FoFJK, PRISM(SPDF).
 Do as many integral derivatives as possible in FoFJK.
 G2DrvN: MDV=    2684353864.
 G2DrvN: will do     8 centers at a time, making    1 passes.
 Calling FoFCou, ICntrl=  3107 FMM=F I1Cent=   0 AccDes= 0.00D+00.
 FoFJK:  IHMeth= 1 ICntrl=    3107 DoSepK=F KAlg= 0 I1Cent=           0 FoldK=F
 IRaf=         0 NMat=       1 IRICut=       1 DoRegI=T DoRafI=F ISym2E= 0 IDoP0=0 IntGTp=1.
 FoFCou: FMM=F IPFlag=           0 FMFlag=      100000 FMFlg1=           0
         NFxFlg=           0 DoJE=F BraDBF=F KetDBF=F FulRan=T
         wScrn=  0.000000 ICntrl=      3107 IOpCl=  0 I1Cent=           0 NGrid=           0
         NMat0=    1 NMatS0=      1 NMatT0=    0 NMatD0=    1 NMtDS0=    0 NMtDT0=    0
 Symmetry not used in FoFCou.
 End of G2Drv F.D. properties file   721 does not exist.
 End of G2Drv F.D. properties file   722 does not exist.
 End of G2Drv F.D. properties file   788 does not exist.
 Leave Link 1110 at Sun Oct 13 09:48:09 2024, MaxMem=  2684354560 cpu:              39.8 elap:               1.6
 (Enter /usr/local/g16_AVX//g16/l1002.exe)
 Minotr:  Closed shell wavefunction.
          IDoAtm=1111111
          Direct CPHF calculation.
          Differentiating once with respect to electric field.
                with respect to dipole field.
          Differentiating once with respect to nuclear coordinates.
          Requested convergence is 1.0D-08 RMS, and 1.0D-07 maximum.
          Secondary convergence is 1.0D-12 RMS, and 1.0D-12 maximum.
          NewPWx=T KeepS1=F KeepF1=F KeepIn=T MapXYZ=F SortEE=F KeepMc=T.
         2136 words used for storage of precomputed grid.
 Keep R1 ints in memory in canonical form, NReq=35668397.
 FoFCou: FMM=F IPFlag=           0 FMFlag=           0 FMFlg1=           0
         NFxFlg=           0 DoJE=F BraDBF=F KetDBF=F FulRan=T
         wScrn=  0.000000 ICntrl=       600 IOpCl=  0 I1Cent=           0 NGrid=           0
         NMat0=    1 NMatS0=   4851 NMatT0=    0 NMatD0=    1 NMtDS0=    0 NMtDT0=    0
 Symmetry not used in FoFCou.
 Two-electron integral symmetry not used.
          MDV=    2684354560 using IRadAn=       1.
          Solving linear equations simultaneously, MaxMat=       0.
          There are    24 degrees of freedom in the 1st order CPHF.  IDoFFX=6 NUNeed=     3.
     21 vectors produced by pass  0 Test12= 6.50D-15 4.17D-09 XBig12= 6.92D+01 2.67D+00.
 AX will form    21 AO Fock derivatives at one time.
     21 vectors produced by pass  1 Test12= 6.50D-15 4.17D-09 XBig12= 4.76D+01 1.89D+00.
     21 vectors produced by pass  2 Test12= 6.50D-15 4.17D-09 XBig12= 1.47D+00 3.17D-01.
     21 vectors produced by pass  3 Test12= 6.50D-15 4.17D-09 XBig12= 9.92D-03 2.17D-02.
     21 vectors produced by pass  4 Test12= 6.50D-15 4.17D-09 XBig12= 1.37D-05 7.59D-04.
     19 vectors produced by pass  5 Test12= 6.50D-15 4.17D-09 XBig12= 1.36D-08 2.18D-05.
      5 vectors produced by pass  6 Test12= 6.50D-15 4.17D-09 XBig12= 1.95D-11 9.42D-07.
      3 vectors produced by pass  7 Test12= 6.50D-15 4.17D-09 XBig12= 3.11D-14 5.33D-08.
 InvSVY:  IOpt=1 It=  1 EMax= 5.33D-15
 Solved reduced A of dimension   132 with    24 vectors.
 FullF1:  Do perturbations      1 to       3.
 Isotropic polarizability for W=    0.000000       54.01 Bohr**3.
 End of Minotr F.D. properties file   721 does not exist.
 End of Minotr F.D. properties file   722 does not exist.
 End of Minotr F.D. properties file   788 does not exist.
 Leave Link 1002 at Sun Oct 13 09:48:11 2024, MaxMem=  2684354560 cpu:              58.0 elap:               2.3
 (Enter /usr/local/g16_AVX//g16/l601.exe)
 Copying SCF densities to generalized density rwf, IOpCl= 0 IROHF=0.

 **********************************************************************

            Population analysis using the SCF Density.

 **********************************************************************

 Alpha  occ. eigenvalues -- -101.25506 -14.22467 -10.12147 -10.09068  -9.16870
 Alpha  occ. eigenvalues --   -6.92655  -6.92655  -6.92629  -0.79497  -0.63971
 Alpha  occ. eigenvalues --   -0.50790  -0.37717  -0.32289  -0.32282  -0.25574
 Alpha  occ. eigenvalues --   -0.21354  -0.21353  -0.05375  -0.05366  -0.05366
 Alpha virt. eigenvalues --    0.10279   0.13860   0.13862   0.14422   0.15003
 Alpha virt. eigenvalues --    0.15004   0.20024   0.20729   0.20730   0.21937
 Alpha virt. eigenvalues --    0.23393   0.23394   0.25533   0.26026   0.26027
 Alpha virt. eigenvalues --    0.29768   0.32934   0.33856   0.33857   0.34742
 Alpha virt. eigenvalues --    0.34748   0.35818   0.39478   0.41364   0.48750
 Alpha virt. eigenvalues --    0.69020   0.78986   0.78988   0.84745   0.84756
 Alpha virt. eigenvalues --    0.85304   0.85305   0.86008   0.89539   0.98522
 Alpha virt. eigenvalues --    1.02745   1.02754   1.03946   1.09807   1.12384
 Alpha virt. eigenvalues --    1.12386   1.15312   1.15312   1.16039   1.16043
 Alpha virt. eigenvalues --    1.22226   1.26906   1.28658   1.45750   1.45760
 Alpha virt. eigenvalues --    1.54395   1.62943   1.62944   1.86678   1.86695
 Alpha virt. eigenvalues --    1.91726   2.05673   2.05680   2.15317   2.24289
 Alpha virt. eigenvalues --    2.24317   2.32252   2.40169   2.40181   2.79465
 Alpha virt. eigenvalues --    2.80657   2.80689   3.06138   3.09653   3.09686
 Alpha virt. eigenvalues --    3.29022   3.45993   3.55821   3.55843   4.25959
 Alpha virt. eigenvalues --    4.45116   4.58494   4.81531
          Condensed to atoms (all electrons):
               1          2          3          4          5          6
     1  C    6.030370  -0.131434   0.419980   0.420041   0.420213  -1.105977
     2  Cl  -0.131434  17.939868  -0.008847  -0.008893  -0.008873   0.133496
     3  H    0.419980  -0.008847   0.484771  -0.024293  -0.024324  -0.060821
     4  H    0.420041  -0.008893  -0.024293   0.485098  -0.024307  -0.061003
     5  H    0.420213  -0.008873  -0.024324  -0.024307   0.485046  -0.061134
     6  C   -1.105977   0.133496  -0.060821  -0.061003  -0.061134   6.863054
     7  N   -0.063377   0.001408  -0.005404  -0.005435  -0.005443   0.457466
               7
     1  C   -0.063377
     2  Cl   0.001408
     3  H   -0.005404
     4  H   -0.005435
     5  H   -0.005443
     6  C    0.457466
     7  N    7.205713
 Mulliken charges:
               1
     1  C    0.010184
     2  Cl  -0.916725
     3  H    0.218938
     4  H    0.218792
     5  H    0.218821
     6  C   -0.165081
     7  N   -0.584927
 Sum of Mulliken charges =  -1.00000
 Mulliken charges with hydrogens summed into heavy atoms:
               1
     1  C    0.666734
     2  Cl  -0.916725
     6  C   -0.165081
     7  N   -0.584927
 APT charges:
               1
     1  C   -0.002057
     2  Cl  -0.980178
     3  H    0.086485
     4  H    0.086085
     5  H    0.086189
     6  C    0.220572
     7  N   -0.497095
 Sum of APT charges =  -1.00000
 APT charges with hydrogens summed into heavy atoms:
               1
     1  C    0.256701
     2  Cl  -0.980178
     6  C    0.220572
     7  N   -0.497095
 Electronic spatial extent (au):  <R**2>=            870.5935
 Charge=             -1.0000 electrons
 Dipole moment (field-independent basis, Debye):
    X=              5.6524    Y=             -0.0000    Z=             -0.0002  Tot=              5.6524
 Quadrupole moment (field-independent basis, Debye-Ang):
   XX=            -86.2466   YY=            -35.4047   ZZ=            -35.4047
   XY=              0.0005   XZ=              0.0065   YZ=              0.0002
 Traceless Quadrupole moment (field-independent basis, Debye-Ang):
   XX=            -33.8947   YY=             16.9473   ZZ=             16.9473
   XY=              0.0005   XZ=              0.0065   YZ=              0.0002
 Octapole moment (field-independent basis, Debye-Ang**2):
  XXX=            -14.0659  YYY=             -0.0054  ZZZ=             -0.8493  XYY=              4.0323
  XXY=              0.0011  XXZ=              0.0036  XZZ=              4.0300  YZZ=              0.0062
  YYZ=              0.8492  XYZ=              0.0004
 Hexadecapole moment (field-independent basis, Debye-Ang**3):
 XXXX=          -1727.1566 YYYY=            -57.8991 ZZZZ=            -57.9021 XXXY=             -0.0006
 XXXZ=              0.1170 YYYX=             -0.0023 YYYZ=              0.0003 ZZZX=             -0.1716
 ZZZY=              0.0007 XXYY=           -219.5778 XXZZ=           -219.5785 YYZZ=            -19.2990
 XXYZ=              0.0004 YYXZ=              0.2637 ZZXY=              0.0015
 N-N= 1.076698698075D+02 E-N=-1.625660547011D+03  KE= 5.903156216843D+02
  Exact polarizability:  79.154   0.001  41.439  -0.002  -0.001  41.442
 Approx polarizability:  97.944   0.001  50.163   0.004  -0.001  50.165
 No NMR shielding tensors so no spin-rotation constants.
 Leave Link  601 at Sun Oct 13 09:48:11 2024, MaxMem=  2684354560 cpu:               2.5 elap:               0.1
 (Enter /usr/local/g16_AVX//g16/l701.exe)
 ... and contract with generalized density number  0.
 Compute integral second derivatives.
 Leave Link  701 at Sun Oct 13 09:48:12 2024, MaxMem=  2684354560 cpu:               4.6 elap:               0.2
 (Enter /usr/local/g16_AVX//g16/l702.exe)
 L702 exits ... SP integral derivatives will be done elsewhere.
 Leave Link  702 at Sun Oct 13 09:48:12 2024, MaxMem=  2684354560 cpu:               0.5 elap:               0.0
 (Enter /usr/local/g16_AVX//g16/l703.exe)
 Integral derivatives from FoFJK, PRISM(SPDF).
 Compute integral second derivatives, UseDBF=F ICtDFT=           0.
 Calling FoFJK, ICntrl=    100127 FMM=F ISym2X=0 I1Cent= 0 IOpClX= 0 NMat=1 NMatS=1 NMatT=0.
 FoFJK:  IHMeth= 1 ICntrl=  100127 DoSepK=F KAlg= 0 I1Cent=           0 FoldK=F
 IRaf=         0 NMat=       1 IRICut=       1 DoRegI=T DoRafI=F ISym2E= 0 IDoP0=0 IntGTp=1.
 FoFCou: FMM=F IPFlag=           0 FMFlag=      100000 FMFlg1=         800
         NFxFlg=           0 DoJE=F BraDBF=F KetDBF=F FulRan=T
         wScrn=  0.000000 ICntrl=    100127 IOpCl=  0 I1Cent=           0 NGrid=           0
         NMat0=    1 NMatS0=      1 NMatT0=    0 NMatD0=    1 NMtDS0=    0 NMtDT0=    0
 Symmetry not used in FoFCou.
 Leave Link  703 at Sun Oct 13 09:48:14 2024, MaxMem=  2684354560 cpu:              66.9 elap:               2.6
 (Enter /usr/local/g16_AVX//g16/l716.exe)
 Dipole        = 2.22383530D+00-1.17160387D-05-8.91575315D-05
 Polarizability= 7.91543553D+01 9.62583525D-04 4.14385736D+01
                -2.35541434D-03-9.26318861D-04 4.14420132D+01
 Full mass-weighted force constant matrix:
 Low frequencies ---  -69.2291  -68.9205  -28.0931  -28.0521   -0.0045    0.0037
 Low frequencies ---    0.0037  120.5773  144.9599
 ******    2 imaginary frequencies (negative Signs) ****** 
 Diagonal vibrational polarizability:
       27.0312449     130.3853605     131.0736326
 Harmonic frequencies (cm**-1), IR intensities (KM/Mole), Raman scattering
 activities (A**4/AMU), depolarization ratios for plane and unpolarized
 incident light, reduced masses (AMU), force constants (mDyne/A),
 and normal coordinates:
                      1                      2                      3
                      A                      A                      A
 Frequencies --    -66.6985               -66.4155               144.9599
 Red. masses --      3.6550                 3.6580                12.3104
 Frc consts  --      0.0096                 0.0095                 0.1524
 IR Inten    --     21.4409                21.4537                20.1043
  Atom  AN      X      Y      Z        X      Y      Z        X      Y      Z
     1   6     0.00   0.34   0.18     0.00  -0.18   0.34    -0.36   0.00   0.00
     2  17    -0.00  -0.08  -0.04    -0.00   0.04  -0.08     0.44  -0.00  -0.00
     3   1    -0.13   0.41   0.23    -0.24  -0.22   0.43    -0.36   0.00   0.00
     4   1     0.27   0.43   0.23     0.01  -0.22   0.41    -0.36  -0.00  -0.00
     5   1    -0.14   0.42   0.22     0.23  -0.23   0.42    -0.36   0.00  -0.00
     6   6     0.00   0.03   0.02     0.00  -0.02   0.03    -0.38   0.00   0.00
     7   7     0.00  -0.22  -0.12     0.00   0.12  -0.22    -0.38  -0.00  -0.00
                      4                      5                      6
                      A                      A                      A
 Frequencies --    373.4528               373.7253               929.2382
 Red. masses --      3.4562                 3.4558                 4.8155
 Frc consts  --      0.2840                 0.2844                 2.4499
 IR Inten    --      1.2200                 1.2108                12.2086
  Atom  AN      X      Y      Z        X      Y      Z        X      Y      Z
     1   6     0.00  -0.06  -0.03    -0.00   0.03  -0.06     0.44   0.00  -0.00
     2  17    -0.00  -0.00  -0.00    -0.00   0.00  -0.00    -0.00   0.00   0.00
     3   1     0.28  -0.25  -0.14     0.52   0.14  -0.26     0.47  -0.00  -0.01
     4   1    -0.60  -0.26  -0.14    -0.02   0.14  -0.25     0.47   0.01   0.00
     5   1     0.31  -0.25  -0.13    -0.51   0.15  -0.26     0.47  -0.01   0.00
     6   6     0.00   0.35   0.19     0.00  -0.19   0.35    -0.20  -0.00   0.00
     7   7     0.00  -0.20  -0.11     0.00   0.11  -0.20    -0.30   0.00  -0.00
                      7                      8                      9
                      A                      A                      A
 Frequencies --   1017.8460              1017.8750              1351.6138
 Red. masses --      1.5082                 1.5079                 1.2155
 Frc consts  --      0.9206                 0.9205                 1.3083
 IR Inten    --      1.5263                 1.5323                43.1270
  Atom  AN      X      Y      Z        X      Y      Z        X      Y      Z
     1   6    -0.00  -0.14  -0.09    -0.00   0.09  -0.14    -0.14   0.00   0.00
     2  17     0.00   0.00   0.00     0.00  -0.00   0.00     0.00   0.00   0.00
     3   1    -0.37   0.28   0.06    -0.61  -0.17   0.10     0.52  -0.00  -0.23
     4   1     0.72   0.10   0.07    -0.02  -0.17   0.28     0.52   0.20   0.12
     5   1    -0.34   0.19   0.22     0.63  -0.01   0.19     0.52  -0.20   0.12
     6   6    -0.00   0.11   0.07    -0.00  -0.07   0.11     0.00  -0.00   0.00
     7   7    -0.00  -0.02  -0.01     0.00   0.01  -0.02     0.00  -0.00  -0.00
                     10                     11                     12
                      A                      A                      A
 Frequencies --   1442.4039              1442.6483              2351.3809
 Red. masses --      1.0401                 1.0402                12.4977
 Frc consts  --      1.2750                 1.2755                40.7124
 IR Inten    --     12.4169                12.4436                53.7675
  Atom  AN      X      Y      Z        X      Y      Z        X      Y      Z
     1   6    -0.00   0.03  -0.04    -0.00  -0.04  -0.03    -0.09  -0.00   0.00
     2  17     0.00   0.00  -0.00     0.00  -0.00  -0.00     0.00  -0.00  -0.00
     3   1     0.28  -0.43  -0.13     0.21   0.57  -0.10    -0.07  -0.00   0.02
     4   1     0.04  -0.34   0.62    -0.35  -0.18  -0.01    -0.07  -0.02  -0.01
     5   1    -0.33   0.27   0.17     0.14   0.27   0.60    -0.07   0.02  -0.01
     6   6     0.00   0.01  -0.02     0.00  -0.02  -0.01     0.79  -0.00   0.00
     7   7    -0.00  -0.00   0.00     0.00   0.00   0.00    -0.59   0.00  -0.00
                     13                     14                     15
                      A                      A                      A
 Frequencies --   3091.4443              3173.6191              3175.3846
 Red. masses --      1.0337                 1.1031                 1.1031
 Frc consts  --      5.8204                 6.5458                 6.5532
 IR Inten    --      2.3828                 0.3117                 0.3139
  Atom  AN      X      Y      Z        X      Y      Z        X      Y      Z
     1   6    -0.05  -0.00  -0.00    -0.00   0.05  -0.08     0.00  -0.08  -0.05
     2  17    -0.00   0.00  -0.00    -0.00  -0.00   0.00     0.00   0.00   0.00
     3   1     0.20  -0.00   0.55     0.24   0.01   0.64     0.15  -0.02   0.40
     4   1     0.19  -0.46  -0.27     0.01  -0.02  -0.04    -0.29   0.66   0.38
     5   1     0.20   0.48  -0.27    -0.25  -0.59   0.33     0.13   0.29  -0.19
     6   6    -0.00   0.00   0.00     0.00  -0.00   0.00     0.00   0.00   0.00
     7   7     0.00  -0.00  -0.00     0.00   0.00  -0.00    -0.00  -0.00  -0.00

 -------------------
 - Thermochemistry -
 -------------------
 Temperature   298.150 Kelvin.  Pressure   1.00000 Atm.
 Atom     1 has atomic number  6 and mass  12.00000
 Atom     2 has atomic number 17 and mass  34.96885
 Atom     3 has atomic number  1 and mass   1.00783
 Atom     4 has atomic number  1 and mass   1.00783
 Atom     5 has atomic number  1 and mass   1.00783
 Atom     6 has atomic number  6 and mass  12.00000
 Atom     7 has atomic number  7 and mass  14.00307
 Molecular mass:    75.99540 amu.
 Principal axes and moments of inertia in atomic units:
                           1         2         3
     Eigenvalues --    11.267591509.321811509.32202
           X            1.00000   0.00009   0.00007
           Y            0.00000  -0.65347   0.75695
           Z           -0.00011   0.75695   0.65347
 This molecule is an asymmetric top.
 Rotational symmetry number  1.
 Rotational temperatures (Kelvin)      7.68699     0.05739     0.05739
 Rotational constants (GHZ):         160.17096     1.19573     1.19573
    2 imaginary frequencies ignored.
 Zero-point vibrational energy     118942.3 (Joules/Mol)
                                   28.42788 (Kcal/Mol)
 Warning -- explicit consideration of   3 degrees of freedom as
           vibrations may cause significant error
 Vibrational temperatures:    208.57   537.32   537.71  1336.97  1464.45
          (Kelvin)           1464.50  1944.67  2075.30  2075.65  3383.11
                             4447.90  4566.13  4568.67
 
 Zero-point correction=                           0.045303 (Hartree/Particle)
 Thermal correction to Energy=                    0.049598
 Thermal correction to Enthalpy=                  0.050542
 Thermal correction to Gibbs Free Energy=         0.017819
 Sum of electronic and zero-point Energies=           -593.014040
 Sum of electronic and thermal Energies=              -593.009745
 Sum of electronic and thermal Enthalpies=            -593.008801
 Sum of electronic and thermal Free Energies=         -593.041524
 
                     E (Thermal)             CV                S
                      KCal/Mol        Cal/Mol-Kelvin    Cal/Mol-Kelvin
 Total                   31.123             12.411             68.872
 Electronic               0.000              0.000              0.000
 Translational            0.889              2.981             38.900
 Rotational               0.889              2.981             24.755
 Vibrational             29.346              6.449              5.218
 Vibration     1          0.616              1.908              2.737
 Vibration     2          0.745              1.527              1.066
 Vibration     3          0.745              1.526              1.064
                       Q            Log10(Q)             Ln(Q)
 Total Bot       0.636703D-08         -8.196063        -18.872133
 Total V=0       0.438248D+13         12.641719         29.108635
 Vib (Bot)       0.426343D-20        -20.370241        -46.904214
 Vib (Bot)    1  0.140079D+01          0.146374          0.337039
 Vib (Bot)    2  0.486349D+00         -0.313052         -0.720829
 Vib (Bot)    3  0.485903D+00         -0.313450         -0.721746
 Vib (V=0)       0.293455D+01          0.467542          1.076554
 Vib (V=0)    1  0.198735D+01          0.298275          0.686804
 Vib (V=0)    2  0.119752D+01          0.078283          0.180254
 Vib (V=0)    3  0.119721D+01          0.078170          0.179994
 Electronic      0.100000D+01          0.000000          0.000000
 Translational   0.260396D+08          7.415635         17.075130
 Rotational      0.573513D+05          4.758543         10.956950
 
                                                       RxCoord=-6.29113 DE=2.05
                                                             IR Spectrum
 
     33  3                            2                                    1  1             1                                        
     11  0                            3                                    4  3             0  9                      3        1     
     77  9                            5                                    4  5             1  2                      7        4     
     54  1                            1                                    2  2             8  9                      3        5     
 
     XX  X                            X                                    X  X             X  X                      X        X     
                                      X                                    X  X                X                               X     
                                      X                                    X  X                X                               X     
                                      X                                    X  X                X                               X     
                                      X                                    X  X                X                               X     
                                      X                                    X  X                                                X     
                                      X                                    X  X                                                X     
                                      X                                    X  X                                                      
                                      X                                    X  X                                                      
                                      X                                       X                                                      
                                      X                                       X                                                      
                                      X                                       X                                                      
                                      X                                       X                                                      
                                      X                                       X                                                      
                                      X                                       X                                                      
                                      X                                       X                                                      
                                      X                                                                                              
                                      X                                                                                              
                                      X                                                                                              
                                      X                                                                                              
 
 -------------------------------------------------------------------
 Center     Atomic                   Forces (Hartrees/Bohr)
 Number     Number              X              Y              Z
 -------------------------------------------------------------------
      1        6           0.004254431   -0.000131911   -0.000051122
      2       17          -0.004122328   -0.000000862   -0.000001484
      3        1          -0.002859304    0.000009843    0.001116628
      4        1          -0.002988214   -0.000836668   -0.000487971
      5        1          -0.002887682    0.000985316   -0.000553773
      6        6           0.002606852   -0.000032017   -0.000000562
      7        7           0.005996244    0.000006298   -0.000021716
 -------------------------------------------------------------------
 Cartesian Forces:  Max     0.005996244 RMS     0.002254860
 Z-matrix is all fixed cartesians, so copy forces.
 Force constants in Cartesian coordinates: 
                1             2             3             4             5 
      1  0.487746D+00
      2 -0.132050D-03  0.558246D+00
      3  0.130937D-03  0.293755D-03  0.558034D+00
      4 -0.850571D-02  0.000000D+00  0.528088D-05  0.151451D-01
      5  0.183840D-05 -0.168304D-03  0.000000D+00  0.000000D+00 -0.521591D-03
      6  0.616227D-05  0.000000D+00 -0.170257D-03 -0.156369D-04  0.000000D+00
      7 -0.702527D-01  0.215329D-03 -0.912670D-01 -0.103688D-02  0.211841D-05
      8  0.215820D-03 -0.403039D-01  0.588027D-03  0.385746D-05 -0.108820D-02
      9 -0.898583D-01  0.579432D-03 -0.294363D+00 -0.136169D-02 -0.398201D-05
     10 -0.699744D-01  0.787622D-01  0.457511D-01 -0.102428D-02  0.826516D-03
     11  0.775470D-01 -0.230810D+00 -0.110695D+00  0.117862D-02  0.180709D-03
     12  0.450468D-01 -0.110699D+00 -0.104555D+00  0.690525D-03  0.733619D-03
     13 -0.700058D-01 -0.788497D-01  0.453065D-01 -0.102447D-02 -0.830134D-03
     14 -0.776242D-01 -0.231462D+00  0.109814D+00 -0.118142D-02  0.187213D-03
     15  0.446085D-01  0.109826D+00 -0.103413D+00  0.685320D-03 -0.729603D-03
     16 -0.257858D+00 -0.107868D-05  0.849542D-04 -0.786168D-03  0.000000D+00
     17 -0.736875D-05 -0.775283D-01 -0.151157D-05 -0.144569D-05  0.168670D-02
     18  0.249332D-04 -0.156032D-05 -0.775701D-01 -0.493001D-05  0.000000D+00
     19 -0.111496D-01  0.522019D-05 -0.117642D-04 -0.276764D-02  0.000000D+00
     20 -0.101407D-05  0.220257D-01  0.113377D-05  0.000000D+00 -0.276522D-03
     21  0.410089D-04  0.113250D-05  0.220366D-01  0.113013D-05  0.000000D+00
                6             7             8             9            10 
      6 -0.523897D-03
      7 -0.951975D-03  0.834696D-01
      8 -0.399879D-05 -0.230602D-03  0.427774D-01
      9  0.587473D-03  0.999621D-01 -0.627808D-03  0.313345D+00
     10  0.482841D-03  0.430181D-02 -0.943883D-02 -0.464805D-02  0.831891D-01
     11  0.733623D-03 -0.743825D-03  0.475720D-03  0.128372D-02 -0.862878D-01
     12 -0.649098D-03  0.104501D-01 -0.240831D-01 -0.128546D-01 -0.501303D-01
     13  0.479473D-03  0.430203D-02  0.944993D-02 -0.460075D-02  0.429019D-02
     14 -0.729592D-03  0.689417D-03  0.357455D-03 -0.121154D-02 -0.868852D-02
     15 -0.656378D-03  0.104518D-01  0.241432D-01 -0.127517D-01 -0.588098D-02
     16 -0.145000D-05 -0.212548D-01  0.636852D-05 -0.284731D-02 -0.212398D-01
     17  0.000000D+00  0.772418D-04 -0.338232D-02 -0.261174D-04  0.283420D-01
     18  0.168966D-02 -0.326966D-01 -0.220158D-04  0.768885D-02  0.164671D-01
     19  0.000000D+00  0.470861D-03 -0.654140D-05  0.335400D-02  0.457484D-03
     20  0.000000D+00 -0.967946D-05  0.116384D-02  0.630289D-05 -0.351561D-02
     21 -0.277500D-03  0.405155D-02  0.571026D-05 -0.165269D-02 -0.204174D-02
               11            12            13            14            15 
     11  0.245623D+00
     12  0.117874D+00  0.111179D+00
     13  0.870730D-02 -0.583732D-02  0.832028D-01
     14 -0.193919D-01  0.126368D-01  0.863960D-01  0.246348D+00
     15 -0.127528D-01  0.703050D-02 -0.496442D-01 -0.116964D+00  0.109978D+00
     16  0.249836D-02  0.146427D-02 -0.212306D-01 -0.249931D-02  0.144862D-02
     17  0.485763D-02  0.475337D-02 -0.283946D-01  0.490920D-02 -0.473116D-02
     18  0.477563D-02 -0.605744D-03  0.163193D-01 -0.475747D-02 -0.655287D-03
     19 -0.289963D-02 -0.168407D-02  0.465852D-03  0.290801D-02 -0.166908D-02
     20 -0.935303D-03 -0.121514D-02  0.352120D-02 -0.948076D-03  0.120839D-02
     21 -0.121833D-02  0.455567D-03 -0.202297D-02  0.121218D-02  0.467350D-03
               16            17            18            19            20 
     16  0.156138D+01
     17 -0.659548D-04  0.107738D+00
     18  0.818458D-04  0.620594D-05  0.107731D+00
     19 -0.123901D+01  0.501203D-04 -0.191606D-03  0.125153D+01
     20  0.623147D-04 -0.382807D-01  0.000000D+00 -0.576268D-04  0.172510D-01
     21 -0.230919D-03  0.000000D+00 -0.382788D-01  0.201936D-03  0.000000D+00
               21 
     21  0.172494D-01
 Leave Link  716 at Sun Oct 13 09:48:14 2024, MaxMem=  2684354560 cpu:               0.8 elap:               0.1
 (Enter /usr/local/g16_AVX//g16/l103.exe)

 GradGradGradGradGradGradGradGradGradGradGradGradGradGradGradGradGradGrad
 Berny optimization.
 Search for a local minimum.
 Step number   1 out of a maximum of    2
 All quantities printed in internal units (Hartrees-Bohrs-Radians)
 Second derivative matrix not updated -- analytic derivatives used.
 ITU=  0
     Eigenvalues ---   -0.00078  -0.00077   0.01489   0.02403   0.02405
     Eigenvalues ---    0.09552   0.09556   0.09706   0.16180   0.16183
     Eigenvalues ---    0.28158   0.65061   0.82391   0.82485   2.67035
 Eigenvalue     1 is  -7.76D-04 should be greater than     0.000000 Eigenvector:
                          Y4        Y5        Y3        Y7        Y1
   1                    0.39105   0.38187   0.37215  -0.31266   0.29864
                          X4        Y2        Z4        Z3        Z5
   1                    0.27949  -0.23860   0.21328   0.21260   0.19587
 Eigenvalue     2 is  -7.71D-04 should be greater than     0.000000 Eigenvector:
                          Z3        Z5        Z4        Z7        Z1
   1                    0.39172   0.38140   0.37210  -0.31286   0.29868
                          X3        Z2        X5        Y5        Y3
   1                   -0.24502  -0.23863   0.23787  -0.21834  -0.20211
 Angle between quadratic step and forces=  49.68 degrees.
 Linear search not attempted -- first point.
 B after Tr=    -0.026399    0.000156   -0.000632
         Rot=    1.000000   -0.000000    0.000032    0.000017 Ang=  -0.00 deg.
 Variable       Old X    -DE/DX   Delta X   Delta X   Delta X     New X
                                 (Linear)    (Quad)   (Total)
    X1        1.40000   0.00425   0.00000   0.08086   0.05446   1.45446
    Y1        0.00000  -0.00013   0.00000  -0.00034  -0.00024  -0.00024
    Z1        0.00027  -0.00005   0.00000   0.00163   0.00109   0.00137
    X2       -4.50249  -0.00412   0.00000  -0.19273  -0.21913  -4.72162
    Y2        0.00000  -0.00000   0.00000   0.00027   0.00059   0.00059
    Z2        0.00046  -0.00000   0.00000  -0.00109  -0.00202  -0.00156
    X3        0.67600  -0.00286   0.00000   0.03475   0.00848   0.68448
    Y3        0.00444   0.00001   0.00000  -0.00035  -0.00022   0.00422
    Z3       -1.92954   0.00112   0.00000   0.01676   0.01618  -1.91337
    X4        0.67963  -0.00299   0.00000   0.03351   0.00711   0.68674
    Y4        1.66941  -0.00084   0.00000  -0.01330  -0.01316   1.65625
    Z4        0.97008  -0.00049   0.00000  -0.00596  -0.00655   0.96353
    X5        0.67879  -0.00289   0.00000   0.03486   0.00834   0.68713
    Y5       -1.67424   0.00099   0.00000   0.01272   0.01285  -1.66139
    Z5        0.96223  -0.00055   0.00000  -0.00591  -0.00650   0.95573
    X6        4.14762   0.00261   0.00000   0.09478   0.06838   4.21600
    Y6        0.00008  -0.00003   0.00000  -0.00007  -0.00006   0.00002
    Z6       -0.00107  -0.00000   0.00000   0.00053   0.00017  -0.00090
    X7        6.34327   0.00600   0.00000   0.09876   0.07236   6.41563
    Y7       -0.00004   0.00001   0.00000   0.00031   0.00024   0.00020
    Z7       -0.00066  -0.00002   0.00000  -0.00215  -0.00237  -0.00303
         Item               Value     Threshold  Converged?
 Maximum Force            0.005996     0.000450     NO 
 RMS     Force            0.002255     0.000300     NO 
 Maximum Displacement     0.219131     0.001800     NO 
 RMS     Displacement     0.054242     0.001200     NO 
 Predicted change in Energy=-8.631048D-04
 GradGradGradGradGradGradGradGradGradGradGradGradGradGradGradGradGradGrad

 Leave Link  103 at Sun Oct 13 09:48:15 2024, MaxMem=  2684354560 cpu:               0.6 elap:               0.1
 (Enter /usr/local/g16_AVX//g16/l9999.exe)

 ----------------------------------------------------------------------

 Electric dipole moment (input orientation):
 (Debye = 10**-18 statcoulomb cm , SI units = C m)
                  (au)            (Debye)         (10**-30 SI)
   Tot        0.222384D+01      0.565243D+01      0.188545D+02
   x          0.222384D+01      0.565243D+01      0.188545D+02
   y         -0.117160D-04     -0.297792D-04     -0.993327D-04
   z         -0.891575D-04     -0.226616D-03     -0.755909D-03

 Dipole polarizability, Alpha (input orientation).
 (esu units = cm**3 , SI units = C**2 m**2 J**-1)
 Alpha(0;0):
               (au)            (10**-24 esu)      (10**-40 SI)
   iso        0.540116D+02      0.800370D+01      0.890532D+01
   aniso      0.377141D+02      0.558865D+01      0.621821D+01
   xx         0.791544D+02      0.117295D+02      0.130508D+02
   yx         0.962584D-03      0.142640D-03      0.158709D-03
   yy         0.414386D+02      0.614056D+01      0.683230D+01
   zx        -0.235541D-02     -0.349036D-03     -0.388355D-03
   zy        -0.926319D-03     -0.137266D-03     -0.152729D-03
   zz         0.414420D+02      0.614107D+01      0.683286D+01

 ----------------------------------------------------------------------

 Dipole orientation:
     6         -0.00033014          0.00001116          1.39999603
    17         -0.00027491         -0.00002372         -4.50248982
     1          1.92951368          0.00443425          0.67608150
     1         -0.97009802          1.66942299          0.67958286
     1         -0.96226190         -1.67423012          0.67875798
     6          0.00090141          0.00009744          4.14761629
     7          0.00040331         -0.00000816          6.34326638

 Electric dipole moment (dipole orientation):
 (Debye = 10**-18 statcoulomb cm , SI units = C m)
                  (au)            (Debye)         (10**-30 SI)
   Tot        0.222384D+01      0.565243D+01      0.188545D+02
   x          0.000000D+00      0.000000D+00      0.000000D+00
   y          0.000000D+00      0.000000D+00      0.000000D+00
   z          0.222384D+01      0.565243D+01      0.188545D+02

 Dipole polarizability, Alpha (dipole orientation).
 (esu units = cm**3 , SI units = C**2 m**2 J**-1)
 Alpha(0;0):
               (au)            (10**-24 esu)      (10**-40 SI)
   iso        0.540116D+02      0.800370D+01      0.890532D+01
   aniso      0.377141D+02      0.558865D+01      0.621821D+01
   xx         0.414420D+02      0.614107D+01      0.683286D+01
   yx         0.926267D-03      0.137259D-03      0.152721D-03
   yy         0.414386D+02      0.614056D+01      0.683230D+01
   zx         0.843460D-03      0.124988D-03      0.139068D-03
   zy         0.116132D-02      0.172090D-03      0.191475D-03
   zz         0.791544D+02      0.117295D+02      0.130508D+02

 ----------------------------------------------------------------------
 1\1\GINC-NODO7\Freq\RB3LYP\6-31++G(d,p)\C2H3Cl1N1(1-)\ALANQF\13-Oct-20
 24\0\\#p b3lyp 6-31++g(d,p) scf=verytight NoSymm freq=noraman int=ultr
 afine\\RxCoord=-6.29113 DE=2.05\\-1,1\C,0.740846,0.000002,0.000145\Cl,
 -2.382615,0.,0.000241\H,0.357726,0.00235,-1.021069\H,0.359645,0.883416
 ,0.513344\H,0.359199,-0.885969,0.509188\C,2.194824,0.00004,-0.000565\N
 ,3.356712,-0.000022,-0.000348\\Version=ES64L-G16RevB.01\HF=-593.059342
 9\RMSD=1.526e-09\RMSF=2.255e-03\ZeroPoint=0.0453027\Thermal=0.0495981\
 Dipole=2.30539,-0.0000168,-0.0000599\DipoleDeriv=-0.1253734,0.0000644,
 0.0001055,-0.0000314,0.0595714,-0.0000614,0.0002014,-0.0000613,0.05962
 98,-1.0889982,0.0000044,0.000023,0.000068,-0.9257532,-0.0000026,0.0001
 396,-0.0000026,-0.9257837,0.1315146,-0.0000309,0.0144329,0.0000716,0.1
 089899,0.0002339,-0.017534,0.0002314,0.0189499,0.1304597,-0.0126246,-0
 .0072969,0.0150948,0.0415687,-0.0391055,0.0088354,-0.0390961,0.0862269
 ,0.1307838,0.0125813,-0.0071892,-0.0151474,0.0411881,0.0389427,0.00880
 5,0.0389359,0.0865943,0.5391057,0.000066,-0.0004409,-0.0000769,0.06134
 95,-0.0000112,-0.0005111,-0.0000113,0.061262,-0.7174922,-0.0000605,0.0
 003656,0.0000213,-0.3869142,0.000004,0.0000637,0.000004,-0.3868793\Pol
 ar=79.1543553,0.0009626,41.4385736,-0.0023554,-0.0009263,41.4420132\Qu
 adrupole=-25.1998433,12.5999199,12.5999235,0.0003766,0.0048322,0.00011
 81\PG=C01 [X(C2H3Cl1N1)]\NImag=2\\0.48774620,-0.00013205,0.55824643,0.
 00013094,0.00029376,0.55803436,-0.00850571,0.00000004,0.00000528,0.015
 14515,0.00000184,-0.00016830,0.00000001,-0.00000008,-0.00052159,0.0000
 0616,0.00000001,-0.00017026,-0.00001564,0.00000015,-0.00052390,-0.0702
 5268,0.00021533,-0.09126700,-0.00103688,0.00000212,-0.00095197,0.08346
 964,0.00021582,-0.04030388,0.00058803,0.00000386,-0.00108820,-0.000004
 00,-0.00023060,0.04277738,-0.08985832,0.00057943,-0.29436259,-0.001361
 69,-0.00000398,0.00058747,0.09996212,-0.00062781,0.31334527,-0.0699744
 5,0.07876222,0.04575112,-0.00102428,0.00082652,0.00048284,0.00430181,-
 0.00943883,-0.00464805,0.08318906,0.07754697,-0.23080969,-0.11069530,0
 .00117862,0.00018071,0.00073362,-0.00074382,0.00047572,0.00128372,-0.0
 8628779,0.24562286,0.04504680,-0.11069911,-0.10455528,0.00069052,0.000
 73362,-0.00064910,0.01045010,-0.02408308,-0.01285464,-0.05013029,0.117
 87351,0.11117869,-0.07000577,-0.07884968,0.04530647,-0.00102447,-0.000
 83013,0.00047947,0.00430203,0.00944993,-0.00460075,0.00429019,0.008707
 30,-0.00583732,0.08320279,-0.07762419,-0.23146189,0.10981388,-0.001181
 42,0.00018721,-0.00072959,0.00068942,0.00035746,-0.00121154,-0.0086885
 2,-0.01939193,0.01263683,0.08639601,0.24634803,0.04460847,0.10982634,-
 0.10341279,0.00068532,-0.00072960,-0.00065638,0.01045180,0.02414316,-0
 .01275168,-0.00588098,-0.01275284,0.00703050,-0.04964415,-0.11696429,0
 .10997827,-0.25785803,-0.00000108,0.00008495,-0.00078617,-0.00000071,-
 0.00000145,-0.02125478,0.00000637,-0.00284731,-0.02123981,0.00249836,0
 .00146427,-0.02123062,-0.00249931,0.00144862,1.56138005,-0.00000737,-0
 .07752834,-0.00000151,-0.00000145,0.00168670,-0.00000026,0.00007724,-0
 .00338232,-0.00002612,0.02834202,0.00485763,0.00475337,-0.02839461,0.0
 0490920,-0.00473116,-0.00006595,0.10773780,0.00002493,-0.00000156,-0.0
 7757009,-0.00000493,-0.00000026,0.00168966,-0.03269660,-0.00002202,0.0
 0768885,0.01646710,0.00477563,-0.00060574,0.01631926,-0.00475747,-0.00
 065529,0.00008185,0.00000621,0.10773136,-0.01114956,0.00000522,-0.0000
 1176,-0.00276764,0.00000045,0.00000059,0.00047086,-0.00000654,0.003354
 00,0.00045748,-0.00289963,-0.00168407,0.00046585,0.00290801,-0.0016690
 8,-1.23901064,0.00005012,-0.00019161,1.25153364,-0.00000101,0.02202568
 ,0.00000113,0.00000042,-0.00027652,0.00000006,-0.00000968,0.00116384,0
 .00000630,-0.00351561,-0.00093530,-0.00121514,0.00352120,-0.00094808,0
 .00120839,0.00006231,-0.03828066,-0.00000053,-0.00005763,0.01725104,0.
 00004101,0.00000113,0.02203663,0.00000113,0.00000006,-0.00027750,0.004
 05155,0.00000571,-0.00165269,-0.00204174,-0.00121833,0.00045557,-0.002
 02297,0.00121218,0.00046735,-0.00023092,-0.00000053,-0.03827876,0.0002
 0194,-0.00000022,0.01724939\\-0.00425443,0.00013191,0.00005112,0.00412
 233,0.00000086,0.00000148,0.00285930,-0.00000984,-0.00111663,0.0029882
 1,0.00083667,0.00048797,0.00288768,-0.00098532,0.00055377,-0.00260685,
 0.00003202,0.00000056,-0.00599624,-0.00000630,0.00002172\\\@


 THE REASON MAN'S BEST FRIEND IS A DOG IS BECAUSE
 HE WAGS HIS TAIL INSTEAD OF HIS TONGUE.
 Job cpu time:       0 days  0 hours  3 minutes 55.8 seconds.
 Elapsed time:       0 days  0 hours  0 minutes 10.1 seconds.
 File lengths (MBytes):  RWF=     88 Int=      0 D2E=      0 Chk=      2 Scr=      2
 Normal termination of Gaussian 16 at Sun Oct 13 09:48:15 2024.
