RxCoord=-6.29113 DE=2.05                                                
Freq      RB3LYP                                                      6-31++G(d,p)        
Number of atoms                            I                7
Info1-9                                    I   N=           9
          16          16           0           0           0         100
           6          18        -502
Full Title                                 C   N=           2
RxCoord=-6.29113 DE=2.05
Route                                      C   N=           6
#p b3lyp 6-31++g(d,p) scf=verytight NoSymm freq=noraman int=
ultrafine   
Charge                                     I               -1
Multiplicity                               I                1
Number of electrons                        I               40
Number of alpha electrons                  I               20
Number of beta electrons                   I               20
Number of basis functions                  I               98
Number of independent functions            I               98
Number of point charges in /Mol/           I                0
Number of translation vectors              I                0
Atomic numbers                             I   N=           7
           6          17           1           1           1           6
           7
Nuclear charges                            R   N=           7
  6.00000000E+00  1.70000000E+01  1.00000000E+00  1.00000000E+00  1.00000000E+00
  6.00000000E+00  7.00000000E+00
Current cartesian coordinates              R   N=          21
  1.39999604E+00  3.77945225E-06  2.74010288E-04 -4.50248981E+00  0.00000000E+00
  4.55423996E-04  6.76004168E-01  4.44085639E-03 -1.92954076E+00  6.79630552E-01
  1.66941429E+00  9.70079568E-01  6.78787734E-01 -1.67423876E+00  9.62225866E-01
  4.14761625E+00  7.55890450E-05 -1.06769526E-03  6.34326636E+00 -4.15739747E-05
 -6.57624691E-04
Number of symbols in /Mol/                 I                0
Force Field                                I                0
Atom Types                                 C   N=           7
                                                            
                        
Int Atom Types                             I   N=           7
           0           0           0           0           0           0
           0
MM charges                                 R   N=           7
  0.00000000E+00  0.00000000E+00  0.00000000E+00  0.00000000E+00  0.00000000E+00
  0.00000000E+00  0.00000000E+00
Integer atomic weights                     I   N=           7
          12          35           1           1           1          12
          14
Real atomic weights                        R   N=           7
  1.20000000E+01  3.49688527E+01  1.00782504E+00  1.00782504E+00  1.00782504E+00
  1.20000000E+01  1.40030740E+01
Atom fragment info                         I   N=           7
           0           0           0           0           0           0
           0
Atom residue num                           I   N=           7
           0           0           0           0           0           0
           0
Nuclear spins                              I   N=           7
           0           3           1           1           1           0
           2
Nuclear ZEff                               R   N=           7
 -3.60000000E+00 -1.42400000E+01 -1.00000000E+00 -1.00000000E+00 -1.00000000E+00
 -3.60000000E+00 -4.55000000E+00
Nuclear ZNuc                               R   N=           7
  6.00000000E+00  1.70000000E+01  1.00000000E+00  1.00000000E+00  1.00000000E+00
  6.00000000E+00  7.00000000E+00
Nuclear QMom                               R   N=           7
  0.00000000E+00 -8.16500000E+00  0.00000000E+00  0.00000000E+00  0.00000000E+00
  0.00000000E+00  2.04400000E+00
Nuclear GFac                               R   N=           7
  0.00000000E+00  8.21874000E-01  2.79284600E+00  2.79284600E+00  2.79284600E+00
  0.00000000E+00  4.03761000E-01
MicOpt                                     I   N=           7
          -1          -1          -1          -1          -1          -1
          -1
Number of residues                         I                0
Number of secondary structures             I                0
Number of contracted shells                I               33
Number of primitive shells                 I               72
Pure/Cartesian d shells                    I                1
Pure/Cartesian f shells                    I                0
Highest angular momentum                   I                2
Largest degree of contraction              I                6
Shell types                                I   N=          33
           0          -1          -1          -1           2           0
          -1          -1          -1          -1           2           0
           0           0           1           0           0           0
           1           0           0           0           1           0
          -1          -1          -1           2           0          -1
          -1          -1           2
Number of primitives per shell             I   N=          33
           6           3           1           1           1           6
           6           3           1           1           1           3
           1           1           1           3           1           1
           1           3           1           1           1           6
           3           1           1           1           6           3
           1           1           1
Shell to atom map                          I   N=          33
           1           1           1           1           1           2
           2           2           2           2           2           3
           3           3           3           4           4           4
           4           5           5           5           5           6
           6           6           6           6           7           7
           7           7           7
Primitive exponents                        R   N=          72
  3.04752488E+03  4.57369518E+02  1.03948685E+02  2.92101553E+01  9.28666296E+00
  3.16392696E+00  7.86827235E+00  1.88128854E+00  5.44249258E-01  1.68714478E-01
  4.38000000E-02  8.00000000E-01  2.51801000E+04  3.78035000E+03  8.60474000E+02
  2.42145000E+02  7.73349000E+01  2.62470000E+01  4.91765000E+02  1.16984000E+02
  3.74153000E+01  1.37834000E+01  5.45215000E+00  2.22588000E+00  3.18649000E+00
  1.14427000E+00  4.20377000E-01  1.42657000E-01  4.83000000E-02  7.50000000E-01
  1.87311370E+01  2.82539436E+00  6.40121692E-01  1.61277759E-01  3.60000000E-02
  1.10000000E+00  1.87311370E+01  2.82539436E+00  6.40121692E-01  1.61277759E-01
  3.60000000E-02  1.10000000E+00  1.87311370E+01  2.82539436E+00  6.40121692E-01
  1.61277759E-01  3.60000000E-02  1.10000000E+00  3.04752488E+03  4.57369518E+02
  1.03948685E+02  2.92101553E+01  9.28666296E+00  3.16392696E+00  7.86827235E+00
  1.88128854E+00  5.44249258E-01  1.68714478E-01  4.38000000E-02  8.00000000E-01
  4.17351146E+03  6.27457911E+02  1.42902093E+02  4.02343293E+01  1.28202129E+01
  4.39043701E+00  1.16263619E+01  2.71627981E+00  7.72218397E-01  2.12031498E-01
  6.39000000E-02  8.00000000E-01
Contraction coefficients                   R   N=          72
  1.83473713E-03  1.40373228E-02  6.88426223E-02  2.32184443E-01  4.67941348E-01
  3.62311985E-01 -1.19332420E-01 -1.60854152E-01  1.14345644E+00  1.00000000E+00
  1.00000000E+00  1.00000000E+00  1.83295985E-03  1.40341988E-02  6.90973943E-02
  2.37451980E-01  4.83033960E-01  3.39855972E-01 -2.29739142E-03 -3.07137189E-02
 -1.12528069E-01  4.50163278E-02  5.89353363E-01  4.65206287E-01 -2.51828028E-01
  6.15892514E-02  1.06018433E+00  1.00000000E+00  1.00000000E+00  1.00000000E+00
  3.34946043E-02  2.34726953E-01  8.13757326E-01  1.00000000E+00  1.00000000E+00
  1.00000000E+00  3.34946043E-02  2.34726953E-01  8.13757326E-01  1.00000000E+00
  1.00000000E+00  1.00000000E+00  3.34946043E-02  2.34726953E-01  8.13757326E-01
  1.00000000E+00  1.00000000E+00  1.00000000E+00  1.83473713E-03  1.40373228E-02
  6.88426223E-02  2.32184443E-01  4.67941348E-01  3.62311985E-01 -1.19332420E-01
 -1.60854152E-01  1.14345644E+00  1.00000000E+00  1.00000000E+00  1.00000000E+00
  1.83477216E-03  1.39946270E-02  6.85865518E-02  2.32240873E-01  4.69069948E-01
  3.60455199E-01 -1.14961182E-01 -1.69117479E-01  1.14585195E+00  1.00000000E+00
  1.00000000E+00  1.00000000E+00
P(S=P) Contraction coefficients            R   N=          72
  0.00000000E+00  0.00000000E+00  0.00000000E+00  0.00000000E+00  0.00000000E+00
  0.00000000E+00  6.89990666E-02  3.16423961E-01  7.44308291E-01  1.00000000E+00
  1.00000000E+00  0.00000000E+00  0.00000000E+00  0.00000000E+00  0.00000000E+00
  0.00000000E+00  0.00000000E+00  0.00000000E+00  3.98940088E-03  3.03177067E-02
  1.29880029E-01  3.27951072E-01  4.53527100E-01  2.52154056E-01 -1.42993147E-02
  3.23572333E-01  7.43507765E-01  1.00000000E+00  1.00000000E+00  0.00000000E+00
  0.00000000E+00  0.00000000E+00  0.00000000E+00  0.00000000E+00  0.00000000E+00
  0.00000000E+00  0.00000000E+00  0.00000000E+00  0.00000000E+00  0.00000000E+00
  0.00000000E+00  0.00000000E+00  0.00000000E+00  0.00000000E+00  0.00000000E+00
  0.00000000E+00  0.00000000E+00  0.00000000E+00  0.00000000E+00  0.00000000E+00
  0.00000000E+00  0.00000000E+00  0.00000000E+00  0.00000000E+00  6.89990666E-02
  3.16423961E-01  7.44308291E-01  1.00000000E+00  1.00000000E+00  0.00000000E+00
  0.00000000E+00  0.00000000E+00  0.00000000E+00  0.00000000E+00  0.00000000E+00
  0.00000000E+00  6.75797439E-02  3.23907296E-01  7.40895140E-01  1.00000000E+00
  1.00000000E+00  0.00000000E+00
Coordinates of each shell                  R   N=          99
  1.39999604E+00  3.77945225E-06  2.74010288E-04  1.39999604E+00  3.77945225E-06
  2.74010288E-04  1.39999604E+00  3.77945225E-06  2.74010288E-04  1.39999604E+00
  3.77945225E-06  2.74010288E-04  1.39999604E+00  3.77945225E-06  2.74010288E-04
 -4.50248981E+00  0.00000000E+00  4.55423996E-04 -4.50248981E+00  0.00000000E+00
  4.55423996E-04 -4.50248981E+00  0.00000000E+00  4.55423996E-04 -4.50248981E+00
  0.00000000E+00  4.55423996E-04 -4.50248981E+00  0.00000000E+00  4.55423996E-04
 -4.50248981E+00  0.00000000E+00  4.55423996E-04  6.76004168E-01  4.44085639E-03
 -1.92954076E+00  6.76004168E-01  4.44085639E-03 -1.92954076E+00  6.76004168E-01
  4.44085639E-03 -1.92954076E+00  6.76004168E-01  4.44085639E-03 -1.92954076E+00
  6.79630552E-01  1.66941429E+00  9.70079568E-01  6.79630552E-01  1.66941429E+00
  9.70079568E-01  6.79630552E-01  1.66941429E+00  9.70079568E-01  6.79630552E-01
  1.66941429E+00  9.70079568E-01  6.78787734E-01 -1.67423876E+00  9.62225866E-01
  6.78787734E-01 -1.67423876E+00  9.62225866E-01  6.78787734E-01 -1.67423876E+00
  9.62225866E-01  6.78787734E-01 -1.67423876E+00  9.62225866E-01  4.14761625E+00
  7.55890450E-05 -1.06769526E-03  4.14761625E+00  7.55890450E-05 -1.06769526E-03
  4.14761625E+00  7.55890450E-05 -1.06769526E-03  4.14761625E+00  7.55890450E-05
 -1.06769526E-03  4.14761625E+00  7.55890450E-05 -1.06769526E-03  6.34326636E+00
 -4.15739747E-05 -6.57624691E-04  6.34326636E+00 -4.15739747E-05 -6.57624691E-04
  6.34326636E+00 -4.15739747E-05 -6.57624691E-04  6.34326636E+00 -4.15739747E-05
 -6.57624691E-04  6.34326636E+00 -4.15739747E-05 -6.57624691E-04
Num ILSW                                   I              100
ILSW                                       I   N=         100
           0           1           0           0           2           0
           0           0           0           0         402          -1
           5           0           0           0           2           0
           0           0           0           0           1           0
           1           1           0           0           0           0
           0           0      100000           0          -1           0
           0           0           0           0           0           0
           0           0           0           1           0           0
           0 -2000000000           1           0           0           0
           0           0           4          52           0           0
           0           0           5           0           0           0
           0           0           0           7           0           1
           0           0           0           0           0           0
           0           0           0           0           0           0
           0           0           0           0           0           0
           0           0           0           0           0           0
           0           0           0           0
Num RLSW                                   I               52
RLSW                                       R   N=          52
  8.00000000E-01  7.20000000E-01  1.00000000E+00  8.10000000E-01  2.00000000E-01
  0.00000000E+00  0.00000000E+00  1.00000000E+00  0.00000000E+00  0.00000000E+00
  0.00000000E+00  0.00000000E+00  1.00000000E+00  0.00000000E+00  0.00000000E+00
  0.00000000E+00  0.00000000E+00  1.00000000E+00  0.00000000E+00  0.00000000E+00
  0.00000000E+00  0.00000000E+00  1.00000000E+00  0.00000000E+00  0.00000000E+00
  0.00000000E+00  0.00000000E+00  1.00000000E+00  0.00000000E+00  0.00000000E+00
  0.00000000E+00  0.00000000E+00  1.00000000E+00  0.00000000E+00  0.00000000E+00
  0.00000000E+00  0.00000000E+00  0.00000000E+00  1.00000000E+00  1.00000000E+00
  0.00000000E+00  1.00000000E+00  0.00000000E+00  0.00000000E+00  0.00000000E+00
  0.00000000E+00  0.00000000E+00  0.00000000E+00  0.00000000E+00  0.00000000E+00
  0.00000000E+00  0.00000000E+00
MxBond                                     I                4
NBond                                      I   N=           7
           4           0           1           1           1           2
           1
IBond                                      I   N=          28
           3           4           5           6           0           0
           0           0           1           0           0           0
           1           0           0           0           1           0
           0           0           1           7           0           0
           6           0           0           0
RBond                                      R   N=          28
  1.00000000E+00  1.00000000E+00  1.00000000E+00  1.00000000E+00  0.00000000E+00
  0.00000000E+00  0.00000000E+00  0.00000000E+00  1.00000000E+00  0.00000000E+00
  0.00000000E+00  0.00000000E+00  1.00000000E+00  0.00000000E+00  0.00000000E+00
  0.00000000E+00  1.00000000E+00  0.00000000E+00  0.00000000E+00  0.00000000E+00
  1.00000000E+00  3.00000000E+00  0.00000000E+00  0.00000000E+00  3.00000000E+00
  0.00000000E+00  0.00000000E+00  0.00000000E+00
Virial Ratio                               R      2.004647888505862E+00
SCF Energy                                 R     -5.930593428771740E+02
Total Energy                               R     -5.930593428771740E+02
RMS Force                                  R      2.254860252596861E-03
RMS Density                                R      1.526156502672901E-09
NImag                                      I                2
Job Status                                 I                1
Nuclear derivative order                   I                2
External E-field                           R   N=          35
  0.00000000E+00  0.00000000E+00  0.00000000E+00  0.00000000E+00  0.00000000E+00
  0.00000000E+00  0.00000000E+00  0.00000000E+00  0.00000000E+00  0.00000000E+00
  0.00000000E+00  0.00000000E+00  0.00000000E+00  0.00000000E+00  0.00000000E+00
  0.00000000E+00  0.00000000E+00  0.00000000E+00  0.00000000E+00  0.00000000E+00
  0.00000000E+00  0.00000000E+00  0.00000000E+00  0.00000000E+00  0.00000000E+00
  0.00000000E+00  0.00000000E+00  0.00000000E+00  0.00000000E+00  0.00000000E+00
  0.00000000E+00  0.00000000E+00  0.00000000E+00  0.00000000E+00  0.00000000E+00
IOpCl                                      I                0
IROHF                                      I                0
Alpha Orbital Energies                     R   N=          98
 -1.01255062E+02 -1.42246700E+01 -1.01214688E+01 -1.00906848E+01 -9.16869642E+00
 -6.92655253E+00 -6.92655221E+00 -6.92628935E+00 -7.94972381E-01 -6.39707787E-01
 -5.07898325E-01 -3.77167497E-01 -3.22893643E-01 -3.22815608E-01 -2.55740588E-01
 -2.13542265E-01 -2.13531641E-01 -5.37516116E-02 -5.36634162E-02 -5.36621386E-02
  1.02788423E-01  1.38604439E-01  1.38620264E-01  1.44215538E-01  1.50025638E-01
  1.50042224E-01  2.00235760E-01  2.07289836E-01  2.07300834E-01  2.19369909E-01
  2.33927029E-01  2.33939653E-01  2.55329185E-01  2.60263471E-01  2.60274140E-01
  2.97682229E-01  3.29342018E-01  3.38564921E-01  3.38571512E-01  3.47418565E-01
  3.47476828E-01  3.58183175E-01  3.94779844E-01  4.13635679E-01  4.87495595E-01
  6.90201668E-01  7.89863892E-01  7.89876842E-01  8.47446399E-01  8.47560667E-01
  8.53035548E-01  8.53053648E-01  8.60076548E-01  8.95390494E-01  9.85216115E-01
  1.02744587E+00  1.02753752E+00  1.03946310E+00  1.09807004E+00  1.12383632E+00
  1.12385718E+00  1.15311687E+00  1.15311815E+00  1.16038649E+00  1.16043071E+00
  1.22226010E+00  1.26906364E+00  1.28657786E+00  1.45750102E+00  1.45760099E+00
  1.54395419E+00  1.62943052E+00  1.62943665E+00  1.86677744E+00  1.86695208E+00
  1.91725626E+00  2.05672506E+00  2.05680173E+00  2.15316524E+00  2.24288652E+00
  2.24317262E+00  2.32252196E+00  2.40168587E+00  2.40180622E+00  2.79464985E+00
  2.80656555E+00  2.80689351E+00  3.06137822E+00  3.09653162E+00  3.09685640E+00
  3.29022434E+00  3.45992879E+00  3.55820821E+00  3.55843175E+00  4.25958549E+00
  4.45116306E+00  4.58494482E+00  4.81531379E+00
Alpha MO coefficients                      R   N=        9604
  1.12965840E-06  2.02984619E-05 -1.30428367E-06  3.65777161E-09  1.37338854E-08
 -1.01546734E-04 -6.68057241E-05 -1.03564184E-08  6.61279671E-08  1.56065211E-03
  5.87564859E-04  2.03374725E-08 -1.97887515E-07 -1.98188552E-05  2.24439406E-06
  2.22460752E-06  4.69803327E-10  1.67392463E-08  1.28566337E-09  9.95997905E-01
  1.51402364E-02  3.66924801E-06 -1.02253103E-09 -1.86544534E-09 -2.10656770E-02
 -9.93289141E-06  1.24959693E-09  4.18780382E-09  1.98130445E-03  2.45222860E-05
 -2.43752462E-09 -8.59366841E-09 -2.82334368E-04 -1.31760188E-05  2.42637221E-09
  2.34988974E-08  7.50367822E-03  7.50477392E-03  7.50477387E-03 -1.82172868E-10
 -7.27436861E-11 -9.31633200E-12  3.42459062E-06 -2.98975220E-05  7.04229620E-05
  8.55298483E-06  1.41889892E-08 -5.75106773E-06  3.47722053E-06 -2.99643213E-05
  7.03838819E-05  8.48660127E-06  4.97531282E-06  2.89048645E-06  3.46475305E-06
 -2.99531579E-05  7.03992694E-05  8.50240882E-06 -4.98786780E-06  2.86712880E-06
 -6.36030006E-08 -4.96799176E-06  1.60899101E-06 -1.57458644E-09  2.54895930E-09
 -8.33984888E-05 -1.92328852E-04  1.23676687E-08  1.59806455E-08 -1.90916547E-03
  4.82803790E-04  2.43966969E-08 -4.09763304E-07  7.22696648E-06  7.63228013E-07
  7.61953235E-07  9.81708547E-10 -6.74586143E-09  2.95804100E-10 -2.18381974E-06
 -1.08602617E-05  2.23354821E-06 -4.90473716E-10  8.27872197E-09  1.60084192E-04
 -6.68889791E-05  4.14715782E-09 -5.39627044E-08  2.21346101E-04 -1.00868239E-04
 -6.57433540E-09  9.74995552E-08 -2.00143896E-06 -4.07333547E-06 -4.07335881E-06
  5.00783519E-10  3.31543825E-09 -7.38293938E-12  9.59157984E-06 -1.87648212E-04
  2.72465589E-04 -3.69841500E-10 -1.87617050E-07  1.02951629E-03  6.81232619E-04
  6.16333179E-08 -6.76311853E-07  1.11065590E-02  3.16802261E-03  1.08782158E-07
 -1.54175608E-06  4.76762712E-04  2.67633880E-05  2.68323819E-05  4.27915472E-08
 -4.04851526E-07 -4.92115673E-09 -1.79036585E-08 -2.60688087E-06  4.80877572E-06
 -2.76879482E-10  6.36807701E-10  6.00221099E-07 -2.92196400E-05  1.46767230E-09
 -2.63630631E-09 -1.63717767E-05  8.42832186E-05 -2.11952132E-09 -6.89368575E-09
  4.86479034E-04  1.37902509E-04 -1.56012096E-08  1.40363205E-07  1.86739323E-06
 -1.19709928E-05 -1.19691196E-05 -1.13148583E-09  5.43612851E-09 -2.78903266E-11
 -6.90002312E-08 -5.92993842E-05 -1.88560507E-04 -3.70194895E-06  2.81151237E-10
 -1.59246526E-06 -1.16755066E-08 -5.90598413E-05 -1.88748776E-04 -3.65238787E-06
  1.30954394E-06  7.85508476E-07 -1.07342250E-08 -5.90177132E-05 -1.88666383E-04
 -3.65786642E-06 -1.34184840E-06  7.91755909E-07  7.85142681E-05  3.31345078E-04
 -5.57402527E-04  3.11171097E-08 -1.23603426E-07 -2.48425671E-05  1.40449502E-03
  1.58568363E-08 -4.44074044E-07 -8.93317674E-03  4.54772185E-03  7.29907313E-08
 -1.77613558E-06 -1.44689625E-03  2.05016349E-05  2.05019957E-05  5.80358423E-08
 -5.58778553E-08  1.50339633E-09  9.92763713E-01  3.47268912E-02 -2.14133164E-03
  1.55899450E-07 -5.39387515E-07  3.51848637E-03  8.40879419E-04 -8.26812715E-08
  3.28448114E-07 -3.29128234E-03 -4.74045365E-04 -4.33704232E-08  5.50025730E-07
 -7.31351122E-03 -8.36414427E-03 -8.36414822E-03 -6.63780933E-08  2.51816071E-07
  2.87820379E-10  5.48670108E-03  7.82186068E-05 -4.40633534E-04 -7.70382779E-08
  2.26257138E-07  7.37291189E-03  2.78043414E-03  1.04910356E-07 -2.07482714E-06
  8.77456150E-02  3.25799294E-02  6.61714281E-07 -1.28645249E-05 -1.00426743E-03
 -1.96509045E-04 -1.96257761E-04 -4.02099959E-08  5.30148674E-07 -5.56192417E-08
 -1.92778267E-07 -6.41613663E-06  2.60303969E-05 -3.13952800E-09  7.00845795E-09
 -8.24849379E-06 -1.61532411E-04  1.77066878E-08 -3.45031544E-08 -2.13879270E-04
  6.03123894E-04 -3.90276884E-08  1.55461513E-08  5.81710577E-03  2.08834609E-03
 -1.85858719E-08  8.37443176E-07  2.93877582E-05 -3.94179670E-05 -3.94011618E-05
 -7.42531723E-09  3.71884085E-08 -3.88122736E-10 -1.23294973E-04 -6.79793958E-04
  4.02050077E-04  3.69761056E-05 -4.67866944E-08  1.66358358E-05 -1.22927272E-04
 -6.79617118E-04  4.06129511E-04  3.75957898E-05 -1.45111541E-05 -8.40106899E-06
 -1.23054507E-04 -6.79501239E-04  4.06713698E-04  3.72487825E-05  1.44965084E-05
 -8.30990845E-06  9.92778928E-01  5.04646931E-02  2.71286099E-04 -1.60779667E-08
  8.31301942E-07 -1.07090903E-02  7.85832141E-03  1.49351679E-07 -2.80454569E-06
 -9.85924659E-02  2.73932264E-02  1.48075541E-06 -2.08907705E-05 -7.81504143E-03
 -9.88578304E-03 -9.88579595E-03 -9.28638109E-08 -8.37070543E-08  1.11745580E-08
 -4.67708844E-04  3.62205726E-04  3.40004489E-04 -3.01701632E-08  1.97148763E-07
 -8.07396153E-03  3.30679495E-03 -3.01910963E-07  1.23185918E-06  8.69171910E-03
 -6.74321844E-03 -3.50393523E-07  5.18092577E-06 -3.66213272E-05  3.44152419E-04
  3.44156591E-04  8.77558565E-08 -5.23549576E-07 -2.19084069E-10  9.93014525E-01
  5.06772523E-02  7.69451397E-04  2.24694983E-07  2.54135876E-07 -2.45837354E-02
 -4.57931135E-03 -8.01338955E-07  1.36934342E-06  4.98463516E-02  2.16631014E-02
  1.29680112E-06 -7.01390134E-06 -8.94253545E-03 -8.87628688E-03 -8.87659117E-03
 -2.37615727E-08  2.45876563E-07  1.74880486E-07  1.39431935E-06  1.70504546E-05
  4.70549996E-06  5.37308494E-09  3.04873371E-08  6.89055410E-05 -2.76825206E-05
 -3.09610855E-08 -1.82644922E-07 -3.96448502E-04  1.81302845E-04  5.94294133E-08
  4.85467960E-07  4.69417592E-03  1.75253735E-03  3.23799731E-08  4.20017867E-07
  1.41665342E-05  2.77537532E-05  2.77135765E-05  1.45900438E-08  1.12786223E-07
  4.61041402E-09  3.30190626E-06  3.20692047E-03  3.29396851E-04  2.69830314E-05
  3.51058817E-07 -1.19584368E-04  3.27561782E-06  3.20844638E-03  3.31211857E-04
  2.65433879E-05  1.03327493E-04  6.00344192E-05  3.42935040E-06  3.20691668E-03
  3.32858078E-04  2.67337022E-05 -1.03720669E-04  5.96899304E-05 -5.78569122E-03
 -4.14276270E-04  2.73992630E-04  6.19221514E-08  6.31015716E-08  3.50271378E-03
 -9.44930794E-03 -3.32698841E-07  1.81861605E-06 -5.87966577E-02  1.48793909E-02
  1.72286849E-07 -1.41400369E-05 -8.39200390E-04 -4.34796059E-07 -3.19086325E-07
  1.78951851E-08  3.65732754E-07 -4.72427712E-08 -1.74646367E-05 -4.53721128E-05
 -2.49803218E-04 -1.54442577E-08  5.68911993E-08  5.32239924E-03 -1.75052704E-03
  4.34542466E-07 -2.20115959E-06  5.14373248E-03 -2.67028013E-03  8.28411645E-08
  4.00119500E-06  1.48535269E-04 -7.38270482E-05 -7.38227400E-05 -8.24537336E-08
  4.04033949E-07  3.23767970E-09  5.51635050E-05  3.43693745E-04  2.15584758E-04
 -3.14021502E-10 -1.62211650E-07 -5.31027268E-03 -4.48102949E-03 -8.10728652E-09
  4.31494644E-06  1.05535112E-02  6.99058726E-03 -5.98998273E-07 -1.91196963E-06
 -1.64607762E-04  9.33123907E-05  9.31654338E-05 -5.09632039E-08  1.50360477E-07
  5.36991895E-09 -2.84639482E-01  1.02267000E+00  1.72684706E-04 -1.15220291E-07
 -2.11566359E-07  7.51075210E-02  4.61361683E-04 -2.37521889E-08 -2.53666412E-08
 -2.12170507E-02 -1.37826310E-03  4.94478849E-08  1.66278801E-07  1.22842116E-02
  4.01822004E-03 -1.47255825E-07 -1.01561250E-06 -1.56447630E-02 -1.56030937E-02
 -1.56030481E-02 -8.51725518E-09 -9.14986577E-09 -3.17639767E-09 -3.62307962E-05
 -6.52036441E-04 -2.76988213E-03  1.15463393E-04  1.10091091E-07 -4.77626610E-05
 -3.56498251E-05 -6.55918756E-04 -2.76084498E-03  1.15896989E-04  4.16510385E-05
  2.39973845E-05 -3.58423727E-05 -6.55467941E-04 -2.76171347E-03  1.15845752E-04
 -4.17118946E-05  2.37679510E-05 -4.83725469E-05 -2.99837702E-04 -2.59498067E-05
 -1.44165902E-08 -6.83973234E-08  2.95506181E-04 -6.96857343E-03  1.13296297E-07
  1.66190931E-06 -5.69668364E-03  7.67642247E-04  4.39307189E-07 -1.72052298E-06
  9.63010843E-05 -4.70621604E-05 -4.71206995E-05  8.34146129E-09 -1.50503419E-07
  8.58132834E-09 -1.22827059E-04 -4.97284517E-04  2.63199946E-05 -1.55587606E-08
  1.61949812E-07  6.50198560E-03 -1.97259189E-03  2.20399579E-07 -1.60516373E-06
 -1.95946222E-03  1.01125500E-03 -1.34869593E-07  2.55731297E-07 -1.91428680E-04
 -2.41480966E-04 -2.41473554E-04 -1.74854777E-08  1.80642985E-07 -3.62489902E-10
 -1.32320626E-07 -6.63655257E-07 -8.08020866E-08  1.19999731E-06 -1.67672082E-05
  5.94065804E-06 -8.07863464E-07  4.39082176E-05 -6.15377265E-04  3.39738688E-06
 -2.91645742E-06 -2.57175702E-05  3.63576214E-04 -5.60012347E-08 -3.93931234E-05
  3.91190052E-05 -2.52941215E-06  3.55102975E-05  2.91750846E-06 -1.02687882E-07
  3.08410930E-07 -4.77775857E-04 -7.07172447E-02  9.88297043E-01 -2.50533261E-07
 -1.44555813E-05 -2.11497638E-03  2.95576298E-02  9.90998314E-07  5.74818890E-06
  8.16136702E-04 -1.14062136E-02 -3.74773900E-06 -3.57199755E-06 -3.50502869E-04
  4.89968126E-03 -8.01148412E-08  2.83497181E-06 -2.97772779E-06 -2.90210157E-06
  4.05896403E-05 -2.25217485E-07  1.58306245E-04 -1.11036550E-03  4.29733554E-03
  2.20990339E-05 -8.28763157E-07 -1.18409031E-04 -6.93979792E-05  4.83535705E-04
 -1.89376586E-03 -9.59159084E-06 -5.19841181E-05 -1.36708903E-05 -8.84177643E-05
  6.16080118E-04 -2.40724383E-03 -1.22463917E-05  6.37824918E-05 -2.14127670E-05
  2.29175987E-08  9.93867796E-08 -1.45764754E-08 -3.06553397E-06  4.29869853E-05
 -3.46441471E-06 -2.85152503E-07  5.03509207E-06 -7.11214104E-05  8.61116375E-06
 -1.73290179E-06 -8.23384006E-05  1.15534247E-03 -7.90870264E-08 -6.03002533E-06
  6.17688887E-06  1.28250606E-06 -1.79839577E-05  4.51424576E-07 -7.67685802E-08
 -2.79608889E-07  1.22956143E-08  8.17859090E-07 -1.15624381E-05  2.58319939E-06
 -1.09463633E-06 -5.20008088E-06  7.34697952E-05 -2.51277729E-06  1.28223179E-06
  2.92191455E-05 -4.11135034E-04 -4.03042153E-08  3.16748933E-06 -3.56482822E-06
  6.07802850E-07 -8.53690952E-06 -2.51115739E-07 -4.67333239E-08 -3.08294598E-07
 -2.94495746E-08 -1.70881691E-05 -1.22247025E-06  4.00110313E-06  1.59612165E-06
 -6.12200870E-04 -4.39316562E-05  4.72421907E-05  1.63618572E-05  3.61186418E-04
  2.61368623E-05  4.86029379E-08 -2.54397453E-06  2.50282678E-06  3.51805259E-05
  2.52876304E-06 -4.51512484E-05 -7.10993637E-08  2.03085807E-07 -3.46789043E-04
  9.88297180E-01  7.07170830E-02 -1.67903606E-07 -1.06093147E-05  2.95572867E-02
  2.11496535E-03  6.59784508E-07  4.61930513E-06 -1.14053169E-02 -8.16132285E-04
  1.48471630E-06 -1.09323130E-06  4.89775523E-03  3.50548906E-04 -5.99186639E-08
  7.61035656E-08 -2.83738119E-07  4.06027984E-05  2.90760427E-06  3.35766477E-06
  1.10014037E-05 -7.74668559E-05  2.97846783E-04  1.50293781E-06  1.58211485E-05
 -8.18742392E-06 -1.42514726E-04  9.93179413E-04 -3.86328257E-03 -1.97751375E-05
 -8.83217775E-05 -5.92904618E-05  1.31768944E-04 -9.18844143E-04  3.56590463E-03
  1.82531057E-05 -8.06826352E-05  5.65035535E-05  6.99577814E-08  3.27085129E-07
 -3.25364542E-09  4.30025324E-05  3.08760170E-06 -1.31347227E-06  3.71109170E-06
 -7.19070694E-05 -5.20099868E-06 -4.85348515E-05  1.45729083E-05  1.15276668E-03
  8.28058606E-05  5.18918647E-08 -2.93029299E-07  4.95815644E-07 -1.78952683E-05
 -1.28469120E-06 -7.02350127E-06  3.25811220E-08  1.64230672E-07 -1.45759554E-08
 -1.15350707E-05 -8.34859195E-07 -2.66917362E-06  1.05938081E-06  7.34548501E-05
  5.31350356E-06  6.88219160E-07 -1.89369913E-06 -4.09224297E-04 -2.94781135E-05
 -3.22762006E-09  2.72368116E-07 -1.61135045E-07 -8.59345783E-06 -6.18066900E-07
  3.89282572E-06  2.04853662E-06  1.73843625E-04  2.34649203E-04  3.98673221E-11
 -1.72224554E-07 -6.40845030E-03 -5.97866595E-03 -4.82655887E-07  3.97225503E-06
 -1.14309701E-01 -4.53928853E-02 -7.04170802E-07  1.63211337E-05 -2.61702978E-04
 -5.79277326E-05 -5.78875988E-05 -4.36299108E-08  1.20717589E-07 -4.27603756E-08
  8.97390098E-05 -1.67924357E-04  9.90704606E-01  3.11852170E-04  5.01321112E-04
  4.08874504E-04  3.02936013E-02  9.30578518E-06  1.50796147E-05 -1.75721307E-03
 -1.34194455E-02 -3.56551485E-06 -5.86362395E-06 -6.28486190E-03  2.34823819E-03
  1.52166910E-06  1.21419510E-06  1.70693153E-04  3.07196507E-04  3.07195321E-04
  4.89547066E-09 -4.04352045E-08  6.06939987E-10 -1.55437426E-04 -4.64780284E-05
 -2.53484471E-03  1.45118954E-04  1.79394179E-08 -2.87979011E-07 -1.55117169E-04
 -4.81946249E-05 -2.54278504E-03  1.46066855E-04  4.77527100E-07  4.77785436E-08
 -1.55279607E-04 -4.87224820E-05 -2.54008543E-03  1.45943867E-04 -5.18326481E-07
  8.86148506E-08 -1.58747551E-04 -7.71760703E-04  1.51025544E-05  6.50450802E-08