RxCoord=-6.19116 DE=2.16                                                
Freq      RB3LYP                                                      6-31++G(d,p)        
Number of atoms                            I                7
Info1-9                                    I   N=           9
          16          16           0           0           0         100
           6          18        -502
Full Title                                 C   N=           2
RxCoord=-6.19116 DE=2.16
Route                                      C   N=           6
#p b3lyp 6-31++g(d,p) scf=verytight NoSymm freq=noraman int=
ultrafine   
Charge                                     I               -1
Multiplicity                               I                1
Number of electrons                        I               40
Number of alpha electrons                  I               20
Number of beta electrons                   I               20
Number of basis functions                  I               98
Number of independent functions            I               98
Number of point charges in /Mol/           I                0
Number of translation vectors              I                0
Atomic numbers                             I   N=           7
           6          17           1           1           1           6
           7
Nuclear charges                            R   N=           7
  6.00000000E+00  1.70000000E+01  1.00000000E+00  1.00000000E+00  1.00000000E+00
  6.00000000E+00  7.00000000E+00
Current cartesian coordinates              R   N=          21
  1.38989545E+00  4.53534270E-05  2.39995218E-04 -4.49007242E+00 -3.77945225E-06
  4.25188378E-04  6.66510184E-01  4.56746804E-03 -1.92931589E+00  6.69049975E-01
  1.66968830E+00  9.70170275E-01  6.69409023E-01 -1.67425199E+00  9.62269330E-01
  4.13668608E+00  2.83458919E-05 -1.08281307E-03  6.33239854E+00 -5.29123315E-05
 -5.63138385E-04
Number of symbols in /Mol/                 I                0
Force Field                                I                0
Atom Types                                 C   N=           7
                                                            
                        
Int Atom Types                             I   N=           7
           0           0           0           0           0           0
           0
MM charges                                 R   N=           7
  0.00000000E+00  0.00000000E+00  0.00000000E+00  0.00000000E+00  0.00000000E+00
  0.00000000E+00  0.00000000E+00
Integer atomic weights                     I   N=           7
          12          35           1           1           1          12
          14
Real atomic weights                        R   N=           7
  1.20000000E+01  3.49688527E+01  1.00782504E+00  1.00782504E+00  1.00782504E+00
  1.20000000E+01  1.40030740E+01
Atom fragment info                         I   N=           7
           0           0           0           0           0           0
           0
Atom residue num                           I   N=           7
           0           0           0           0           0           0
           0
Nuclear spins                              I   N=           7
           0           3           1           1           1           0
           2
Nuclear ZEff                               R   N=           7
 -3.60000000E+00 -1.42400000E+01 -1.00000000E+00 -1.00000000E+00 -1.00000000E+00
 -3.60000000E+00 -4.55000000E+00
Nuclear ZNuc                               R   N=           7
  6.00000000E+00  1.70000000E+01  1.00000000E+00  1.00000000E+00  1.00000000E+00
  6.00000000E+00  7.00000000E+00
Nuclear QMom                               R   N=           7
  0.00000000E+00 -8.16500000E+00  0.00000000E+00  0.00000000E+00  0.00000000E+00
  0.00000000E+00  2.04400000E+00
Nuclear GFac                               R   N=           7
  0.00000000E+00  8.21874000E-01  2.79284600E+00  2.79284600E+00  2.79284600E+00
  0.00000000E+00  4.03761000E-01
MicOpt                                     I   N=           7
          -1          -1          -1          -1          -1          -1
          -1
Number of residues                         I                0
Number of secondary structures             I                0
Number of contracted shells                I               33
Number of primitive shells                 I               72
Pure/Cartesian d shells                    I                1
Pure/Cartesian f shells                    I                0
Highest angular momentum                   I                2
Largest degree of contraction              I                6
Shell types                                I   N=          33
           0          -1          -1          -1           2           0
          -1          -1          -1          -1           2           0
           0           0           1           0           0           0
           1           0           0           0           1           0
          -1          -1          -1           2           0          -1
          -1          -1           2
Number of primitives per shell             I   N=          33
           6           3           1           1           1           6
           6           3           1           1           1           3
           1           1           1           3           1           1
           1           3           1           1           1           6
           3           1           1           1           6           3
           1           1           1
Shell to atom map                          I   N=          33
           1           1           1           1           1           2
           2           2           2           2           2           3
           3           3           3           4           4           4
           4           5           5           5           5           6
           6           6           6           6           7           7
           7           7           7
Primitive exponents                        R   N=          72
  3.04752488E+03  4.57369518E+02  1.03948685E+02  2.92101553E+01  9.28666296E+00
  3.16392696E+00  7.86827235E+00  1.88128854E+00  5.44249258E-01  1.68714478E-01
  4.38000000E-02  8.00000000E-01  2.51801000E+04  3.78035000E+03  8.60474000E+02
  2.42145000E+02  7.73349000E+01  2.62470000E+01  4.91765000E+02  1.16984000E+02
  3.74153000E+01  1.37834000E+01  5.45215000E+00  2.22588000E+00  3.18649000E+00
  1.14427000E+00  4.20377000E-01  1.42657000E-01  4.83000000E-02  7.50000000E-01
  1.87311370E+01  2.82539436E+00  6.40121692E-01  1.61277759E-01  3.60000000E-02
  1.10000000E+00  1.87311370E+01  2.82539436E+00  6.40121692E-01  1.61277759E-01
  3.60000000E-02  1.10000000E+00  1.87311370E+01  2.82539436E+00  6.40121692E-01
  1.61277759E-01  3.60000000E-02  1.10000000E+00  3.04752488E+03  4.57369518E+02
  1.03948685E+02  2.92101553E+01  9.28666296E+00  3.16392696E+00  7.86827235E+00
  1.88128854E+00  5.44249258E-01  1.68714478E-01  4.38000000E-02  8.00000000E-01
  4.17351146E+03  6.27457911E+02  1.42902093E+02  4.02343293E+01  1.28202129E+01
  4.39043701E+00  1.16263619E+01  2.71627981E+00  7.72218397E-01  2.12031498E-01
  6.39000000E-02  8.00000000E-01
Contraction coefficients                   R   N=          72
  1.83473713E-03  1.40373228E-02  6.88426223E-02  2.32184443E-01  4.67941348E-01
  3.62311985E-01 -1.19332420E-01 -1.60854152E-01  1.14345644E+00  1.00000000E+00
  1.00000000E+00  1.00000000E+00  1.83295985E-03  1.40341988E-02  6.90973943E-02
  2.37451980E-01  4.83033960E-01  3.39855972E-01 -2.29739142E-03 -3.07137189E-02
 -1.12528069E-01  4.50163278E-02  5.89353363E-01  4.65206287E-01 -2.51828028E-01
  6.15892514E-02  1.06018433E+00  1.00000000E+00  1.00000000E+00  1.00000000E+00
  3.34946043E-02  2.34726953E-01  8.13757326E-01  1.00000000E+00  1.00000000E+00
  1.00000000E+00  3.34946043E-02  2.34726953E-01  8.13757326E-01  1.00000000E+00
  1.00000000E+00  1.00000000E+00  3.34946043E-02  2.34726953E-01  8.13757326E-01
  1.00000000E+00  1.00000000E+00  1.00000000E+00  1.83473713E-03  1.40373228E-02
  6.88426223E-02  2.32184443E-01  4.67941348E-01  3.62311985E-01 -1.19332420E-01
 -1.60854152E-01  1.14345644E+00  1.00000000E+00  1.00000000E+00  1.00000000E+00
  1.83477216E-03  1.39946270E-02  6.85865518E-02  2.32240873E-01  4.69069948E-01
  3.60455199E-01 -1.14961182E-01 -1.69117479E-01  1.14585195E+00  1.00000000E+00
  1.00000000E+00  1.00000000E+00
P(S=P) Contraction coefficients            R   N=          72
  0.00000000E+00  0.00000000E+00  0.00000000E+00  0.00000000E+00  0.00000000E+00
  0.00000000E+00  6.89990666E-02  3.16423961E-01  7.44308291E-01  1.00000000E+00
  1.00000000E+00  0.00000000E+00  0.00000000E+00  0.00000000E+00  0.00000000E+00
  0.00000000E+00  0.00000000E+00  0.00000000E+00  3.98940088E-03  3.03177067E-02
  1.29880029E-01  3.27951072E-01  4.53527100E-01  2.52154056E-01 -1.42993147E-02
  3.23572333E-01  7.43507765E-01  1.00000000E+00  1.00000000E+00  0.00000000E+00
  0.00000000E+00  0.00000000E+00  0.00000000E+00  0.00000000E+00  0.00000000E+00
  0.00000000E+00  0.00000000E+00  0.00000000E+00  0.00000000E+00  0.00000000E+00
  0.00000000E+00  0.00000000E+00  0.00000000E+00  0.00000000E+00  0.00000000E+00
  0.00000000E+00  0.00000000E+00  0.00000000E+00  0.00000000E+00  0.00000000E+00
  0.00000000E+00  0.00000000E+00  0.00000000E+00  0.00000000E+00  6.89990666E-02
  3.16423961E-01  7.44308291E-01  1.00000000E+00  1.00000000E+00  0.00000000E+00
  0.00000000E+00  0.00000000E+00  0.00000000E+00  0.00000000E+00  0.00000000E+00
  0.00000000E+00  6.75797439E-02  3.23907296E-01  7.40895140E-01  1.00000000E+00
  1.00000000E+00  0.00000000E+00
Coordinates of each shell                  R   N=          99
  1.38989545E+00  4.53534270E-05  2.39995218E-04  1.38989545E+00  4.53534270E-05
  2.39995218E-04  1.38989545E+00  4.53534270E-05  2.39995218E-04  1.38989545E+00
  4.53534270E-05  2.39995218E-04  1.38989545E+00  4.53534270E-05  2.39995218E-04
 -4.49007242E+00 -3.77945225E-06  4.25188378E-04 -4.49007242E+00 -3.77945225E-06
  4.25188378E-04 -4.49007242E+00 -3.77945225E-06  4.25188378E-04 -4.49007242E+00
 -3.77945225E-06  4.25188378E-04 -4.49007242E+00 -3.77945225E-06  4.25188378E-04
 -4.49007242E+00 -3.77945225E-06  4.25188378E-04  6.66510184E-01  4.56746804E-03
 -1.92931589E+00  6.66510184E-01  4.56746804E-03 -1.92931589E+00  6.66510184E-01
  4.56746804E-03 -1.92931589E+00  6.66510184E-01  4.56746804E-03 -1.92931589E+00
  6.69049975E-01  1.66968830E+00  9.70170275E-01  6.69049975E-01  1.66968830E+00
  9.70170275E-01  6.69049975E-01  1.66968830E+00  9.70170275E-01  6.69049975E-01
  1.66968830E+00  9.70170275E-01  6.69409023E-01 -1.67425199E+00  9.62269330E-01
  6.69409023E-01 -1.67425199E+00  9.62269330E-01  6.69409023E-01 -1.67425199E+00
  9.62269330E-01  6.69409023E-01 -1.67425199E+00  9.62269330E-01  4.13668608E+00
  2.83458919E-05 -1.08281307E-03  4.13668608E+00  2.83458919E-05 -1.08281307E-03
  4.13668608E+00  2.83458919E-05 -1.08281307E-03  4.13668608E+00  2.83458919E-05
 -1.08281307E-03  4.13668608E+00  2.83458919E-05 -1.08281307E-03  6.33239854E+00
 -5.29123315E-05 -5.63138385E-04  6.33239854E+00 -5.29123315E-05 -5.63138385E-04
  6.33239854E+00 -5.29123315E-05 -5.63138385E-04  6.33239854E+00 -5.29123315E-05
 -5.63138385E-04  6.33239854E+00 -5.29123315E-05 -5.63138385E-04
Num ILSW                                   I              100
ILSW                                       I   N=         100
           0           1           0           0           2           0
           0           0           0           0         402          -1
           5           0           0           0           2           0
           0           0           0           0           1           0
           1           1           0           0           0           0
           0           0      100000           0          -1           0
           0           0           0           0           0           0
           0           0           0           1           0           0
           0 -2000000000           1           0           0           0
           0           0           4          52           0           0
           0           0           5           0           0           0
           0           0           0           7           0           1
           0           0           0           0           0           0
           0           0           0           0           0           0
           0           0           0           0           0           0
           0           0           0           0           0           0
           0           0           0           0
Num RLSW                                   I               52
RLSW                                       R   N=          52
  8.00000000E-01  7.20000000E-01  1.00000000E+00  8.10000000E-01  2.00000000E-01
  0.00000000E+00  0.00000000E+00  1.00000000E+00  0.00000000E+00  0.00000000E+00
  0.00000000E+00  0.00000000E+00  1.00000000E+00  0.00000000E+00  0.00000000E+00
  0.00000000E+00  0.00000000E+00  1.00000000E+00  0.00000000E+00  0.00000000E+00
  0.00000000E+00  0.00000000E+00  1.00000000E+00  0.00000000E+00  0.00000000E+00
  0.00000000E+00  0.00000000E+00  1.00000000E+00  0.00000000E+00  0.00000000E+00
  0.00000000E+00  0.00000000E+00  1.00000000E+00  0.00000000E+00  0.00000000E+00
  0.00000000E+00  0.00000000E+00  0.00000000E+00  1.00000000E+00  1.00000000E+00
  0.00000000E+00  1.00000000E+00  0.00000000E+00  0.00000000E+00  0.00000000E+00
  0.00000000E+00  0.00000000E+00  0.00000000E+00  0.00000000E+00  0.00000000E+00
  0.00000000E+00  0.00000000E+00
MxBond                                     I                4
NBond                                      I   N=           7
           4           0           1           1           1           2
           1
IBond                                      I   N=          28
           3           4           5           6           0           0
           0           0           1           0           0           0
           1           0           0           0           1           0
           0           0           1           7           0           0
           6           0           0           0
RBond                                      R   N=          28
  1.00000000E+00  1.00000000E+00  1.00000000E+00  1.00000000E+00  0.00000000E+00
  0.00000000E+00  0.00000000E+00  0.00000000E+00  1.00000000E+00  0.00000000E+00
  0.00000000E+00  0.00000000E+00  1.00000000E+00  0.00000000E+00  0.00000000E+00
  0.00000000E+00  1.00000000E+00  0.00000000E+00  0.00000000E+00  0.00000000E+00
  1.00000000E+00  3.00000000E+00  0.00000000E+00  0.00000000E+00  3.00000000E+00
  0.00000000E+00  0.00000000E+00  0.00000000E+00
Virial Ratio                               R      2.004642819079566E+00
SCF Energy                                 R     -5.930592366758838E+02
Total Energy                               R     -5.930592366758838E+02
RMS Force                                  R      2.313694418368119E-03
RMS Density                                R      1.536701015215451E-09
NImag                                      I                2
Job Status                                 I                1
Nuclear derivative order                   I                2
External E-field                           R   N=          35
  0.00000000E+00  0.00000000E+00  0.00000000E+00  0.00000000E+00  0.00000000E+00
  0.00000000E+00  0.00000000E+00  0.00000000E+00  0.00000000E+00  0.00000000E+00
  0.00000000E+00  0.00000000E+00  0.00000000E+00  0.00000000E+00  0.00000000E+00
  0.00000000E+00  0.00000000E+00  0.00000000E+00  0.00000000E+00  0.00000000E+00
  0.00000000E+00  0.00000000E+00  0.00000000E+00  0.00000000E+00  0.00000000E+00
  0.00000000E+00  0.00000000E+00  0.00000000E+00  0.00000000E+00  0.00000000E+00
  0.00000000E+00  0.00000000E+00  0.00000000E+00  0.00000000E+00  0.00000000E+00
IOpCl                                      I                0
IROHF                                      I                0
Alpha Orbital Energies                     R   N=          98
 -1.01255062E+02 -1.42243072E+01 -1.01210783E+01 -1.00901643E+01 -9.16871705E+00
 -6.92657502E+00 -6.92657475E+00 -6.92630059E+00 -7.94627054E-01 -6.39394866E-01
 -5.08019982E-01 -3.76750436E-01 -3.22511425E-01 -3.22501804E-01 -2.55424363E-01
 -2.13170033E-01 -2.13160686E-01 -5.37676338E-02 -5.37598864E-02 -5.37587117E-02
  1.02954334E-01  1.38820520E-01  1.38843264E-01  1.44320706E-01  1.50305120E-01
  1.50319639E-01  2.00333294E-01  2.07450290E-01  2.07463864E-01  2.19363468E-01
  2.34144803E-01  2.34150904E-01  2.55548390E-01  2.60327027E-01  2.60339328E-01
  2.98161272E-01  3.29539757E-01  3.38818992E-01  3.38827757E-01  3.47753938E-01
  3.47847268E-01  3.58965979E-01  3.94841350E-01  4.14051704E-01  4.87696937E-01
  6.90293753E-01  7.90145322E-01  7.90158094E-01  8.47401757E-01  8.47488506E-01
  8.53521499E-01  8.53539305E-01  8.60509090E-01  8.96392649E-01  9.85065378E-01
  1.02766202E+00  1.02767396E+00  1.03992214E+00  1.09817653E+00  1.12418700E+00
  1.12420846E+00  1.15306391E+00  1.15306615E+00  1.16061733E+00  1.16066345E+00
  1.22313152E+00  1.27046630E+00  1.28862546E+00  1.45790397E+00  1.45799290E+00
  1.54442353E+00  1.62976844E+00  1.62977305E+00  1.86741205E+00  1.86754736E+00
  1.91849855E+00  2.05703600E+00  2.05709591E+00  2.15357462E+00  2.24346836E+00
  2.24362555E+00  2.32414541E+00  2.40216561E+00  2.40233643E+00  2.79640766E+00
  2.80727575E+00  2.80737801E+00  3.06223714E+00  3.09735243E+00  3.09754562E+00
  3.29077245E+00  3.46077336E+00  3.55865781E+00  3.55899728E+00  4.26045402E+00
  4.45216015E+00  4.58550721E+00  4.81594377E+00
Alpha MO coefficients                      R   N=        9604
  1.12272578E-06  2.12394818E-05 -8.50371005E-07 -1.31389219E-09  1.17703176E-08
 -1.11062422E-04 -7.54971747E-05 -3.50449580E-10  7.35315878E-08  1.58094429E-03
  5.99269016E-04 -7.20910812E-09 -1.96863829E-07 -2.10130631E-05  2.06579593E-06
  2.04640640E-06 -1.02298856E-09  1.82574128E-08 -9.52873575E-10  9.95997898E-01
  1.51403718E-02  3.57536317E-06  3.80089850E-10 -1.46280525E-09 -2.10656595E-02
 -9.63366037E-06 -5.25498835E-10  3.71430907E-09  1.98011481E-03  2.35326745E-05
  1.00075112E-09 -7.60011220E-09 -2.78993858E-04 -1.15677088E-05  9.21140543E-11
  2.12009489E-08  7.50376435E-03  7.50509616E-03  7.50509611E-03  1.01863988E-10
 -5.13928010E-11  1.76846880E-13  3.11933928E-06 -3.07018631E-05  7.12579063E-05
  9.14541891E-06  1.37371644E-08 -5.93636870E-06  3.16114800E-06 -3.07553914E-05
  7.12234723E-05  9.09845151E-06  5.13483978E-06  2.98315953E-06  3.16686955E-06
 -3.07617637E-05  7.12157550E-05  9.09179990E-06 -5.14932505E-06  2.95875703E-06
 -1.68387623E-07 -5.70596481E-06  1.62875291E-06  2.49899316E-10  3.31100759E-09
 -8.30553808E-05 -2.07089294E-04  2.82547801E-09  8.82001586E-09 -1.93785869E-03
  4.87689423E-04  1.80516768E-09 -4.17509450E-07  7.68974244E-06  6.27706690E-07
  6.26610504E-07 -6.92873201E-11 -7.41767110E-09 -1.05384428E-10 -2.36651306E-06
 -1.17000227E-05  2.39326745E-06 -4.97020679E-10  8.98169119E-09  1.71813441E-04
 -7.10758083E-05  5.27758716E-09 -6.14031588E-08  2.26591014E-04 -1.01987279E-04
  9.22256178E-10  9.88291400E-08 -2.27232178E-06 -4.40200779E-06 -4.40202345E-06
 -5.30112998E-10  3.58011511E-09 -5.20590559E-13  9.59847786E-06 -1.87538303E-04
  2.72883481E-04  5.68645697E-09 -1.85654529E-07  1.03527180E-03  6.85741297E-04
  7.08524652E-09 -7.04855397E-07  1.11835709E-02  3.20440392E-03 -3.01278735E-09
 -1.57702678E-06  4.77298505E-04  2.67077944E-05  2.67757392E-05 -1.86434872E-10
 -4.13925400E-07  4.48326568E-09 -2.02203903E-08 -2.77529274E-06  4.80934152E-06
  2.09492741E-10  7.63034120E-10  3.29153805E-07 -2.93893947E-05 -1.18053570E-09
 -3.33421706E-09 -1.44370842E-05  8.61839533E-05  3.25485947E-09 -5.53332262E-09
  4.95416220E-04  1.39780848E-04  2.13162607E-10  1.45222087E-07  1.94910311E-06
 -1.23899347E-05 -1.23880856E-05  3.82861728E-10  5.88732537E-09  3.86007100E-11
 -1.01876290E-07 -5.86129281E-05 -1.86236849E-04 -3.79561568E-06  3.16333443E-09
 -1.54668492E-06 -4.14708540E-08 -5.83212201E-05 -1.86264137E-04 -3.75948945E-06
  1.29490338E-06  7.77530997E-07 -3.50989344E-08 -5.83134387E-05 -1.86303885E-04
 -3.75595419E-06 -1.28626943E-06  7.63771471E-07  7.85947647E-05  3.32072313E-04
 -5.56838103E-04  2.21635666E-08 -1.52685190E-07 -2.72597534E-05  1.41263220E-03
 -2.18093972E-08 -4.22547949E-07 -9.02947502E-03  4.57248263E-03 -8.27228563E-08
 -1.72132819E-06 -1.44725959E-03  2.06183043E-05  2.06200774E-05  5.10760454E-08
 -1.21789572E-07 -3.65466267E-10  9.92763771E-01  3.47274520E-02 -2.14090876E-03
  7.94262429E-08 -6.68255471E-07  3.51203221E-03  8.42982212E-04 -3.67486841E-08
  3.91658471E-07 -3.28842013E-03 -4.76847803E-04  2.10761455E-09  5.59929105E-07
 -7.31356933E-03 -8.36398210E-03 -8.36398603E-03 -4.65430972E-08  3.13642448E-07
 -4.16338443E-10  5.48058449E-03  7.63169675E-05 -4.41901691E-04  2.04868138E-08
  2.74409960E-07  7.39990137E-03  2.80173988E-03 -1.58582804E-08 -2.17492176E-06
  8.85855966E-02  3.29917618E-02 -6.44552756E-08 -1.28536083E-05 -1.00357623E-03
 -1.96475268E-04 -1.96293485E-04  8.95661014E-09  5.30230848E-07  2.15066871E-08
 -2.09439239E-07 -6.81959858E-06  2.61393512E-05  1.40280213E-09  8.30384209E-09
 -9.41078532E-06 -1.62522898E-04 -8.19297991E-09 -4.18379399E-08 -2.08762164E-04
  6.11817627E-04  2.19228058E-08  3.28369197E-08  5.93897186E-03  2.12361355E-03
  4.04293864E-08  8.15933836E-07  2.95584985E-05 -4.02080593E-05 -4.01913255E-05
  3.95847854E-09  3.88667831E-08  4.15602024E-10 -1.23229067E-04 -6.75869312E-04
  4.23622275E-04  3.68544649E-05 -3.69135496E-08  1.69908523E-05 -1.23033366E-04
 -6.75379605E-04  4.28181574E-04  3.70675925E-05 -1.47246240E-05 -8.52385842E-06
 -1.22992619E-04 -6.75391738E-04  4.28206530E-04  3.71971125E-05  1.47638803E-05
 -8.44997828E-06  9.92779664E-01  5.04706383E-02  2.72060346E-04 -6.84272214E-08
  8.59914278E-07 -1.07258793E-02  7.89723463E-03 -1.09228404E-07 -2.72625620E-06
 -9.96453781E-02  2.76628064E-02 -1.70424541E-07 -2.11385586E-05 -7.81255990E-03
 -9.88518631E-03 -9.88518705E-03 -5.80347435E-08  1.81473390E-08 -2.80106572E-09
 -4.67132121E-04  3.64112584E-04  3.40786253E-04 -1.40880460E-08  2.19106750E-07
 -8.10593355E-03  3.31967840E-03 -1.65025303E-07  1.47414071E-06  8.72553817E-03
 -6.77547637E-03  1.13564101E-07  5.19052327E-06 -3.77213601E-05  3.45217291E-04
  3.45221204E-04  3.23683017E-08 -5.78832121E-07  1.89739861E-10  9.93014170E-01
  5.06806731E-02  7.70952580E-04 -7.72771062E-08  1.39013068E-08 -2.45922285E-02
 -4.58253181E-03  2.57277333E-07  2.35999234E-06  5.01179433E-02  2.18212516E-02
 -1.97691974E-07 -7.24248956E-06 -8.94252258E-03 -8.87747658E-03 -8.87751363E-03
 -3.24728508E-08  3.30202705E-07 -2.46280623E-08  1.41848534E-06  1.72158340E-05
  4.61041709E-06 -3.17725055E-09  2.98953380E-08  7.00544738E-05 -2.73950549E-05
  1.86145981E-08 -1.79427294E-07 -3.99250918E-04  1.79254123E-04 -4.41350374E-08
  4.89898682E-07  4.76168031E-03  1.77062796E-03  2.88198229E-08  3.62946441E-07
  1.41092165E-05  2.79624595E-05  2.79245707E-05 -8.22792379E-09  1.09293131E-07
 -2.06959581E-09  3.26502138E-06  3.20893451E-03  3.36012178E-04  2.69742885E-05
  2.55659041E-07 -1.19360715E-04  3.51980847E-06  3.20754055E-03  3.39198546E-04
  2.66976657E-05  1.03381089E-04  6.00676963E-05  3.55467905E-06  3.20779963E-03
  3.39028271E-04  2.66116058E-05 -1.03664380E-04  5.95479272E-05 -5.77988012E-03
 -4.13944693E-04  2.74846755E-04 -2.47883526E-08  3.64909494E-08  3.50891952E-03
 -9.45051731E-03  2.63481064E-07  1.67245896E-06 -5.91619010E-02  1.49636052E-02
  1.44362856E-07 -1.39795737E-05 -8.39120024E-04 -1.60838622E-07 -1.06182313E-07
  3.75275119E-09  3.55536423E-07  1.26306493E-08 -1.74435154E-05 -4.52283277E-05
 -2.49707077E-04  1.21980060E-08  5.26162980E-08  5.31994213E-03 -1.74925269E-03
  1.07089167E-07 -2.42691408E-06  5.15518060E-03 -2.67801479E-03 -8.41976995E-08
  3.91004470E-06  1.48398290E-04 -7.37833463E-05 -7.37748664E-05 -2.10500143E-08
  4.50316017E-07 -3.62759096E-10  5.52028165E-05  3.42475317E-04  2.17539850E-04
  1.52012970E-08 -1.72564825E-07 -5.35040395E-03 -4.51817041E-03 -1.46754896E-07
  4.12799975E-06  1.04662801E-02  7.06916469E-03  2.38762963E-07 -1.79105868E-06
 -1.62351864E-04  9.30827772E-05  9.29536813E-05  8.70845953E-09  1.96166639E-07
 -4.70174292E-09 -2.84639213E-01  1.02267151E+00  1.65881259E-04  4.15815803E-08
 -1.65012350E-07  7.51160761E-02  4.64573502E-04  1.07440756E-08 -1.46998132E-08
 -2.12572278E-02 -1.39229440E-03 -2.61769967E-08  1.41687748E-07  1.23982270E-02
  4.06555433E-03  9.24591600E-08 -9.48005171E-07 -1.56439699E-02 -1.55990224E-02
 -1.55989809E-02  2.32409474E-09 -6.08611919E-09  1.93506392E-09 -3.79168904E-05
 -6.41233457E-04 -2.76904012E-03  1.14538850E-04  1.17463596E-07 -4.67107575E-05
 -3.75556693E-05 -6.44275234E-04 -2.76033081E-03  1.14920761E-04  4.06621808E-05
  2.34251484E-05 -3.74877851E-05 -6.44519214E-04 -2.75974499E-03  1.14944425E-04
 -4.07901711E-05  2.32509223E-05 -4.87868299E-05 -3.01699248E-04 -2.62850689E-05
  7.78126778E-09 -6.51272356E-08  3.32054356E-04 -6.99931820E-03  1.11890364E-07
  1.50164099E-06 -5.71682073E-03  7.60202554E-04 -2.61183578E-07 -1.81932654E-06
  9.61030478E-05 -4.77042739E-05 -4.77527372E-05  2.56056225E-09 -1.48617871E-07
 -3.22113419E-09 -1.22884815E-04 -4.97552952E-04  2.61372177E-05 -6.12595849E-09
  1.70564919E-07  6.51373787E-03 -1.97402519E-03  1.20940355E-07 -1.77867976E-06
 -1.96838397E-03  1.01618126E-03  6.34028423E-08  3.11239120E-07 -1.91736286E-04
 -2.41419595E-04 -2.41412659E-04 -1.04317634E-08  1.95299697E-07  9.73257812E-11
 -1.21049895E-07 -5.48846870E-07 -7.74294210E-08 -8.13119975E-07 -1.74131917E-05
  4.77679754E-06 -1.50287277E-06 -2.88351704E-05 -6.17654856E-04 -1.28647069E-05
 -8.23265046E-06  1.69232987E-05  3.63215943E-04 -8.93255350E-08 -3.94229263E-05
  3.91312312E-05  1.64557724E-06  3.52969654E-05 -2.43995573E-06 -7.85144574E-08
  2.39471427E-07 -3.57077718E-04  4.62366366E-02  9.89743769E-01 -1.83306451E-07
 -1.07646554E-05  1.38296771E-03  2.96039617E-02  7.58821189E-07  4.14957080E-06
 -5.33842098E-04 -1.14277265E-02 -4.25658870E-06 -3.17697039E-06  2.29601045E-04
  4.91566347E-03 -6.10657450E-08  2.84109354E-06 -2.92143799E-06  1.88892950E-06
  4.04519544E-05  1.82368535E-07  1.59202020E-04 -1.12215978E-03  4.32502717E-03
  2.46117652E-05  1.09170812E-06 -1.19610743E-04 -8.62149613E-05  6.03666558E-04
 -2.34776287E-03 -1.32115836E-05 -6.28030903E-05 -2.04853644E-05 -7.26775772E-05
  5.08569124E-04 -1.98042497E-03 -1.11255537E-05  5.44961982E-05 -1.44392990E-05
 -3.15603451E-09 -2.37364188E-08 -1.20230795E-08  2.04359032E-06  4.38158546E-05
 -3.08220244E-06 -1.78498695E-06 -3.46057660E-06 -7.45627072E-05  2.44069991E-05
 -6.58832760E-06  5.40491286E-05  1.15971370E-03 -9.98274079E-08 -6.18169662E-06
  6.25574408E-06 -8.40691793E-07 -1.80091108E-05 -3.84421509E-07 -9.09314171E-08
 -3.49348589E-07  1.81637169E-08 -5.48193322E-07 -1.18064634E-05  3.70174971E-06
 -1.54981269E-06  3.48551106E-06  7.50552513E-05 -2.58673058E-06  1.88918416E-06
 -1.91291742E-05 -4.10941157E-04 -3.76852284E-08  3.16632365E-06 -3.61592485E-06
 -4.12180862E-07 -8.85422680E-06  2.10995340E-07  2.34869919E-08  1.28130891E-07
  1.01368413E-08 -1.77052098E-05  8.27447258E-07 -1.60996545E-06 -3.66399887E-07
 -6.14459847E-04  2.87244900E-05 -1.40659778E-05 -4.64574136E-06  3.60522970E-04
 -1.68847945E-05 -5.51374046E-09  2.12772158E-06 -2.08599993E-06  3.49696106E-05
 -1.63695593E-06 -4.51744874E-05  2.45322290E-08 -7.16125057E-08  1.06293310E-04
  9.89743896E-01 -4.62366026E-02  5.47866412E-08  3.25195008E-06  2.96036368E-02
 -1.38295930E-03 -2.12976520E-07 -1.40567081E-06 -1.14268636E-02  5.33827078E-04
 -2.61232196E-07  4.03456264E-07  4.91378868E-03 -2.29589248E-04  1.83808881E-08
 -1.20341139E-07  1.84511735E-07  4.04625411E-05 -1.89105573E-06  3.33502284E-06
 -7.83910748E-06  5.53327426E-05 -2.12084036E-04 -1.20453379E-06  1.63488150E-05
  5.91889012E-06 -1.34152841E-04  9.39627697E-04 -3.63145879E-03 -2.06075918E-05
 -8.22927886E-05 -5.80114918E-05  1.41927305E-04 -9.93344753E-04  3.84359774E-03
  2.18018145E-05 -8.82803380E-05  5.93013235E-05 -2.20305450E-08 -1.01470931E-07
  4.04942171E-09  4.38205241E-05 -2.05047794E-06  5.62937839E-07 -1.06251733E-06
 -7.52536753E-05  3.53860752E-06  1.37493957E-05 -4.26958169E-06  1.15698890E-03
 -5.41738852E-05 -1.35028260E-08  3.01124188E-07 -3.69637691E-07 -1.79218233E-05
  8.37805129E-07 -7.15596933E-06 -4.28560839E-09 -2.96064315E-08  3.04548757E-09
 -1.17721805E-05  5.53294346E-07  6.14650200E-07 -2.46941208E-07  7.49911584E-05
 -3.52421974E-06  5.62074975E-08  4.91624239E-07 -4.08963182E-04  1.91722525E-05
  4.69300663E-09 -1.84983044E-07  1.80225858E-07 -8.90546840E-06  4.17522617E-07
  3.92155236E-06  4.58359743E-07  1.60932151E-04  2.33450068E-04  7.13404442E-09
 -1.70991749E-07 -6.32889567E-03 -5.94622098E-03  5.90256135E-08  3.98475508E-06
 -1.15749312E-01 -4.60803237E-02  1.45246422E-08  1.60664764E-05 -2.52364990E-04
 -6.06725030E-05 -6.06663586E-05  1.17449994E-08  1.49733334E-07  1.12408123E-08
  8.80781461E-05 -1.60585422E-04  9.90703549E-01 -8.95295477E-05  3.61642080E-04
  4.11789057E-04  3.03000646E-02 -2.66737123E-06  1.09095556E-05 -1.76570403E-03
 -1.34438295E-02  1.01031992E-06 -4.26595338E-06 -6.49539646E-03  2.28347572E-03
 -4.90734451E-07  5.74166667E-07  1.70344103E-04  3.10323223E-04  3.10322930E-04
 -3.90824143E-09 -4.10843167E-08  4.11020794E-11 -1.57307185E-04 -2.46362545E-05
 -2.54401133E-03  1.40474566E-04 -5.98039773E-09  2.44296019E-06 -1.57220464E-04
 -2.66541469E-05 -2.54836472E-03  1.41269555E-04 -1.84002173E-06 -1.28605393E-06
 -1.57170589E-04 -2.65383220E-05 -2.54922641E-03  1.41321873E-04  1.85165750E-06
 -1.28072569E-06 -1.58709380E-04 -7.69651716E-04  1.42575211E-05  9.93521023E-10