RxCoord=-6.09118 DE=2.28                                                
Freq      RB3LYP                                                      6-31++G(d,p)        
Number of atoms                            I                7
Info1-9                                    I   N=           9
          16          16           0           0           0         100
           6          18        -502
Full Title                                 C   N=           2
RxCoord=-6.09118 DE=2.28
Route                                      C   N=           6
#p b3lyp 6-31++g(d,p) scf=verytight NoSymm freq=noraman int=
ultrafine   
Charge                                     I               -1
Multiplicity                               I                1
Number of electrons                        I               40
Number of alpha electrons                  I               20
Number of beta electrons                   I               20
Number of basis functions                  I               98
Number of independent functions            I               98
Number of point charges in /Mol/           I                0
Number of translation vectors              I                0
Atomic numbers                             I   N=           7
           6          17           1           1           1           6
           7
Nuclear charges                            R   N=           7
  6.00000000E+00  1.70000000E+01  1.00000000E+00  1.00000000E+00  1.00000000E+00
  6.00000000E+00  7.00000000E+00
Current cartesian coordinates              R   N=          21
  1.37938669E+00  3.02356180E-05  2.77789740E-04 -4.47765314E+00 -1.88972612E-06
  3.66606868E-04  6.55510088E-01  4.49754818E-03 -1.92950486E+00  6.59041986E-01
  1.66979413E+00  9.70211849E-01  6.59631580E-01 -1.67437483E+00  9.62201299E-01
  4.12615085E+00  5.48020576E-05 -1.06202608E-03  6.32163277E+00 -6.04712360E-05
 -4.51644544E-04
Number of symbols in /Mol/                 I                0
Force Field                                I                0
Atom Types                                 C   N=           7
                                                            
                        
Int Atom Types                             I   N=           7
           0           0           0           0           0           0
           0
MM charges                                 R   N=           7
  0.00000000E+00  0.00000000E+00  0.00000000E+00  0.00000000E+00  0.00000000E+00
  0.00000000E+00  0.00000000E+00
Integer atomic weights                     I   N=           7
          12          35           1           1           1          12
          14
Real atomic weights                        R   N=           7
  1.20000000E+01  3.49688527E+01  1.00782504E+00  1.00782504E+00  1.00782504E+00
  1.20000000E+01  1.40030740E+01
Atom fragment info                         I   N=           7
           0           0           0           0           0           0
           0
Atom residue num                           I   N=           7
           0           0           0           0           0           0
           0
Nuclear spins                              I   N=           7
           0           3           1           1           1           0
           2
Nuclear ZEff                               R   N=           7
 -3.60000000E+00 -1.42400000E+01 -1.00000000E+00 -1.00000000E+00 -1.00000000E+00
 -3.60000000E+00 -4.55000000E+00
Nuclear ZNuc                               R   N=           7
  6.00000000E+00  1.70000000E+01  1.00000000E+00  1.00000000E+00  1.00000000E+00
  6.00000000E+00  7.00000000E+00
Nuclear QMom                               R   N=           7
  0.00000000E+00 -8.16500000E+00  0.00000000E+00  0.00000000E+00  0.00000000E+00
  0.00000000E+00  2.04400000E+00
Nuclear GFac                               R   N=           7
  0.00000000E+00  8.21874000E-01  2.79284600E+00  2.79284600E+00  2.79284600E+00
  0.00000000E+00  4.03761000E-01
MicOpt                                     I   N=           7
          -1          -1          -1          -1          -1          -1
          -1
Number of residues                         I                0
Number of secondary structures             I                0
Number of contracted shells                I               33
Number of primitive shells                 I               72
Pure/Cartesian d shells                    I                1
Pure/Cartesian f shells                    I                0
Highest angular momentum                   I                2
Largest degree of contraction              I                6
Shell types                                I   N=          33
           0          -1          -1          -1           2           0
          -1          -1          -1          -1           2           0
           0           0           1           0           0           0
           1           0           0           0           1           0
          -1          -1          -1           2           0          -1
          -1          -1           2
Number of primitives per shell             I   N=          33
           6           3           1           1           1           6
           6           3           1           1           1           3
           1           1           1           3           1           1
           1           3           1           1           1           6
           3           1           1           1           6           3
           1           1           1
Shell to atom map                          I   N=          33
           1           1           1           1           1           2
           2           2           2           2           2           3
           3           3           3           4           4           4
           4           5           5           5           5           6
           6           6           6           6           7           7
           7           7           7
Primitive exponents                        R   N=          72
  3.04752488E+03  4.57369518E+02  1.03948685E+02  2.92101553E+01  9.28666296E+00
  3.16392696E+00  7.86827235E+00  1.88128854E+00  5.44249258E-01  1.68714478E-01
  4.38000000E-02  8.00000000E-01  2.51801000E+04  3.78035000E+03  8.60474000E+02
  2.42145000E+02  7.73349000E+01  2.62470000E+01  4.91765000E+02  1.16984000E+02
  3.74153000E+01  1.37834000E+01  5.45215000E+00  2.22588000E+00  3.18649000E+00
  1.14427000E+00  4.20377000E-01  1.42657000E-01  4.83000000E-02  7.50000000E-01
  1.87311370E+01  2.82539436E+00  6.40121692E-01  1.61277759E-01  3.60000000E-02
  1.10000000E+00  1.87311370E+01  2.82539436E+00  6.40121692E-01  1.61277759E-01
  3.60000000E-02  1.10000000E+00  1.87311370E+01  2.82539436E+00  6.40121692E-01
  1.61277759E-01  3.60000000E-02  1.10000000E+00  3.04752488E+03  4.57369518E+02
  1.03948685E+02  2.92101553E+01  9.28666296E+00  3.16392696E+00  7.86827235E+00
  1.88128854E+00  5.44249258E-01  1.68714478E-01  4.38000000E-02  8.00000000E-01
  4.17351146E+03  6.27457911E+02  1.42902093E+02  4.02343293E+01  1.28202129E+01
  4.39043701E+00  1.16263619E+01  2.71627981E+00  7.72218397E-01  2.12031498E-01
  6.39000000E-02  8.00000000E-01
Contraction coefficients                   R   N=          72
  1.83473713E-03  1.40373228E-02  6.88426223E-02  2.32184443E-01  4.67941348E-01
  3.62311985E-01 -1.19332420E-01 -1.60854152E-01  1.14345644E+00  1.00000000E+00
  1.00000000E+00  1.00000000E+00  1.83295985E-03  1.40341988E-02  6.90973943E-02
  2.37451980E-01  4.83033960E-01  3.39855972E-01 -2.29739142E-03 -3.07137189E-02
 -1.12528069E-01  4.50163278E-02  5.89353363E-01  4.65206287E-01 -2.51828028E-01
  6.15892514E-02  1.06018433E+00  1.00000000E+00  1.00000000E+00  1.00000000E+00
  3.34946043E-02  2.34726953E-01  8.13757326E-01  1.00000000E+00  1.00000000E+00
  1.00000000E+00  3.34946043E-02  2.34726953E-01  8.13757326E-01  1.00000000E+00
  1.00000000E+00  1.00000000E+00  3.34946043E-02  2.34726953E-01  8.13757326E-01
  1.00000000E+00  1.00000000E+00  1.00000000E+00  1.83473713E-03  1.40373228E-02
  6.88426223E-02  2.32184443E-01  4.67941348E-01  3.62311985E-01 -1.19332420E-01
 -1.60854152E-01  1.14345644E+00  1.00000000E+00  1.00000000E+00  1.00000000E+00
  1.83477216E-03  1.39946270E-02  6.85865518E-02  2.32240873E-01  4.69069948E-01
  3.60455199E-01 -1.14961182E-01 -1.69117479E-01  1.14585195E+00  1.00000000E+00
  1.00000000E+00  1.00000000E+00
P(S=P) Contraction coefficients            R   N=          72
  0.00000000E+00  0.00000000E+00  0.00000000E+00  0.00000000E+00  0.00000000E+00
  0.00000000E+00  6.89990666E-02  3.16423961E-01  7.44308291E-01  1.00000000E+00
  1.00000000E+00  0.00000000E+00  0.00000000E+00  0.00000000E+00  0.00000000E+00
  0.00000000E+00  0.00000000E+00  0.00000000E+00  3.98940088E-03  3.03177067E-02
  1.29880029E-01  3.27951072E-01  4.53527100E-01  2.52154056E-01 -1.42993147E-02
  3.23572333E-01  7.43507765E-01  1.00000000E+00  1.00000000E+00  0.00000000E+00
  0.00000000E+00  0.00000000E+00  0.00000000E+00  0.00000000E+00  0.00000000E+00
  0.00000000E+00  0.00000000E+00  0.00000000E+00  0.00000000E+00  0.00000000E+00
  0.00000000E+00  0.00000000E+00  0.00000000E+00  0.00000000E+00  0.00000000E+00
  0.00000000E+00  0.00000000E+00  0.00000000E+00  0.00000000E+00  0.00000000E+00
  0.00000000E+00  0.00000000E+00  0.00000000E+00  0.00000000E+00  6.89990666E-02
  3.16423961E-01  7.44308291E-01  1.00000000E+00  1.00000000E+00  0.00000000E+00
  0.00000000E+00  0.00000000E+00  0.00000000E+00  0.00000000E+00  0.00000000E+00
  0.00000000E+00  6.75797439E-02  3.23907296E-01  7.40895140E-01  1.00000000E+00
  1.00000000E+00  0.00000000E+00
Coordinates of each shell                  R   N=          99
  1.37938669E+00  3.02356180E-05  2.77789740E-04  1.37938669E+00  3.02356180E-05
  2.77789740E-04  1.37938669E+00  3.02356180E-05  2.77789740E-04  1.37938669E+00
  3.02356180E-05  2.77789740E-04  1.37938669E+00  3.02356180E-05  2.77789740E-04
 -4.47765314E+00 -1.88972612E-06  3.66606868E-04 -4.47765314E+00 -1.88972612E-06
  3.66606868E-04 -4.47765314E+00 -1.88972612E-06  3.66606868E-04 -4.47765314E+00
 -1.88972612E-06  3.66606868E-04 -4.47765314E+00 -1.88972612E-06  3.66606868E-04
 -4.47765314E+00 -1.88972612E-06  3.66606868E-04  6.55510088E-01  4.49754818E-03
 -1.92950486E+00  6.55510088E-01  4.49754818E-03 -1.92950486E+00  6.55510088E-01
  4.49754818E-03 -1.92950486E+00  6.55510088E-01  4.49754818E-03 -1.92950486E+00
  6.59041986E-01  1.66979413E+00  9.70211849E-01  6.59041986E-01  1.66979413E+00
  9.70211849E-01  6.59041986E-01  1.66979413E+00  9.70211849E-01  6.59041986E-01
  1.66979413E+00  9.70211849E-01  6.59631580E-01 -1.67437483E+00  9.62201299E-01
  6.59631580E-01 -1.67437483E+00  9.62201299E-01  6.59631580E-01 -1.67437483E+00
  9.62201299E-01  6.59631580E-01 -1.67437483E+00  9.62201299E-01  4.12615085E+00
  5.48020576E-05 -1.06202608E-03  4.12615085E+00  5.48020576E-05 -1.06202608E-03
  4.12615085E+00  5.48020576E-05 -1.06202608E-03  4.12615085E+00  5.48020576E-05
 -1.06202608E-03  4.12615085E+00  5.48020576E-05 -1.06202608E-03  6.32163277E+00
 -6.04712360E-05 -4.51644544E-04  6.32163277E+00 -6.04712360E-05 -4.51644544E-04
  6.32163277E+00 -6.04712360E-05 -4.51644544E-04  6.32163277E+00 -6.04712360E-05
 -4.51644544E-04  6.32163277E+00 -6.04712360E-05 -4.51644544E-04
Num ILSW                                   I              100
ILSW                                       I   N=         100
           0           1           0           0           2           0
           0           0           0           0         402          -1
           5           0           0           0           2           0
           0           0           0           0           1           0
           1           1           0           0           0           0
           0           0      100000           0          -1           0
           0           0           0           0           0           0
           0           0           0           1           0           0
           0 -2000000000           1           0           0           0
           0           0           4          52           0           0
           0           0           5           0           0           0
           0           0           0           7           0           1
           0           0           0           0           0           0
           0           0           0           0           0           0
           0           0           0           0           0           0
           0           0           0           0           0           0
           0           0           0           0
Num RLSW                                   I               52
RLSW                                       R   N=          52
  8.00000000E-01  7.20000000E-01  1.00000000E+00  8.10000000E-01  2.00000000E-01
  0.00000000E+00  0.00000000E+00  1.00000000E+00  0.00000000E+00  0.00000000E+00
  0.00000000E+00  0.00000000E+00  1.00000000E+00  0.00000000E+00  0.00000000E+00
  0.00000000E+00  0.00000000E+00  1.00000000E+00  0.00000000E+00  0.00000000E+00
  0.00000000E+00  0.00000000E+00  1.00000000E+00  0.00000000E+00  0.00000000E+00
  0.00000000E+00  0.00000000E+00  1.00000000E+00  0.00000000E+00  0.00000000E+00
  0.00000000E+00  0.00000000E+00  1.00000000E+00  0.00000000E+00  0.00000000E+00
  0.00000000E+00  0.00000000E+00  0.00000000E+00  1.00000000E+00  1.00000000E+00
  0.00000000E+00  1.00000000E+00  0.00000000E+00  0.00000000E+00  0.00000000E+00
  0.00000000E+00  0.00000000E+00  0.00000000E+00  0.00000000E+00  0.00000000E+00
  0.00000000E+00  0.00000000E+00
MxBond                                     I                4
NBond                                      I   N=           7
           4           0           1           1           1           2
           1
IBond                                      I   N=          28
           3           4           5           6           0           0
           0           0           1           0           0           0
           1           0           0           0           1           0
           0           0           1           7           0           0
           6           0           0           0
RBond                                      R   N=          28
  1.00000000E+00  1.00000000E+00  1.00000000E+00  1.00000000E+00  0.00000000E+00
  0.00000000E+00  0.00000000E+00  0.00000000E+00  1.00000000E+00  0.00000000E+00
  0.00000000E+00  0.00000000E+00  1.00000000E+00  0.00000000E+00  0.00000000E+00
  0.00000000E+00  1.00000000E+00  0.00000000E+00  0.00000000E+00  0.00000000E+00
  1.00000000E+00  3.00000000E+00  0.00000000E+00  0.00000000E+00  3.00000000E+00
  0.00000000E+00  0.00000000E+00  0.00000000E+00
Virial Ratio                               R      2.004637984591696E+00
SCF Energy                                 R     -5.930591256513102E+02
Total Energy                               R     -5.930591256513102E+02
RMS Force                                  R      2.398170138378695E-03
RMS Density                                R      1.591226980835150E-09
NImag                                      I                2
Job Status                                 I                1
Nuclear derivative order                   I                2
External E-field                           R   N=          35
  0.00000000E+00  0.00000000E+00  0.00000000E+00  0.00000000E+00  0.00000000E+00
  0.00000000E+00  0.00000000E+00  0.00000000E+00  0.00000000E+00  0.00000000E+00
  0.00000000E+00  0.00000000E+00  0.00000000E+00  0.00000000E+00  0.00000000E+00
  0.00000000E+00  0.00000000E+00  0.00000000E+00  0.00000000E+00  0.00000000E+00
  0.00000000E+00  0.00000000E+00  0.00000000E+00  0.00000000E+00  0.00000000E+00
  0.00000000E+00  0.00000000E+00  0.00000000E+00  0.00000000E+00  0.00000000E+00
  0.00000000E+00  0.00000000E+00  0.00000000E+00  0.00000000E+00  0.00000000E+00
IOpCl                                      I                0
IROHF                                      I                0
Alpha Orbital Energies                     R   N=          98
 -1.01255061E+02 -1.42239216E+01 -1.01206661E+01 -1.00896802E+01 -9.16873738E+00
 -6.92659716E+00 -6.92659681E+00 -6.92631143E+00 -7.94331629E-01 -6.38974528E-01
 -5.08144780E-01 -3.76274354E-01 -3.22141312E-01 -3.22060131E-01 -2.55101624E-01
 -2.12843834E-01 -2.12840082E-01 -5.38584534E-02 -5.38571531E-02 -5.37817846E-02
  1.03122413E-01  1.39071457E-01  1.39083228E-01  1.44423305E-01  1.50598750E-01
  1.50620766E-01  2.00434257E-01  2.07608171E-01  2.07618402E-01  2.19349548E-01
  2.34367180E-01  2.34381031E-01  2.55763778E-01  2.60392090E-01  2.60404449E-01
  2.98596503E-01  3.29711036E-01  3.39081558E-01  3.39083047E-01  3.48113982E-01
  3.48172466E-01  3.59705821E-01  3.94871627E-01  4.14429149E-01  4.87868534E-01
  6.90496770E-01  7.90407127E-01  7.90423878E-01  8.47331918E-01  8.47453016E-01
  8.54027550E-01  8.54036763E-01  8.60944831E-01  8.97409573E-01  9.84821469E-01
  1.02779767E+00  1.02789053E+00  1.04031209E+00  1.09829171E+00  1.12453171E+00
  1.12455158E+00  1.15300835E+00  1.15301098E+00  1.16087021E+00  1.16093122E+00
  1.22402817E+00  1.27167016E+00  1.29096811E+00  1.45836184E+00  1.45850335E+00
  1.54483863E+00  1.63007606E+00  1.63007873E+00  1.86788656E+00  1.86810971E+00
  1.91976282E+00  2.05742860E+00  2.05750869E+00  2.15398763E+00  2.24390712E+00
  2.24406543E+00  2.32539994E+00  2.40271991E+00  2.40280067E+00  2.79826429E+00
  2.80768533E+00  2.80800196E+00  3.06314005E+00  3.09773665E+00  3.09816338E+00
  3.29124105E+00  3.46160911E+00  3.55916003E+00  3.55928768E+00  4.26133998E+00
  4.45293557E+00  4.58606461E+00  4.81649877E+00
Alpha MO coefficients                      R   N=        9604
  1.10964349E-06  2.21708696E-05 -3.61037900E-07 -2.22678989E-09  1.77299826E-08
 -1.20543056E-04 -8.44030144E-05 -4.93001776E-09  7.80559017E-08  1.59905494E-03
  6.10583873E-04 -1.14649188E-09 -1.86016169E-07 -2.22276604E-05  1.87193097E-06
  1.84703261E-06 -1.18402530E-09  2.10504528E-08 -1.65296281E-09  9.95997891E-01
  1.51405163E-02  3.47857706E-06  4.66499473E-10 -2.91517452E-09 -2.10656365E-02
 -9.32313178E-06 -7.43075308E-10  5.80887075E-09  1.97883244E-03  2.24723835E-05
  1.41047093E-09 -1.15418079E-08 -2.75542879E-04 -9.89825007E-06 -8.13082719E-10
  2.61198866E-08  7.50385151E-03  7.50543951E-03  7.50543949E-03  1.14443027E-10
 -3.33229545E-10  5.72917442E-12  2.77466210E-06 -3.15099121E-05  7.20992721E-05
  9.77836838E-06  1.39507416E-08 -6.12402598E-06  2.83579473E-06 -3.15870623E-05
  7.20538590E-05  9.71168502E-06  5.29849793E-06  3.07886734E-06  2.84419581E-06
 -3.16001437E-05  7.20490723E-05  9.70056056E-06 -5.31410866E-06  3.05369336E-06
 -2.76223532E-07 -6.46560394E-06  1.65305190E-06  1.90154385E-10  2.24647426E-09
 -8.27539295E-05 -2.22045102E-04  3.37115343E-09  1.57153198E-08 -1.96447794E-03
  4.92100817E-04  1.72830840E-08 -4.41256873E-07  8.15518349E-06  4.90032575E-07
  4.88038524E-07  2.84971999E-10 -7.99767158E-09 -1.54154879E-10 -2.55192938E-06
 -1.25535351E-05  2.55510429E-06 -9.66361899E-10  1.05954141E-08  1.83742221E-04
 -7.53212943E-05  8.88439606E-09 -7.53054254E-08  2.31851350E-04 -1.03076175E-04
 -2.56673431E-09  1.02104821E-07 -2.54630274E-06 -4.73454853E-06 -4.73452812E-06
 -7.46584567E-10  5.22101992E-09 -5.70145515E-12  9.56922479E-06 -1.87764058E-04
  2.72815714E-04  1.24665954E-08 -2.03680727E-07  1.03963786E-03  6.89694703E-04
  2.88025258E-08 -7.36657746E-07  1.12448670E-02  3.23725459E-03  3.68380093E-08
 -1.61776473E-06  4.77528615E-04  2.66390126E-05  2.67262567E-05  1.48815430E-08
 -4.17688582E-07  6.45303491E-09 -2.24469992E-08 -2.94339541E-06  4.80370938E-06
  1.89066838E-10  6.69145638E-10  5.12683105E-08 -2.95282740E-05 -1.10244071E-09
 -2.80674740E-09 -1.24848664E-05  8.80521158E-05  3.77969746E-09 -7.13494973E-09
  5.04279165E-04  1.41610583E-04 -7.39054756E-09  1.55522025E-07  2.04549314E-06
 -1.28043118E-05 -1.28021232E-05  1.13139966E-10  5.94474091E-09  9.84122534E-11
 -1.10964085E-07 -5.79678388E-05 -1.83750589E-04 -3.91263550E-06  2.28068310E-09
 -1.50531037E-06 -4.36208952E-08 -5.76581725E-05 -1.83861449E-04 -3.86466150E-06
  1.23068064E-06  7.41670044E-07 -3.54929062E-08 -5.76449844E-05 -1.83945381E-04
 -3.85625149E-06 -1.21995085E-06  7.26178282E-07  7.87522328E-05  3.32051014E-04
 -5.57371675E-04  3.15282808E-08 -1.78207948E-07 -2.94337544E-05  1.41894480E-03
 -1.00955635E-08 -4.07082494E-07 -9.11004095E-03  4.59312291E-03 -3.57090432E-08
 -1.69705336E-06 -1.44749019E-03  2.08869354E-05  2.08862911E-05  6.57294459E-08
 -1.75229220E-07 -4.17724834E-10  9.92763670E-01  3.47290280E-02 -2.14122764E-03
  1.17734745E-07 -7.43366083E-07  3.50756958E-03  8.44215223E-04 -5.77322340E-08
  4.24696275E-07 -3.28558141E-03 -4.79314199E-04 -1.87053588E-08  5.81169510E-07
 -7.31343158E-03 -8.36427798E-03 -8.36428280E-03 -6.63897995E-08  3.66943359E-07
 -6.01249598E-10  5.46859558E-03  7.49556468E-05 -4.42131244E-04  2.41662200E-08
  2.17573972E-07  7.41908551E-03  2.82048279E-03  3.81241044E-09 -2.35141029E-06
  8.93490307E-02  3.33915370E-02  3.05283128E-07 -1.31369122E-05 -1.00225270E-03
 -1.96394776E-04 -1.96077928E-04 -6.01363443E-09  5.38854955E-07  3.57563049E-08
 -2.26351232E-07 -7.22304359E-06  2.62430162E-05  1.05838063E-09  6.61628908E-09
 -1.05889445E-05 -1.63479695E-04 -6.44246804E-09 -3.18772009E-08 -2.03554282E-04
  6.20491103E-04  2.01383139E-08  7.41247649E-09  6.06360996E-03  2.15947298E-03
 -3.63649555E-09  9.46755174E-07  2.97329924E-05 -4.09897088E-05 -4.09694121E-05
  2.26571007E-09  3.74828219E-08  8.65737928E-10 -1.23405721E-04 -6.71955139E-04
  4.45546613E-04  3.61618397E-05 -3.51363829E-08  1.71341266E-05 -1.23054086E-04
 -6.71437300E-04  4.50264614E-04  3.67220873E-05 -1.49022190E-05 -8.62506836E-06
 -1.22984665E-04 -6.71530276E-04  4.50488099E-04  3.69023989E-05  1.49626462E-05
 -8.55946461E-06  9.92780266E-01  5.04770046E-02  2.74680166E-04 -1.10752515E-07
  1.01162888E-06 -1.07372694E-02  7.93034886E-03 -2.81992076E-08 -2.63144167E-06
 -1.00626785E-01  2.79199169E-02  5.77308219E-07 -2.18211806E-05 -7.81166713E-03
 -9.88482999E-03 -9.88485286E-03 -6.97873661E-08  5.23396831E-08 -3.74981337E-09
 -4.67349900E-04  3.65959490E-04  3.40922510E-04 -2.48347338E-08  2.43624529E-07
 -8.13619036E-03  3.33185044E-03 -2.49879416E-07  1.62223988E-06  8.76155077E-03
 -6.80869030E-03 -6.63873009E-08  5.30698481E-06 -3.80454982E-05  3.45961051E-04
  3.45966209E-04  6.01207347E-08 -6.16311236E-07  3.17949852E-10  9.93014235E-01
  5.06809344E-02  7.71852436E-04 -1.62932932E-07  2.78418112E-07 -2.45929594E-02
 -4.58419289E-03  5.64507578E-07  1.79856503E-06  5.03489390E-02  2.19730068E-02
  1.04662190E-07 -6.04438241E-06 -8.94264228E-03 -8.87730799E-03 -8.87774057E-03
 -2.55291532E-08  3.37189900E-07 -4.97329720E-08  1.44242364E-06  1.73885901E-05
  4.50541245E-06 -4.24011529E-09  3.98867600E-08  7.11892610E-05 -2.70800436E-05
  2.52549072E-08 -2.38584405E-07 -4.02209026E-04  1.77125873E-04 -6.46637123E-08
  6.31378321E-07  4.83104659E-03  1.78908599E-03 -1.18164336E-09  4.65697564E-07
  1.41241938E-05  2.81856131E-05  2.81329221E-05 -1.33479312E-08  1.41203104E-07
 -3.32900488E-09  3.38175517E-06  3.20796704E-03  3.43649360E-04  2.71403580E-05
  2.38772686E-07 -1.19466183E-04  3.48645867E-06  3.20755894E-03  3.45367010E-04
  2.66325326E-05  1.03323342E-04  6.01221355E-05  3.48479905E-06  3.20848696E-03
  3.45494198E-04  2.65385872E-05 -1.03575850E-04  5.95627044E-05 -5.76776839E-03
 -4.12770627E-04  2.74786927E-04 -3.14241956E-08  1.26354699E-07  3.50294756E-03
 -9.45279628E-03  2.00424806E-07  1.05804958E-06 -5.94885132E-02  1.50413449E-02
  6.30242216E-07 -1.54309963E-05 -8.39245319E-04 -1.93166530E-08  1.39837898E-07
  3.82239910E-10  3.87382790E-07  2.05835274E-08 -1.74539324E-05 -4.51300009E-05
 -2.49845968E-04  1.00952240E-08  2.80255275E-08  5.32273810E-03 -1.74982525E-03
  2.31001308E-07 -2.47495880E-06  5.16895532E-03 -2.68637802E-03 -2.28690652E-07
  4.48470207E-06  1.48287021E-04 -7.38565585E-05 -7.38536699E-05 -4.24704586E-08
  4.56303115E-07 -4.38086165E-10  5.52146823E-05  3.40871368E-04  2.19631475E-04
  2.16731927E-08 -1.98296892E-07 -5.38263560E-03 -4.55162549E-03 -3.85760337E-07
  4.58311041E-06  1.03617774E-02  7.14430337E-03  2.02854025E-07 -2.64622224E-06
 -1.59691201E-04  9.28698215E-05  9.27168639E-05  1.56906969E-08  1.58156349E-07
 -1.07137095E-08 -2.84638936E-01  1.02267301E+00  1.58890892E-04  4.88091795E-08
 -3.23507133E-07  7.51248828E-02  4.67716645E-04  1.15879164E-08 -4.02646834E-08
 -2.12980958E-02 -1.40644595E-03 -2.85474507E-08  1.95954275E-07  1.25148026E-02
  4.11368011E-03  1.21113018E-07 -1.16717200E-06 -1.56432439E-02 -1.55949498E-02
 -1.55948978E-02  3.95050615E-09 -2.06911871E-08  3.65668790E-09 -3.98557034E-05
 -6.28999454E-04 -2.76900476E-03  1.13374320E-04  1.25073780E-07 -4.55022559E-05
 -3.92993545E-05 -6.32688756E-04 -2.75843301E-03  1.13866868E-04  3.96983330E-05
  2.28321013E-05 -3.92004011E-05 -6.33275383E-04 -2.75771049E-03  1.13915473E-04
 -3.98419114E-05  2.26841695E-05 -4.91894680E-05 -3.03433767E-04 -2.65591108E-05
  9.29434993E-09 -9.37298766E-08  3.62438348E-04 -7.02399235E-03  1.02771047E-07
  1.54235630E-06 -5.72278590E-03  7.49966090E-04 -2.10242387E-07 -1.44365228E-06
  9.57213407E-05 -4.83204438E-05 -4.83917475E-05  9.30759357E-09 -1.60187730E-07
 -5.53267264E-09 -1.22908188E-04 -4.97669350E-04  2.59142226E-05 -1.31726023E-08
  1.85671938E-07  6.52331097E-03 -1.97458477E-03  2.01476780E-07 -1.97961484E-06
 -1.97791429E-03  1.02139863E-03  5.28913749E-08  2.20220813E-07 -1.91951432E-04
 -2.41300504E-04 -2.41292269E-04 -1.76227399E-08  2.16352045E-07  3.40242174E-10
 -1.75251360E-07 -8.80837692E-07 -9.30721464E-08 -1.46699429E-06 -1.79066280E-05
  8.63839271E-06 -3.89791276E-07 -5.03745147E-05 -6.17868538E-04  3.09190665E-05
  6.44860824E-06  2.94569641E-05  3.61331502E-04 -7.29554023E-08 -3.93607137E-05
  3.90075933E-05  2.84326904E-06  3.49518418E-05 -4.01222655E-06 -1.54816357E-07
  4.63696673E-07 -7.01884931E-04  8.06452343E-02  9.87534779E-01 -3.38148513E-07
 -2.13041293E-05  2.41241075E-03  2.95411100E-02  1.39821585E-06  8.68117170E-06
 -9.31529167E-04 -1.14073257E-02 -3.17839891E-06 -4.40746370E-06  4.01215409E-04
  4.91393144E-03 -1.25711018E-07  2.71251146E-06 -3.00299149E-06  3.27847570E-06
  4.01506299E-05  2.95199345E-07  1.59674012E-04 -1.13202346E-03  4.33718852E-03
  2.72074035E-05  1.71343454E-06 -1.20511722E-04 -9.11772411E-05  6.41061412E-04
 -2.48559613E-03 -1.54071432E-05 -6.63528604E-05 -2.23526627E-05 -6.79384307E-05
  4.77112482E-04 -1.85488423E-03 -1.14641500E-05  5.19951264E-05 -1.21017712E-05
  5.94822088E-08  2.63849627E-07 -1.65269228E-08  3.62826844E-06  4.44408137E-05
 -4.57895917E-06  1.10648585E-06 -6.33310261E-06 -7.75146609E-05 -1.92729038E-05
  6.61007213E-06  9.45418306E-05  1.15974897E-03 -5.21249412E-08 -6.17661779E-06
  6.43996429E-06 -1.46741432E-06 -1.79904373E-05 -6.44138597E-07 -7.35460099E-08
 -2.49403481E-07  8.22613505E-09 -9.76584609E-07 -1.20011659E-05  1.87446971E-06
 -8.16065388E-07  6.21605103E-06  7.63224669E-05 -2.11671412E-06  2.38741252E-07
 -3.33337480E-05 -4.09417224E-04 -4.92441607E-08  3.20342670E-06 -3.60786466E-06
 -7.45985206E-07 -9.12915030E-06  3.49598270E-07  3.81804116E-08  2.08685413E-07
  7.87333101E-09 -1.82857730E-05  1.48856084E-06 -2.18068439E-06 -2.22554901E-07
 -6.14127766E-04  5.02349689E-05 -1.46335288E-05 -4.13294177E-06  3.58825890E-04
 -2.93514830E-05  3.82739593E-09  3.50305968E-06 -3.43579321E-06  3.45662570E-05
 -2.83378915E-06 -4.50266885E-05  3.58739594E-08 -1.07364633E-07  1.50174377E-04
  9.87535105E-01 -8.06451502E-02  7.52307954E-08  4.57991505E-06  2.95407156E-02
 -2.41239592E-03 -2.96995703E-07 -1.91726579E-06 -1.14062807E-02  9.31501269E-04
  1.74969449E-07  7.68574661E-07  4.91172232E-03 -4.01178303E-04  2.78042574E-08
 -2.10490389E-07  2.90664852E-07  4.01708100E-05 -3.28082635E-06  3.28291458E-06
 -1.34598016E-05  9.55171372E-05 -3.63919149E-04 -2.29058551E-06  1.68780841E-05
  1.01811440E-05 -1.31694728E-04  9.26994974E-04 -3.56536438E-03 -2.22751004E-05
 -8.06619153E-05 -5.79747280E-05  1.45022446E-04 -1.01965529E-03  3.93016359E-03
  2.45068466E-05 -9.08189666E-05  6.04296217E-05 -2.48649885E-08 -1.12523467E-07
  6.61351229E-09  4.44769838E-05 -3.63308151E-06  8.87345492E-07 -1.00916972E-06
 -7.85454581E-05  6.41144715E-06  1.23740769E-05 -4.06795317E-06  1.15693105E-03
 -9.46430298E-05 -1.06820071E-08  5.18995113E-07 -6.03010440E-07 -1.78887551E-05
  1.46256660E-06 -7.26067334E-06  4.62354465E-09  2.77151685E-09  1.27777252E-09
 -1.19760424E-05  9.81460825E-07  3.19225480E-07 -1.39352178E-07  7.63620879E-05
 -6.25275371E-06  4.51550416E-07  3.45269619E-07 -4.07272706E-04  3.33589757E-05
  1.31228349E-08 -2.83010126E-07  3.22341314E-07 -9.20396892E-06  7.51184306E-07
  3.93812148E-06 -1.18744437E-06  1.47254931E-04  2.32089959E-04  1.47358292E-08
 -1.98681143E-07 -6.23371152E-03 -5.90501676E-03 -1.02402659E-07  3.80117193E-06
 -1.17099622E-01 -4.67619673E-02 -5.46515876E-07  1.63097048E-05 -2.42261242E-04
 -6.34779016E-05 -6.33810380E-05  1.94889745E-08  1.05238025E-07  1.40530294E-08
  8.63611755E-05 -1.53093252E-04  9.90702207E-01 -9.25613290E-05  7.11817860E-04
  4.14673298E-04  3.03064063E-02 -2.76355739E-06  2.13819764E-05 -1.77349870E-03
 -1.34679843E-02  1.05864081E-06 -8.32410312E-06 -6.71423040E-03  2.21603639E-03
 -4.50599877E-07  2.09658136E-06  1.69906448E-04  3.13326270E-04  3.13324523E-04
  3.42438539E-10 -5.05367066E-08  6.46730300E-11 -1.59273926E-04 -2.48206926E-06
 -2.55053335E-03  1.35269320E-04 -1.38791929E-09  5.24757041E-06 -1.59072531E-04
 -4.10962483E-06 -2.55777807E-03  1.36292766E-04 -4.28883149E-06 -2.72013286E-06
 -1.58988641E-04 -4.18825493E-06 -2.55914947E-03  1.36409235E-04  4.30136039E-06
 -2.68680634E-06 -1.58611034E-04 -7.67070541E-04  1.35116207E-05  1.87921402E-08