 Entering Gaussian System, Link 0=g16
 Initial command:
 /usr/local/g16_AVX//g16/l1.exe "/scratch/alanqf/0041-54483.ixchel.mda.cinvestav.mx/Gau-17456.inp" -scrdir="/scratch/alanqf/0041-54483.ixchel.mda.cinvestav.mx/"
 Entering Link 1 = /usr/local/g16_AVX//g16/l1.exe PID=     17457.
  
 Copyright (c) 1988-2017, Gaussian, Inc.  All Rights Reserved.
  
 This is part of the Gaussian(R) 16 program.  It is based on
 the Gaussian(R) 09 system (copyright 2009, Gaussian, Inc.),
 the Gaussian(R) 03 system (copyright 2003, Gaussian, Inc.),
 the Gaussian(R) 98 system (copyright 1998, Gaussian, Inc.),
 the Gaussian(R) 94 system (copyright 1995, Gaussian, Inc.),
 the Gaussian 92(TM) system (copyright 1992, Gaussian, Inc.),
 the Gaussian 90(TM) system (copyright 1990, Gaussian, Inc.),
 the Gaussian 88(TM) system (copyright 1988, Gaussian, Inc.),
 the Gaussian 86(TM) system (copyright 1986, Carnegie Mellon
 University), and the Gaussian 82(TM) system (copyright 1983,
 Carnegie Mellon University). Gaussian is a federally registered
 trademark of Gaussian, Inc.
  
 This software contains proprietary and confidential information,
 including trade secrets, belonging to Gaussian, Inc.
  
 This software is provided under written license and may be
 used, copied, transmitted, or stored only in accord with that
 written license.
  
 The following legend is applicable only to US Government
 contracts under FAR:
  
                    RESTRICTED RIGHTS LEGEND
  
 Use, reproduction and disclosure by the US Government is
 subject to restrictions as set forth in subparagraphs (a)
 and (c) of the Commercial Computer Software - Restricted
 Rights clause in FAR 52.227-19.
  
 Gaussian, Inc.
 340 Quinnipiac St., Bldg. 40, Wallingford CT 06492
  
  
 ---------------------------------------------------------------
 Warning -- This program may not be used in any manner that
 competes with the business of Gaussian, Inc. or will provide
 assistance to any competitor of Gaussian, Inc.  The licensee
 of this program is prohibited from giving any competitor of
 Gaussian, Inc. access to this program.  By using this program,
 the user acknowledges that Gaussian, Inc. is engaged in the
 business of creating and licensing software in the field of
 computational chemistry and represents and warrants to the
 licensee that it is not a competitor of Gaussian, Inc. and that
 it will not use this program in any manner prohibited above.
 ---------------------------------------------------------------
  

 Cite this work as:
 Gaussian 16, Revision B.01,
 M. J. Frisch, G. W. Trucks, H. B. Schlegel, G. E. Scuseria, 
 M. A. Robb, J. R. Cheeseman, G. Scalmani, V. Barone, 
 G. A. Petersson, H. Nakatsuji, X. Li, M. Caricato, A. V. Marenich, 
 J. Bloino, B. G. Janesko, R. Gomperts, B. Mennucci, H. P. Hratchian, 
 J. V. Ortiz, A. F. Izmaylov, J. L. Sonnenberg, D. Williams-Young, 
 F. Ding, F. Lipparini, F. Egidi, J. Goings, B. Peng, A. Petrone, 
 T. Henderson, D. Ranasinghe, V. G. Zakrzewski, J. Gao, N. Rega, 
 G. Zheng, W. Liang, M. Hada, M. Ehara, K. Toyota, R. Fukuda, 
 J. Hasegawa, M. Ishida, T. Nakajima, Y. Honda, O. Kitao, H. Nakai, 
 T. Vreven, K. Throssell, J. A. Montgomery, Jr., J. E. Peralta, 
 F. Ogliaro, M. J. Bearpark, J. J. Heyd, E. N. Brothers, K. N. Kudin, 
 V. N. Staroverov, T. A. Keith, R. Kobayashi, J. Normand, 
 K. Raghavachari, A. P. Rendell, J. C. Burant, S. S. Iyengar, 
 J. Tomasi, M. Cossi, J. M. Millam, M. Klene, C. Adamo, R. Cammi, 
 J. W. Ochterski, R. L. Martin, K. Morokuma, O. Farkas, 
 J. B. Foresman, and D. J. Fox, Gaussian, Inc., Wallingford CT, 2016.
 
 ******************************************
 Gaussian 16:  ES64L-G16RevB.01 20-Dec-2017
                13-Oct-2024 
 ******************************************
 %NProcShared=26
 Will use up to   26 processors via shared memory.
 %MEM=20GB
 %chk=CHKfiles/0041.chk
 ---------------------------------------------------------------------
 #p b3lyp 6-31++g(d,p) scf=verytight NoSymm freq=noraman int=ultrafine
 ---------------------------------------------------------------------
 1/10=4,30=1,38=1/1,3;
 2/12=2,15=1,17=6,18=5,40=1/2;
 3/5=1,6=6,7=1111,11=2,25=1,30=1,71=2,74=-5,75=-5,140=1/1,2,3;
 4//1;
 5/5=2,17=3,38=5,98=1/2;
 8/6=4,10=90,11=11/1;
 11/6=1,8=1,9=11,15=111,16=1,31=1/1,2,10;
 10/6=1,31=1/2;
 6/7=2,8=2,9=2,10=2,28=1/1;
 7/8=1,10=1,25=1,30=1/1,2,3,16;
 1/10=4,30=1/3;
 99//99;
 Leave Link    1 at Sun Oct 13 09:48:16 2024, MaxMem=  2684354560 cpu:               1.3 elap:               0.1
 (Enter /usr/local/g16_AVX//g16/l101.exe)
 ------------------------
 RxCoord=-5.99138 DE=2.41
 ------------------------
 Symbolic Z-matrix:
 Charge = -1 Multiplicity = 1
 C                     0.72474   0.00009   0.00009 
 Cl                   -2.36292  -0.00001   0.00017 
 H                     0.34325   0.00244  -1.0206 
 H                     0.34421   0.88366   0.51327 
 H                     0.34322  -0.88643   0.50932 
 C                     2.1776    0.00003  -0.00054 
 N                     3.3394   -0.00004  -0.00019 
 
 ITRead=  0  0  0  0  0  0  0
 MicOpt= -1 -1 -1 -1 -1 -1 -1
 NAtoms=      7 NQM=        7 NQMF=       0 NMMI=      0 NMMIF=      0
                NMic=       0 NMicF=      0.
                    Isotopes and Nuclear Properties:
 (Nuclear quadrupole moments (NQMom) in fm**2, nuclear magnetic moments (NMagM)
  in nuclear magnetons)

  Atom         1           2           3           4           5           6           7
 IAtWgt=          12          35           1           1           1          12          14
 AtmWgt=  12.0000000  34.9688527   1.0078250   1.0078250   1.0078250  12.0000000  14.0030740
 NucSpn=           0           3           1           1           1           0           2
 AtZEff=  -0.0000000  -0.0000000  -0.0000000  -0.0000000  -0.0000000  -0.0000000  -0.0000000
 NQMom=    0.0000000  -8.1650000   0.0000000   0.0000000   0.0000000   0.0000000   2.0440000
 NMagM=    0.0000000   0.8218740   2.7928460   2.7928460   2.7928460   0.0000000   0.4037610
 AtZNuc=   6.0000000  17.0000000   1.0000000   1.0000000   1.0000000   6.0000000   7.0000000
 Leave Link  101 at Sun Oct 13 09:48:16 2024, MaxMem=  2684354560 cpu:               2.9 elap:               0.2
 (Enter /usr/local/g16_AVX//g16/l103.exe)

 GradGradGradGradGradGradGradGradGradGradGradGradGradGradGradGradGradGrad
 Berny optimization.
 Initialization pass.
 Trust Radius=3.00D-01 FncErr=1.00D-07 GrdErr=1.00D-07 EigMax=2.50D+02 EigMin=1.00D-04
 Number of steps in this run=      2 maximum allowed number of steps=      2.
 GradGradGradGradGradGradGradGradGradGradGradGradGradGradGradGradGradGrad

 Leave Link  103 at Sun Oct 13 09:48:17 2024, MaxMem=  2684354560 cpu:               0.5 elap:               0.1
 (Enter /usr/local/g16_AVX//g16/l202.exe)
                          Input orientation:                          
 ---------------------------------------------------------------------
 Center     Atomic      Atomic             Coordinates (Angstroms)
 Number     Number       Type             X           Y           Z
 ---------------------------------------------------------------------
      1          6           0        0.724740    0.000086    0.000085
      2         17           0       -2.362921   -0.000014    0.000172
      3          1           0        0.343249    0.002443   -1.020597
      4          1           0        0.344206    0.883657    0.513274
      5          1           0        0.343219   -0.886431    0.509324
      6          6           0        2.177595    0.000027   -0.000536
      7          7           0        3.339400   -0.000038   -0.000188
 ---------------------------------------------------------------------
                    Distance matrix (angstroms):
                    1          2          3          4          5
     1  C    0.000000
     2  Cl   3.087661   0.000000
     3  H    1.089648   2.892288   0.000000
     4  H    1.090352   2.893559   1.768983   0.000000
     5  H    1.091236   2.892778   1.769394   1.770093   0.000000
     6  C    1.452855   4.540516   2.098894   2.099075   2.100167
     7  N    2.614660   5.702321   3.165148   3.164767   3.165817
                    6          7
     6  C    0.000000
     7  N    1.161805   0.000000
 Symmetry turned off by external request.
 Stoichiometry    C2H3ClN(1-)
 Framework group  C1[X(C2H3ClN)]
 Deg. of freedom    15
 Full point group                 C1      NOp   1
 Rotational constants (GHZ):         160.1531612           1.2132754           1.2132687
 Leave Link  202 at Sun Oct 13 09:48:17 2024, MaxMem=  2684354560 cpu:               0.2 elap:               0.0
 (Enter /usr/local/g16_AVX//g16/l301.exe)
 Standard basis: 6-31++G(d,p) (6D, 7F)
 Ernie: Thresh=  0.10000D-02 Tol=  0.10000D-05 Strict=F.
    98 basis functions,   176 primitive gaussians,    98 cartesian basis functions
    20 alpha electrons       20 beta electrons
       nuclear repulsion energy       108.1646219329 Hartrees.
 IExCor=  402 DFT=T Ex+Corr=B3LYP ExCW=0 ScaHFX=  0.200000
 ScaDFX=  0.800000  0.720000  1.000000  0.810000 ScalE2=  1.000000  1.000000
 IRadAn=      5 IRanWt=     -1 IRanGd=            0 ICorTp=0 IEmpDi=  4
 NAtoms=    7 NActive=    7 NUniq=    7 SFac= 1.00D+00 NAtFMM=   60 NAOKFM=F Big=F
 Integral buffers will be    131072 words long.
 Raffenetti 2 integral format.
 Two-electron integral symmetry is turned off.
 Leave Link  301 at Sun Oct 13 09:48:17 2024, MaxMem=  2684354560 cpu:               1.3 elap:               0.1
 (Enter /usr/local/g16_AVX//g16/l302.exe)
 NPDir=0 NMtPBC=     1 NCelOv=     1 NCel=       1 NClECP=     1 NCelD=      1
         NCelK=      1 NCelE2=     1 NClLst=     1 CellRange=     0.0.
 One-electron integrals computed using PRISM.
 NBasis=    98 RedAO= T EigKep=  1.31D-05  NBF=    98
 NBsUse=    98 1.00D-06 EigRej= -1.00D+00 NBFU=    98
 Precomputing XC quadrature grid using
 IXCGrd= 4 IRadAn=           5 IRanWt=          -1 IRanGd=           0 AccXCQ= 0.00D+00.
 Generated NRdTot=       0 NPtTot=           0 NUsed=           0 NTot=          32
 NSgBfM=    98    98    98    98    98 MxSgAt=     7 MxSgA2=     7.
 Leave Link  302 at Sun Oct 13 09:48:17 2024, MaxMem=  2684354560 cpu:               3.9 elap:               0.2
 (Enter /usr/local/g16_AVX//g16/l303.exe)
 DipDrv:  MaxL=1.
 Leave Link  303 at Sun Oct 13 09:48:17 2024, MaxMem=  2684354560 cpu:               0.7 elap:               0.1
 (Enter /usr/local/g16_AVX//g16/l401.exe)
 ExpMin= 3.60D-02 ExpMax= 2.52D+04 ExpMxC= 3.78D+03 IAcc=3 IRadAn=         5 AccDes= 0.00D+00
 Harris functional with IExCor=  402 and IRadAn=       5 diagonalized for initial guess.
 HarFok:  IExCor=  402 AccDes= 0.00D+00 IRadAn=         5 IDoV= 1 UseB2=F ITyADJ=14
 ICtDFT=  3500011 ScaDFX=  1.000000  1.000000  1.000000  1.000000
 FoFCou: FMM=F IPFlag=           0 FMFlag=      100000 FMFlg1=           0
         NFxFlg=           0 DoJE=T BraDBF=F KetDBF=T FulRan=T
         wScrn=  0.000000 ICntrl=       500 IOpCl=  0 I1Cent=   200000004 NGrid=           0
         NMat0=    1 NMatS0=      1 NMatT0=    0 NMatD0=    1 NMtDS0=    0 NMtDT0=    0
 Symmetry not used in FoFCou.
 Harris En= -593.113223169601    
 JPrj=0 DoOrth=F DoCkMO=F.
 Leave Link  401 at Sun Oct 13 09:48:17 2024, MaxMem=  2684354560 cpu:               5.8 elap:               0.3
 (Enter /usr/local/g16_AVX//g16/l502.exe)
 Keep R1 ints in memory in canonical form, NReq=35752935.
 FoFCou: FMM=F IPFlag=           0 FMFlag=           0 FMFlg1=           0
         NFxFlg=           0 DoJE=F BraDBF=F KetDBF=F FulRan=T
         wScrn=  0.000000 ICntrl=       600 IOpCl=  0 I1Cent=           0 NGrid=           0
         NMat0=    1 NMatS0=   4851 NMatT0=    0 NMatD0=    1 NMtDS0=    0 NMtDT0=    0
 Symmetry not used in FoFCou.
 Two-electron integral symmetry not used.
 Closed shell SCF:
 Using DIIS extrapolation, IDIIS=  1040.
 NGot=  2684354560 LenX=  2672563405 LenY=  2672553360
 Requested convergence on RMS density matrix=1.00D-08 within 128 cycles.
 Requested convergence on MAX density matrix=1.00D-06.
 Requested convergence on             energy=1.00D-06.
 No special actions if energy rises.

 Cycle   1  Pass 1  IDiag  1:
 E= -592.948657108067    
 DIIS: error= 2.83D-02 at cycle   1 NSaved=   1.
 NSaved= 1 IEnMin= 1 EnMin= -592.948657108067     IErMin= 1 ErrMin= 2.83D-02
 ErrMax= 2.83D-02  0.00D+00 EMaxC= 1.00D-01 BMatC= 1.05D-01 BMatP= 1.05D-01
 IDIUse=3 WtCom= 7.17D-01 WtEn= 2.83D-01
 Coeff-Com:  0.100D+01
 Coeff-En:   0.100D+01
 Coeff:      0.100D+01
 Gap=     0.174 Goal=   None    Shift=    0.000
 GapD=    0.174 DampG=1.000 DampE=0.500 DampFc=0.5000 IDamp=-1.
 Damping current iteration by 5.00D-01
 RMSDP=1.23D-02 MaxDP=2.67D-01              OVMax= 1.72D-01

 Cycle   2  Pass 1  IDiag  1:
 E= -592.990071975089     Delta-E=       -0.041414867023 Rises=F Damp=T
 DIIS: error= 1.54D-02 at cycle   2 NSaved=   2.
 NSaved= 2 IEnMin= 2 EnMin= -592.990071975089     IErMin= 2 ErrMin= 1.54D-02
 ErrMax= 1.54D-02  0.00D+00 EMaxC= 1.00D-01 BMatC= 1.37D-02 BMatP= 1.05D-01
 IDIUse=3 WtCom= 8.46D-01 WtEn= 1.54D-01
 Coeff-Com:  0.147D+00 0.853D+00
 Coeff-En:   0.222D+00 0.778D+00
 Coeff:      0.158D+00 0.842D+00
 Gap=     0.151 Goal=   None    Shift=    0.000
 RMSDP=5.19D-03 MaxDP=1.66D-01 DE=-4.14D-02 OVMax= 1.37D-01

 Cycle   3  Pass 1  IDiag  1:
 E= -593.041274607020     Delta-E=       -0.051202631931 Rises=F Damp=F
 DIIS: error= 1.35D-02 at cycle   3 NSaved=   3.
 NSaved= 3 IEnMin= 3 EnMin= -593.041274607020     IErMin= 3 ErrMin= 1.35D-02
 ErrMax= 1.35D-02  0.00D+00 EMaxC= 1.00D-01 BMatC= 1.92D-02 BMatP= 1.37D-02
 IDIUse=2 WtCom= 0.00D+00 WtEn= 1.00D+00
 Coeff-En:   0.000D+00 0.000D+00 0.100D+01
 Coeff:      0.000D+00 0.000D+00 0.100D+01
 Gap=     0.160 Goal=   None    Shift=    0.000
 RMSDP=7.65D-03 MaxDP=2.78D-01 DE=-5.12D-02 OVMax= 1.63D-01

 Cycle   4  Pass 1  IDiag  1:
 E= -592.946978708262     Delta-E=        0.094295898758 Rises=F Damp=F
 DIIS: error= 3.05D-02 at cycle   4 NSaved=   4.
 NSaved= 4 IEnMin= 3 EnMin= -593.041274607020     IErMin= 3 ErrMin= 1.35D-02
 ErrMax= 3.05D-02  0.00D+00 EMaxC= 1.00D-01 BMatC= 1.25D-01 BMatP= 1.37D-02
 IDIUse=2 WtCom= 0.00D+00 WtEn= 1.00D+00
 Coeff-En:   0.000D+00 0.000D+00 0.803D+00 0.197D+00
 Coeff:      0.000D+00 0.000D+00 0.803D+00 0.197D+00
 Gap=     0.157 Goal=   None    Shift=    0.000
 RMSDP=3.69D-03 MaxDP=1.34D-01 DE= 9.43D-02 OVMax= 8.29D-02

 Cycle   5  Pass 1  IDiag  1:
 E= -593.049497756296     Delta-E=       -0.102519048034 Rises=F Damp=F
 DIIS: error= 9.05D-03 at cycle   5 NSaved=   5.
 NSaved= 5 IEnMin= 5 EnMin= -593.049497756296     IErMin= 5 ErrMin= 9.05D-03
 ErrMax= 9.05D-03  0.00D+00 EMaxC= 1.00D-01 BMatC= 1.06D-02 BMatP= 1.37D-02
 IDIUse=3 WtCom= 9.09D-01 WtEn= 9.05D-02
 Coeff-Com: -0.897D-03 0.187D-01 0.321D+00-0.102D+00 0.763D+00
 Coeff-En:   0.000D+00 0.000D+00 0.390D+00 0.000D+00 0.610D+00
 Coeff:     -0.816D-03 0.170D-01 0.327D+00-0.926D-01 0.749D+00
 Gap=     0.158 Goal=   None    Shift=    0.000
 RMSDP=1.56D-03 MaxDP=5.51D-02 DE=-1.03D-01 OVMax= 3.28D-02

 Cycle   6  Pass 1  IDiag  1:
 E= -593.058988100251     Delta-E=       -0.009490343955 Rises=F Damp=F
 DIIS: error= 1.50D-04 at cycle   6 NSaved=   6.
 NSaved= 6 IEnMin= 6 EnMin= -593.058988100251     IErMin= 6 ErrMin= 1.50D-04
 ErrMax= 1.50D-04  0.00D+00 EMaxC= 1.00D-01 BMatC= 4.53D-06 BMatP= 1.06D-02
 IDIUse=3 WtCom= 9.98D-01 WtEn= 1.50D-03
 Coeff-Com: -0.158D-02 0.739D-02 0.119D+00-0.494D-01 0.324D+00 0.601D+00
 Coeff-En:   0.000D+00 0.000D+00 0.000D+00 0.000D+00 0.000D+00 0.100D+01
 Coeff:     -0.158D-02 0.738D-02 0.118D+00-0.494D-01 0.324D+00 0.601D+00
 Gap=     0.157 Goal=   None    Shift=    0.000
 RMSDP=4.08D-05 MaxDP=7.04D-04 DE=-9.49D-03 OVMax= 6.43D-04

 Cycle   7  Pass 1  IDiag  1:
 E= -593.058992303287     Delta-E=       -0.000004203035 Rises=F Damp=F
 DIIS: error= 6.63D-05 at cycle   7 NSaved=   7.
 NSaved= 7 IEnMin= 7 EnMin= -593.058992303287     IErMin= 7 ErrMin= 6.63D-05
 ErrMax= 6.63D-05  0.00D+00 EMaxC= 1.00D-01 BMatC= 5.19D-07 BMatP= 4.53D-06
 IDIUse=1 WtCom= 1.00D+00 WtEn= 0.00D+00
 Coeff-Com: -0.211D-03 0.798D-03 0.183D-01-0.959D-02 0.531D-01 0.189D+00
 Coeff-Com:  0.748D+00
 Coeff:     -0.211D-03 0.798D-03 0.183D-01-0.959D-02 0.531D-01 0.189D+00
 Coeff:      0.748D+00
 Gap=     0.157 Goal=   None    Shift=    0.000
 RMSDP=9.21D-06 MaxDP=1.78D-04 DE=-4.20D-06 OVMax= 2.47D-04

 Cycle   8  Pass 1  IDiag  1:
 E= -593.058992800864     Delta-E=       -0.000000497577 Rises=F Damp=F
 DIIS: error= 1.08D-05 at cycle   8 NSaved=   8.
 NSaved= 8 IEnMin= 8 EnMin= -593.058992800864     IErMin= 8 ErrMin= 1.08D-05
 ErrMax= 1.08D-05  0.00D+00 EMaxC= 1.00D-01 BMatC= 1.20D-08 BMatP= 5.19D-07
 IDIUse=1 WtCom= 1.00D+00 WtEn= 0.00D+00
 Coeff-Com:  0.407D-04-0.141D-03 0.399D-02-0.195D-02 0.106D-01 0.507D-01
 Coeff-Com:  0.261D+00 0.676D+00
 Coeff:      0.407D-04-0.141D-03 0.399D-02-0.195D-02 0.106D-01 0.507D-01
 Coeff:      0.261D+00 0.676D+00
 Gap=     0.157 Goal=   None    Shift=    0.000
 RMSDP=4.64D-06 MaxDP=1.42D-04 DE=-4.98D-07 OVMax= 3.47D-05

 Cycle   9  Pass 1  IDiag  1:
 E= -593.058992814068     Delta-E=       -0.000000013204 Rises=F Damp=F
 DIIS: error= 2.43D-06 at cycle   9 NSaved=   9.
 NSaved= 9 IEnMin= 9 EnMin= -593.058992814068     IErMin= 9 ErrMin= 2.43D-06
 ErrMax= 2.43D-06  0.00D+00 EMaxC= 1.00D-01 BMatC= 7.13D-10 BMatP= 1.20D-08
 IDIUse=1 WtCom= 1.00D+00 WtEn= 0.00D+00
 Coeff-Com:  0.312D-04-0.715D-04-0.661D-03 0.109D-03-0.146D-02-0.579D-03
 Coeff-Com:  0.172D-01 0.211D+00 0.775D+00
 Coeff:      0.312D-04-0.715D-04-0.661D-03 0.109D-03-0.146D-02-0.579D-03
 Coeff:      0.172D-01 0.211D+00 0.775D+00
 Gap=     0.157 Goal=   None    Shift=    0.000
 RMSDP=1.38D-06 MaxDP=5.07D-05 DE=-1.32D-08 OVMax= 7.43D-06

 Cycle  10  Pass 1  IDiag  1:
 E= -593.058992814818     Delta-E=       -0.000000000750 Rises=F Damp=F
 DIIS: error= 2.68D-07 at cycle  10 NSaved=  10.
 NSaved=10 IEnMin=10 EnMin= -593.058992814818     IErMin=10 ErrMin= 2.68D-07
 ErrMax= 2.68D-07  0.00D+00 EMaxC= 1.00D-01 BMatC= 1.49D-11 BMatP= 7.13D-10
 IDIUse=1 WtCom= 1.00D+00 WtEn= 0.00D+00
 Coeff-Com:  0.660D-05-0.181D-04-0.124D-03 0.573D-04-0.335D-03-0.343D-03
 Coeff-Com: -0.266D-02 0.268D-01 0.150D+00 0.827D+00
 Coeff:      0.660D-05-0.181D-04-0.124D-03 0.573D-04-0.335D-03-0.343D-03
 Coeff:     -0.266D-02 0.268D-01 0.150D+00 0.827D+00
 Gap=     0.157 Goal=   None    Shift=    0.000
 RMSDP=7.75D-08 MaxDP=1.47D-06 DE=-7.50D-10 OVMax= 1.23D-06

 Cycle  11  Pass 1  IDiag  1:
 E= -593.058992814833     Delta-E=       -0.000000000015 Rises=F Damp=F
 DIIS: error= 6.46D-08 at cycle  11 NSaved=  11.
 NSaved=11 IEnMin=11 EnMin= -593.058992814833     IErMin=11 ErrMin= 6.46D-08
 ErrMax= 6.46D-08  0.00D+00 EMaxC= 1.00D-01 BMatC= 5.22D-13 BMatP= 1.49D-11
 IDIUse=1 WtCom= 1.00D+00 WtEn= 0.00D+00
 Coeff-Com: -0.561D-06 0.839D-06-0.152D-04 0.755D-05-0.324D-04-0.825D-04
 Coeff-Com: -0.119D-02-0.164D-02 0.460D-02 0.102D+00 0.896D+00
 Coeff:     -0.561D-06 0.839D-06-0.152D-04 0.755D-05-0.324D-04-0.825D-04
 Coeff:     -0.119D-02-0.164D-02 0.460D-02 0.102D+00 0.896D+00
 Gap=     0.157 Goal=   None    Shift=    0.000
 RMSDP=9.77D-08 MaxDP=3.74D-06 DE=-1.52D-11 OVMax= 2.05D-07

 Cycle  12  Pass 1  IDiag  1:
 E= -593.058992814835     Delta-E=       -0.000000000002 Rises=F Damp=F
 DIIS: error= 2.10D-08 at cycle  12 NSaved=  12.
 NSaved=12 IEnMin=12 EnMin= -593.058992814835     IErMin=12 ErrMin= 2.10D-08
 ErrMax= 2.10D-08  0.00D+00 EMaxC= 1.00D-01 BMatC= 1.40D-14 BMatP= 5.22D-13
 IDIUse=1 WtCom= 1.00D+00 WtEn= 0.00D+00
 Coeff-Com: -0.498D-06 0.105D-05-0.868D-06-0.124D-07 0.201D-05-0.131D-04
 Coeff-Com: -0.231D-03-0.124D-02-0.332D-02 0.386D-02 0.280D+00 0.721D+00
 Coeff:     -0.498D-06 0.105D-05-0.868D-06-0.124D-07 0.201D-05-0.131D-04
 Coeff:     -0.231D-03-0.124D-02-0.332D-02 0.386D-02 0.280D+00 0.721D+00
 Gap=     0.157 Goal=   None    Shift=    0.000
 RMSDP=2.03D-08 MaxDP=8.01D-07 DE=-1.82D-12 OVMax= 4.35D-08

 Cycle  13  Pass 1  IDiag  1:
 E= -593.058992814835     Delta-E=       -0.000000000000 Rises=F Damp=F
 DIIS: error= 1.09D-09 at cycle  13 NSaved=  13.
 NSaved=13 IEnMin=13 EnMin= -593.058992814835     IErMin=13 ErrMin= 1.09D-09
 ErrMax= 1.09D-09  0.00D+00 EMaxC= 1.00D-01 BMatC= 1.95D-16 BMatP= 1.40D-14
 IDIUse=1 WtCom= 1.00D+00 WtEn= 0.00D+00
 Coeff-Com: -0.107D-07 0.137D-07 0.319D-06-0.729D-07 0.505D-06-0.247D-05
 Coeff-Com:  0.127D-04-0.144D-04-0.305D-03 0.455D-03-0.123D-01 0.965D-02
 Coeff-Com:  0.100D+01
 Coeff:     -0.107D-07 0.137D-07 0.319D-06-0.729D-07 0.505D-06-0.247D-05
 Coeff:      0.127D-04-0.144D-04-0.305D-03 0.455D-03-0.123D-01 0.965D-02
 Coeff:      0.100D+01
 Gap=     0.157 Goal=   None    Shift=    0.000
 RMSDP=1.55D-09 MaxDP=4.96D-08 DE=-2.27D-13 OVMax= 7.70D-09

 SCF Done:  E(RB3LYP) =  -593.058992815     A.U. after   13 cycles
            NFock= 13  Conv=0.15D-08     -V/T= 2.0046
 KE= 5.903255127004D+02 PE=-1.626680343802D+03 EE= 3.351312163541D+02
 Leave Link  502 at Sun Oct 13 09:48:19 2024, MaxMem=  2684354560 cpu:              38.6 elap:               1.8
 (Enter /usr/local/g16_AVX//g16/l801.exe)
 DoSCS=F DFT=T ScalE2(SS,OS)=  1.000000  1.000000
 Range of M.O.s used for correlation:     1    98
 NBasis=    98 NAE=    20 NBE=    20 NFC=     0 NFV=     0
 NROrb=     98 NOA=    20 NOB=    20 NVA=    78 NVB=    78

 **** Warning!!: The largest alpha MO coefficient is  0.13814896D+03

 Leave Link  801 at Sun Oct 13 09:48:19 2024, MaxMem=  2684354560 cpu:               0.6 elap:               0.0
 (Enter /usr/local/g16_AVX//g16/l1101.exe)
 Using compressed storage, NAtomX=     7.
 Will process      8 centers per pass.
 Leave Link 1101 at Sun Oct 13 09:48:19 2024, MaxMem=  2684354560 cpu:               3.5 elap:               0.2
 (Enter /usr/local/g16_AVX//g16/l1102.exe)
 Symmetrizing basis deriv contribution to polar:
 IMax=3 JMax=2 DiffMx= 0.00D+00
 Leave Link 1102 at Sun Oct 13 09:48:19 2024, MaxMem=  2684354560 cpu:               0.7 elap:               0.1
 (Enter /usr/local/g16_AVX//g16/l1110.exe)
 Forming Gx(P) for the SCF density, NAtomX=     7.
 Integral derivatives from FoFJK, PRISM(SPDF).
 Do as many integral derivatives as possible in FoFJK.
 G2DrvN: MDV=    2684353864.
 G2DrvN: will do     8 centers at a time, making    1 passes.
 Calling FoFCou, ICntrl=  3107 FMM=F I1Cent=   0 AccDes= 0.00D+00.
 FoFJK:  IHMeth= 1 ICntrl=    3107 DoSepK=F KAlg= 0 I1Cent=           0 FoldK=F
 IRaf=         0 NMat=       1 IRICut=       1 DoRegI=T DoRafI=F ISym2E= 0 IDoP0=0 IntGTp=1.
 FoFCou: FMM=F IPFlag=           0 FMFlag=      100000 FMFlg1=           0
         NFxFlg=           0 DoJE=F BraDBF=F KetDBF=F FulRan=T
         wScrn=  0.000000 ICntrl=      3107 IOpCl=  0 I1Cent=           0 NGrid=           0
         NMat0=    1 NMatS0=      1 NMatT0=    0 NMatD0=    1 NMtDS0=    0 NMtDT0=    0
 Symmetry not used in FoFCou.
 End of G2Drv F.D. properties file   721 does not exist.
 End of G2Drv F.D. properties file   722 does not exist.
 End of G2Drv F.D. properties file   788 does not exist.
 Leave Link 1110 at Sun Oct 13 09:48:21 2024, MaxMem=  2684354560 cpu:              40.0 elap:               1.6
 (Enter /usr/local/g16_AVX//g16/l1002.exe)
 Minotr:  Closed shell wavefunction.
          IDoAtm=1111111
          Direct CPHF calculation.
          Differentiating once with respect to electric field.
                with respect to dipole field.
          Differentiating once with respect to nuclear coordinates.
          Requested convergence is 1.0D-08 RMS, and 1.0D-07 maximum.
          Secondary convergence is 1.0D-12 RMS, and 1.0D-12 maximum.
          NewPWx=T KeepS1=F KeepF1=F KeepIn=T MapXYZ=F SortEE=F KeepMc=T.
         2136 words used for storage of precomputed grid.
 Keep R1 ints in memory in canonical form, NReq=35668397.
 FoFCou: FMM=F IPFlag=           0 FMFlag=           0 FMFlg1=           0
         NFxFlg=           0 DoJE=F BraDBF=F KetDBF=F FulRan=T
         wScrn=  0.000000 ICntrl=       600 IOpCl=  0 I1Cent=           0 NGrid=           0
         NMat0=    1 NMatS0=   4851 NMatT0=    0 NMatD0=    1 NMtDS0=    0 NMtDT0=    0
 Symmetry not used in FoFCou.
 Two-electron integral symmetry not used.
          MDV=    2684354560 using IRadAn=       1.
          Solving linear equations simultaneously, MaxMat=       0.
          There are    24 degrees of freedom in the 1st order CPHF.  IDoFFX=6 NUNeed=     3.
     21 vectors produced by pass  0 Test12= 6.50D-15 4.17D-09 XBig12= 6.93D+01 2.67D+00.
 AX will form    21 AO Fock derivatives at one time.
     21 vectors produced by pass  1 Test12= 6.50D-15 4.17D-09 XBig12= 4.74D+01 1.91D+00.
     21 vectors produced by pass  2 Test12= 6.50D-15 4.17D-09 XBig12= 1.46D+00 3.04D-01.
     21 vectors produced by pass  3 Test12= 6.50D-15 4.17D-09 XBig12= 1.02D-02 2.19D-02.
     21 vectors produced by pass  4 Test12= 6.50D-15 4.17D-09 XBig12= 1.45D-05 8.00D-04.
     19 vectors produced by pass  5 Test12= 6.50D-15 4.17D-09 XBig12= 1.45D-08 2.20D-05.
      5 vectors produced by pass  6 Test12= 6.50D-15 4.17D-09 XBig12= 2.11D-11 9.43D-07.
      3 vectors produced by pass  7 Test12= 6.50D-15 4.17D-09 XBig12= 3.41D-14 5.95D-08.
 InvSVY:  IOpt=1 It=  1 EMax= 8.55D-15
 Solved reduced A of dimension   132 with    24 vectors.
 FullF1:  Do perturbations      1 to       3.
 Isotropic polarizability for W=    0.000000       54.02 Bohr**3.
 End of Minotr F.D. properties file   721 does not exist.
 End of Minotr F.D. properties file   722 does not exist.
 End of Minotr F.D. properties file   788 does not exist.
 Leave Link 1002 at Sun Oct 13 09:48:23 2024, MaxMem=  2684354560 cpu:              58.4 elap:               2.3
 (Enter /usr/local/g16_AVX//g16/l601.exe)
 Copying SCF densities to generalized density rwf, IOpCl= 0 IROHF=0.

 **********************************************************************

            Population analysis using the SCF Density.

 **********************************************************************

 Alpha  occ. eigenvalues -- -101.25505 -14.22354 -10.12024 -10.08911  -9.16874
 Alpha  occ. eigenvalues --   -6.92661  -6.92661  -6.92631  -0.79399  -0.63876
 Alpha  occ. eigenvalues --   -0.50826  -0.37584  -0.32194  -0.32175  -0.25477
 Alpha  occ. eigenvalues --   -0.21249  -0.21245  -0.05394  -0.05394  -0.05378
 Alpha virt. eigenvalues --    0.10328   0.13926   0.13933   0.14453   0.15091
 Alpha virt. eigenvalues --    0.15092   0.20053   0.20776   0.20779   0.21935
 Alpha virt. eigenvalues --    0.23456   0.23459   0.25599   0.26046   0.26047
 Alpha virt. eigenvalues --    0.29910   0.32993   0.33933   0.33936   0.34839
 Alpha virt. eigenvalues --    0.34863   0.36052   0.39494   0.41488   0.48811
 Alpha virt. eigenvalues --    0.69063   0.79069   0.79071   0.84727   0.84735
 Alpha virt. eigenvalues --    0.85447   0.85454   0.86138   0.89853   0.98463
 Alpha virt. eigenvalues --    1.02793   1.02818   1.04069   1.09847   1.12486
 Alpha virt. eigenvalues --    1.12487   1.15296   1.15297   1.16115   1.16120
 Alpha virt. eigenvalues --    1.22491   1.27291   1.29345   1.45876   1.45884
 Alpha virt. eigenvalues --    1.54543   1.63040   1.63042   1.86877   1.86887
 Alpha virt. eigenvalues --    1.92107   2.05776   2.05781   2.15434   2.24391
 Alpha virt. eigenvalues --    2.24534   2.32742   2.40321   2.40368   2.79970
 Alpha virt. eigenvalues --    2.80842   2.80919   3.06420   3.09900   3.09930
 Alpha virt. eigenvalues --    3.29212   3.46288   3.55908   3.56073   4.26234
 Alpha virt. eigenvalues --    4.45409   4.58661   4.81728
          Condensed to atoms (all electrons):
               1          2          3          4          5          6
     1  C    6.052590  -0.137039   0.421128   0.421382   0.421541  -1.129686
     2  Cl  -0.137039  17.943801  -0.009652  -0.009669  -0.009633   0.134821
     3  H    0.421128  -0.009652   0.485037  -0.024304  -0.024344  -0.061571
     4  H    0.421382  -0.009669  -0.024304   0.485393  -0.024329  -0.061932
     5  H    0.421541  -0.009633  -0.024344  -0.024329   0.485393  -0.062054
     6  C   -1.129686   0.134821  -0.061571  -0.061932  -0.062054   6.894901
     7  N   -0.069331   0.001664  -0.005477  -0.005523  -0.005538   0.460666
               7
     1  C   -0.069331
     2  Cl   0.001664
     3  H   -0.005477
     4  H   -0.005523
     5  H   -0.005538
     6  C    0.460666
     7  N    7.210644
 Mulliken charges:
               1
     1  C    0.019415
     2  Cl  -0.914294
     3  H    0.219183
     4  H    0.218982
     5  H    0.218965
     6  C   -0.175146
     7  N   -0.587105
 Sum of Mulliken charges =  -1.00000
 Mulliken charges with hydrogens summed into heavy atoms:
               1
     1  C    0.676544
     2  Cl  -0.914294
     6  C   -0.175146
     7  N   -0.587105
 APT charges:
               1
     1  C   -0.002910
     2  Cl  -0.979734
     3  H    0.086975
     4  H    0.086734
     5  H    0.086938
     6  C    0.223161
     7  N   -0.501164
 Sum of APT charges =  -1.00000
 APT charges with hydrogens summed into heavy atoms:
               1
     1  C    0.257737
     2  Cl  -0.979734
     6  C    0.223161
     7  N   -0.501164
 Electronic spatial extent (au):  <R**2>=            859.4029
 Charge=             -1.0000 electrons
 Dipole moment (field-independent basis, Debye):
    X=              5.5453    Y=              0.0001    Z=             -0.0002  Tot=              5.5453
 Quadrupole moment (field-independent basis, Debye-Ang):
   XX=            -85.7518   YY=            -35.3923   ZZ=            -35.3936
   XY=              0.0010   XZ=              0.0034   YZ=             -0.0000
 Traceless Quadrupole moment (field-independent basis, Debye-Ang):
   XX=            -33.5725   YY=             16.7870   ZZ=             16.7856
   XY=              0.0010   XZ=              0.0034   YZ=             -0.0000
 Octapole moment (field-independent basis, Debye-Ang**2):
  XXX=            -14.7339  YYY=             -0.0042  ZZZ=             -0.8509  XYY=              3.9609
  XXY=              0.0027  XXZ=             -0.0002  XZZ=              3.9603  YZZ=              0.0066
  YYZ=              0.8482  XYZ=              0.0007
 Hexadecapole moment (field-independent basis, Debye-Ang**3):
 XXXX=          -1700.8300 YYYY=            -57.8430 ZZZZ=            -57.8342 XXXY=             -0.0016
 XXXZ=              0.0818 YYYX=             -0.0035 YYYZ=              0.0014 ZZZX=             -0.1769
 ZZZY=              0.0022 XXYY=           -216.7380 XXZZ=           -216.7351 YYZZ=            -19.2776
 XXYZ=              0.0011 YYXZ=              0.2437 ZZXY=              0.0010
 N-N= 1.081646219329D+02 E-N=-1.626680343551D+03  KE= 5.903255127004D+02
  Exact polarizability:  79.272   0.004  41.406  -0.007  -0.003  41.397
 Approx polarizability:  98.119   0.006  50.204  -0.004  -0.006  50.185
 No NMR shielding tensors so no spin-rotation constants.
 Leave Link  601 at Sun Oct 13 09:48:24 2024, MaxMem=  2684354560 cpu:               2.6 elap:               0.1
 (Enter /usr/local/g16_AVX//g16/l701.exe)
 ... and contract with generalized density number  0.
 Compute integral second derivatives.
 Leave Link  701 at Sun Oct 13 09:48:24 2024, MaxMem=  2684354560 cpu:               4.6 elap:               0.2
 (Enter /usr/local/g16_AVX//g16/l702.exe)
 L702 exits ... SP integral derivatives will be done elsewhere.
 Leave Link  702 at Sun Oct 13 09:48:24 2024, MaxMem=  2684354560 cpu:               0.5 elap:               0.0
 (Enter /usr/local/g16_AVX//g16/l703.exe)
 Integral derivatives from FoFJK, PRISM(SPDF).
 Compute integral second derivatives, UseDBF=F ICtDFT=           0.
 Calling FoFJK, ICntrl=    100127 FMM=F ISym2X=0 I1Cent= 0 IOpClX= 0 NMat=1 NMatS=1 NMatT=0.
 FoFJK:  IHMeth= 1 ICntrl=  100127 DoSepK=F KAlg= 0 I1Cent=           0 FoldK=F
 IRaf=         0 NMat=       1 IRICut=       1 DoRegI=T DoRafI=F ISym2E= 0 IDoP0=0 IntGTp=1.
 FoFCou: FMM=F IPFlag=           0 FMFlag=      100000 FMFlg1=         800
         NFxFlg=           0 DoJE=F BraDBF=F KetDBF=F FulRan=T
         wScrn=  0.000000 ICntrl=    100127 IOpCl=  0 I1Cent=           0 NGrid=           0
         NMat0=    1 NMatS0=      1 NMatT0=    0 NMatD0=    1 NMtDS0=    0 NMtDT0=    0
 Symmetry not used in FoFCou.
 Leave Link  703 at Sun Oct 13 09:48:26 2024, MaxMem=  2684354560 cpu:              66.8 elap:               2.6
 (Enter /usr/local/g16_AVX//g16/l716.exe)
 Dipole        = 2.18169226D+00 3.71360550D-05-7.73084883D-05
 Polarizability= 7.92717739D+01 3.78458261D-03 4.14062011D+01
                -7.32391183D-03-3.43666794D-03 4.13968996D+01
 Full mass-weighted force constant matrix:
 Low frequencies ---  -72.4265  -70.6555  -31.5760  -31.5492   -0.0029    0.0022
 Low frequencies ---    0.0037  120.0392  153.7175
 ******    2 imaginary frequencies (negative Signs) ****** 
 Diagonal vibrational polarizability:
       24.0972850     124.3111905     119.3402957
 Harmonic frequencies (cm**-1), IR intensities (KM/Mole), Raman scattering
 activities (A**4/AMU), depolarization ratios for plane and unpolarized
 incident light, reduced masses (AMU), force constants (mDyne/A),
 and normal coordinates:
                      1                      2                      3
                      A                      A                      A
 Frequencies --    -69.9703               -68.3789               153.7175
 Red. masses --      3.6632                 3.6826                12.3878
 Frc consts  --      0.0106                 0.0101                 0.1725
 IR Inten    --     21.5616                21.5916                20.0018
  Atom  AN      X      Y      Z        X      Y      Z        X      Y      Z
     1   6     0.00   0.10   0.37    -0.00   0.37  -0.10    -0.36   0.00   0.00
     2  17    -0.00  -0.02  -0.08     0.00  -0.08   0.02     0.44  -0.00  -0.00
     3   1    -0.26   0.12   0.47     0.07   0.45  -0.12    -0.36   0.00   0.00
     4   1     0.19   0.13   0.46     0.19   0.46  -0.11    -0.36  -0.00  -0.00
     5   1     0.07   0.12   0.45    -0.26   0.47  -0.13    -0.36   0.00  -0.00
     6   6     0.00   0.01   0.04     0.00   0.04  -0.01    -0.38   0.00   0.00
     7   7     0.00  -0.06  -0.24    -0.00  -0.24   0.06    -0.38  -0.00  -0.00
                      4                      5                      6
                      A                      A                      A
 Frequencies --    372.8864               374.4773               932.0514
 Red. masses --      3.4474                 3.4487                 4.8202
 Frc consts  --      0.2824                 0.2849                 2.4671
 IR Inten    --      1.2093                 1.1746                12.5750
  Atom  AN      X      Y      Z        X      Y      Z        X      Y      Z
     1   6    -0.00  -0.02  -0.06     0.00  -0.06   0.02     0.45   0.00  -0.00
     2  17     0.00  -0.00  -0.00    -0.00   0.00  -0.00    -0.00   0.00   0.00
     3   1     0.58  -0.08  -0.29    -0.16  -0.28   0.08     0.47  -0.00  -0.01
     4   1    -0.42  -0.08  -0.28    -0.42  -0.28   0.07     0.47   0.01   0.00
     5   1    -0.15  -0.07  -0.28     0.57  -0.29   0.08     0.47  -0.01   0.00
     6   6     0.00   0.10   0.38     0.00   0.38  -0.10    -0.20  -0.00   0.00
     7   7     0.00  -0.06  -0.22    -0.00  -0.22   0.06    -0.30   0.00  -0.00
                      7                      8                      9
                      A                      A                      A
 Frequencies --   1017.6520              1018.3394              1349.6221
 Red. masses --      1.5082                 1.5055                 1.2147
 Frc consts  --      0.9202                 0.9198                 1.3036
 IR Inten    --      1.5423                 1.5706                44.1484
  Atom  AN      X      Y      Z        X      Y      Z        X      Y      Z
     1   6    -0.00   0.03   0.16     0.00   0.16  -0.03    -0.14   0.00  -0.00
     2  17    -0.00  -0.00  -0.00     0.00  -0.00   0.00     0.00   0.00  -0.00
     3   1     0.71  -0.06  -0.12    -0.13  -0.33   0.02     0.52  -0.00  -0.23
     4   1    -0.46   0.06  -0.25    -0.55  -0.19   0.14     0.52   0.20   0.12
     5   1    -0.24  -0.12  -0.29     0.67  -0.15  -0.04     0.52  -0.20   0.12
     6   6    -0.00  -0.02  -0.13     0.00  -0.13   0.02     0.00  -0.00   0.00
     7   7    -0.00   0.00   0.02     0.00   0.02  -0.00     0.00  -0.00   0.00
                     10                     11                     12
                      A                      A                      A
 Frequencies --   1440.8944              1441.9160              2352.3278
 Red. masses --      1.0400                 1.0403                12.4946
 Frc consts  --      1.2722                 1.2743                40.7349
 IR Inten    --     12.2374                12.3278                55.1679
  Atom  AN      X      Y      Z        X      Y      Z        X      Y      Z
     1   6    -0.00  -0.05   0.02     0.00  -0.02  -0.05    -0.09  -0.00   0.00
     2  17     0.00  -0.00   0.00     0.00  -0.00  -0.00     0.00  -0.00   0.00
     3   1    -0.11   0.68   0.05     0.33   0.23  -0.15    -0.07  -0.00   0.02
     4   1    -0.23   0.18  -0.52    -0.27  -0.34   0.35    -0.07  -0.02  -0.01
     5   1     0.35  -0.07   0.20    -0.07   0.38   0.59    -0.07   0.02  -0.01
     6   6     0.00  -0.02   0.01     0.00  -0.01  -0.02     0.79  -0.00   0.00
     7   7     0.00   0.00  -0.00    -0.00   0.00   0.00    -0.59   0.00  -0.00
                     13                     14                     15
                      A                      A                      A
 Frequencies --   3092.6336              3172.4831              3181.0993
 Red. masses --      1.0339                 1.1029                 1.1031
 Frc consts  --      5.8261                 6.5398                 6.5766
 IR Inten    --      2.5001                 0.3348                 0.3516
  Atom  AN      X      Y      Z        X      Y      Z        X      Y      Z
     1   6    -0.05  -0.00   0.01     0.00  -0.09   0.02    -0.00  -0.03  -0.09
     2  17    -0.00   0.00  -0.00     0.00   0.00  -0.00    -0.00   0.00   0.00
     3   1     0.18  -0.00   0.50    -0.09  -0.02  -0.24     0.28  -0.01   0.76
     4   1     0.19  -0.46  -0.27    -0.21   0.48   0.30    -0.20   0.46   0.25
     5   1     0.21   0.51  -0.29     0.27   0.61  -0.36    -0.06  -0.15   0.06
     6   6    -0.00   0.00  -0.00     0.00   0.00  -0.00    -0.00   0.00   0.00
     7   7     0.00  -0.00   0.00    -0.00  -0.00   0.00     0.00  -0.00  -0.00

 -------------------
 - Thermochemistry -
 -------------------
 Temperature   298.150 Kelvin.  Pressure   1.00000 Atm.
 Atom     1 has atomic number  6 and mass  12.00000
 Atom     2 has atomic number 17 and mass  34.96885
 Atom     3 has atomic number  1 and mass   1.00783
 Atom     4 has atomic number  1 and mass   1.00783
 Atom     5 has atomic number  1 and mass   1.00783
 Atom     6 has atomic number  6 and mass  12.00000
 Atom     7 has atomic number  7 and mass  14.00307
 Molecular mass:    75.99540 amu.
 Principal axes and moments of inertia in atomic units:
                           1         2         3
     Eigenvalues --    11.268851487.495081487.50332
           X            1.00000  -0.00002   0.00008
           Y            0.00000   0.98280   0.18466
           Z           -0.00008  -0.18466   0.98280
 This molecule is an asymmetric top.
 Rotational symmetry number  1.
 Rotational temperatures (Kelvin)      7.68614     0.05823     0.05823
 Rotational constants (GHZ):         160.15316     1.21328     1.21327
    2 imaginary frequencies ignored.
 Zero-point vibrational energy     119029.0 (Joules/Mol)
                                   28.44862 (Kcal/Mol)
 Warning -- explicit consideration of   3 degrees of freedom as
           vibrations may cause significant error
 Vibrational temperatures:    221.17   536.50   538.79  1341.01  1464.17
          (Kelvin)           1465.16  1941.81  2073.13  2074.60  3384.48
                             4449.61  4564.50  4576.89
 
 Zero-point correction=                           0.045336 (Hartree/Particle)
 Thermal correction to Energy=                    0.049615
 Thermal correction to Enthalpy=                  0.050559
 Thermal correction to Gibbs Free Energy=         0.017904
 Sum of electronic and zero-point Energies=           -593.013657
 Sum of electronic and thermal Energies=              -593.009378
 Sum of electronic and thermal Enthalpies=            -593.008433
 Sum of electronic and thermal Free Energies=         -593.041089
 
                     E (Thermal)             CV                S
                      KCal/Mol        Cal/Mol-Kelvin    Cal/Mol-Kelvin
 Total                   31.134             12.398             68.730
 Electronic               0.000              0.000              0.000
 Translational            0.889              2.981             38.900
 Rotational               0.889              2.981             24.726
 Vibrational             29.357              6.437              5.105
 Vibration     1          0.619              1.899              2.626
 Vibration     2          0.744              1.528              1.068
 Vibration     3          0.746              1.524              1.061
                       Q            Log10(Q)             Ln(Q)
 Total Bot       0.581977D-08         -8.235094        -18.962005
 Total V=0       0.414850D+13         12.617892         29.053769
 Vib (Bot)       0.395393D-20        -20.402971        -46.979577
 Vib (Bot)    1  0.131767D+01          0.119806          0.275864
 Vib (Bot)    2  0.487278D+00         -0.312224         -0.718921
 Vib (Bot)    3  0.484676D+00         -0.314548         -0.724274
 Vib (V=0)       0.281848D+01          0.450015          1.036197
 Vib (V=0)    1  0.190934D+01          0.280884          0.646759
 Vib (V=0)    2  0.119817D+01          0.078518          0.180794
 Vib (V=0)    3  0.119636D+01          0.077860          0.179280
 Electronic      0.100000D+01          0.000000          0.000000
 Translational   0.260396D+08          7.415635         17.075130
 Rotational      0.565252D+05          4.752242         10.942442
 
                                                       RxCoord=-5.99138 DE=2.41
                                                             IR Spectrum
 
     33  3                             2                                  11   1            1                                        
     11  0                             3                                  44   3            0  9                     33       1      
     87  9                             5                                  44   5            1  3                     77       5      
     12  3                             2                                  21   0            8  2                     43       4      
 
     XX  X                             X                                  XX   X            X  X                     XX       X      
                                       X                                  XX   X               X                              X      
                                       X                                  XX   X               X                              X      
                                       X                                  XX   X               X                              X      
                                       X                                       X               X                              X      
                                       X                                       X                                              X      
                                       X                                       X                                              X      
                                       X                                       X                                                     
                                       X                                       X                                                     
                                       X                                       X                                                     
                                       X                                       X                                                     
                                       X                                       X                                                     
                                       X                                       X                                                     
                                       X                                       X                                                     
                                       X                                       X                                                     
                                       X                                       X                                                     
                                       X                                                                                             
                                       X                                                                                             
                                       X                                                                                             
                                       X                                                                                             
 
 -------------------------------------------------------------------
 Center     Atomic                   Forces (Hartrees/Bohr)
 Number     Number              X              Y              Z
 -------------------------------------------------------------------
      1        6           0.004576988   -0.000435768    0.000645184
      2       17          -0.005213751   -0.000001059    0.000000103
      3        1          -0.003187954    0.000010024    0.000596049
      4        1          -0.003047797   -0.000896523   -0.000511956
      5        1          -0.002789432    0.001361181   -0.000760075
      6        6           0.003252524   -0.000042694    0.000059465
      7        7           0.006409423    0.000004839   -0.000028771
 -------------------------------------------------------------------
 Cartesian Forces:  Max     0.006409423 RMS     0.002502273
 Z-matrix is all fixed cartesians, so copy forces.
 Force constants in Cartesian coordinates: 
                1             2             3             4             5 
      1  0.488507D+00
      2 -0.508303D-03  0.557432D+00
      3  0.100357D-02  0.861309D-03  0.559916D+00
      4 -0.937106D-02  0.000000D+00  0.372851D-05  0.170535D-01
      5  0.482296D-05 -0.113638D-03  0.000000D+00  0.000000D+00 -0.676154D-03
      6  0.000000D+00  0.000000D+00 -0.114051D-03 -0.132441D-04  0.000000D+00
      7 -0.697906D-01  0.221911D-03 -0.918664D-01 -0.128952D-02  0.214647D-05
      8  0.229424D-03 -0.400171D-01  0.597604D-03  0.489913D-05 -0.111002D-02
      9 -0.904497D-01  0.570952D-03 -0.296448D+00 -0.139580D-02 -0.428946D-05
     10 -0.695672D-01  0.787749D-01  0.457408D-01 -0.129027D-02  0.799153D-03
     11  0.775360D-01 -0.231005D+00 -0.110854D+00  0.120837D-02  0.201392D-03
     12  0.450028D-01 -0.110809D+00 -0.104589D+00  0.705022D-03  0.758636D-03
     13 -0.696151D-01 -0.785292D-01  0.451082D-01 -0.129173D-02 -0.804307D-03
     14 -0.772595D-01 -0.230855D+00  0.109402D+00 -0.121048D-02  0.207682D-03
     15  0.443732D-01  0.109383D+00 -0.103272D+00  0.700343D-03 -0.754541D-03
     16 -0.258893D+00  0.362845D-04  0.313406D-04 -0.923927D-03 -0.221979D-05
     17 -0.642634D-05 -0.775980D-01 -0.921070D-05 -0.413428D-05  0.179659D-02
     18  0.343232D-04 -0.928471D-05 -0.776695D-01  0.000000D+00  0.000000D+00
     19 -0.112698D-01  0.349289D-05 -0.212074D-04 -0.288702D-02  0.122302D-05
     20  0.403839D-05  0.221566D-01  0.260652D-05  0.122241D-05 -0.305849D-03
     21  0.360358D-04  0.260585D-05  0.221761D-01  0.000000D+00  0.000000D+00
                6             7             8             9            10 
      6 -0.677122D-03
      7 -0.918185D-03  0.834160D-01
      8 -0.436677D-05 -0.234020D-03  0.425222D-01
      9  0.623906D-03  0.100574D+00 -0.628799D-03  0.315329D+00
     10  0.466770D-03  0.427646D-02 -0.940381D-02 -0.463925D-02  0.831690D-01
     11  0.758737D-03 -0.726357D-03  0.468273D-03  0.129039D-02 -0.863071D-01
     12 -0.658063D-03  0.104440D-01 -0.240838D-01 -0.128275D-01 -0.501333D-01
     13  0.464598D-03  0.427471D-02  0.940016D-02 -0.458295D-02  0.425983D-02
     14 -0.754566D-03  0.668085D-03  0.336549D-03 -0.120796D-02 -0.866811D-02
     15 -0.665634D-03  0.104452D-01  0.241312D-01 -0.127176D-01 -0.584692D-02
     16  0.151803D-05 -0.213688D-01  0.890570D-05 -0.288330D-02 -0.213304D-01
     17  0.000000D+00  0.778938D-04 -0.336824D-02 -0.264927D-04  0.283078D-01
     18  0.179710D-02 -0.327263D-01 -0.166976D-04  0.770703D-02  0.164465D-01
     19 -0.130656D-05  0.481710D-03 -0.556557D-05  0.337711D-02  0.482529D-03
     20  0.000000D+00 -0.965905D-05  0.116836D-02  0.619511D-05 -0.350288D-02
     21 -0.306133D-03  0.404775D-02  0.491411D-05 -0.166670D-02 -0.203455D-02
               11            12            13            14            15 
     11  0.245768D+00
     12  0.117971D+00  0.111208D+00
     13  0.867012D-02 -0.579843D-02  0.831840D-01
     14 -0.193578D-01  0.126176D-01  0.860861D-01  0.245705D+00
     15 -0.127179D-01  0.700484D-02 -0.494576D-01 -0.116515D+00  0.109831D+00
     16  0.253788D-02  0.147740D-02 -0.213090D-01 -0.254488D-02  0.146775D-02
     17  0.486831D-02  0.476959D-02 -0.283260D-01  0.492026D-02 -0.474378D-02
     18  0.477737D-02 -0.591530D-03  0.162789D-01 -0.476129D-02 -0.646309D-03
     19 -0.291893D-02 -0.169746D-02  0.497281D-03  0.292881D-02 -0.168192D-02
     20 -0.943224D-03 -0.122414D-02  0.350312D-02 -0.956221D-03  0.121621D-02
     21 -0.122578D-02  0.453643D-03 -0.201266D-02  0.121913D-02  0.465711D-03
               16            17            18            19            20 
     16  0.156333D+01
     17 -0.101434D-03  0.107604D+00
     18  0.270222D-03  0.111594D-04  0.107626D+00
     19 -0.123950D+01  0.522846D-04 -0.304211D-03  0.125220D+01
     20  0.654682D-04 -0.382232D-01  0.000000D+00 -0.613133D-04  0.171035D-01
     21 -0.364931D-03  0.000000D+00 -0.382224D-01  0.328986D-03  0.000000D+00
               21 
     21  0.170999D-01
 Leave Link  716 at Sun Oct 13 09:48:27 2024, MaxMem=  2684354560 cpu:               0.9 elap:               0.1
 (Enter /usr/local/g16_AVX//g16/l103.exe)

 GradGradGradGradGradGradGradGradGradGradGradGradGradGradGradGradGradGrad
 Berny optimization.
 Search for a local minimum.
 Step number   1 out of a maximum of    2
 All quantities printed in internal units (Hartrees-Bohrs-Radians)
 Second derivative matrix not updated -- analytic derivatives used.
 ITU=  0
     Eigenvalues ---   -0.00086  -0.00083   0.01675   0.02386   0.02401
     Eigenvalues ---    0.09527   0.09547   0.09701   0.16165   0.16177
     Eigenvalues ---    0.28236   0.65137   0.82321   0.82781   2.67235
 Eigenvalue     1 is  -8.64D-04 should be greater than     0.000000 Eigenvector:
                          Z3        Z4        Z5        Z7        Z1
   1                    0.43127   0.41685   0.41155  -0.34444   0.32991
                          X3        Z2        X4        Y4        Y3
   1                   -0.26732  -0.26456   0.19543   0.12186   0.10795
 Eigenvalue     2 is  -8.32D-04 should be greater than     0.000000 Eigenvector:
                          Y5        Y4        Y3        Y7        Y1
   1                    0.42779   0.42281   0.40935  -0.34559   0.33050
                          X5        Y2        X4        Z5        Z3
   1                   -0.26507  -0.26476   0.19483  -0.11908  -0.11398
 Angle between quadratic step and forces=  47.06 degrees.
 Linear search not attempted -- first point.
 B after Tr=    -0.030598    0.000462   -0.001147
         Rot=    1.000000   -0.000000    0.000089    0.000048 Ang=  -0.01 deg.
 Variable       Old X    -DE/DX   Delta X   Delta X   Delta X     New X
                                 (Linear)    (Quad)   (Total)
    X1        1.36956   0.00458   0.00000   0.09050   0.05990   1.42946
    Y1        0.00016  -0.00044   0.00000  -0.00106  -0.00074  -0.00058
    Z1        0.00016   0.00065   0.00000   0.00282   0.00193   0.00209
    X2       -4.46527  -0.00521   0.00000  -0.21825  -0.24884  -4.71412
    Y2       -0.00003  -0.00000   0.00000   0.00078   0.00169   0.00166
    Z2        0.00033   0.00000   0.00000  -0.00198  -0.00396  -0.00364
    X3        0.64865  -0.00319   0.00000   0.03958   0.00932   0.65796
    Y3        0.00462   0.00001   0.00000  -0.00123  -0.00084   0.00378
    Z3       -1.92865   0.00060   0.00000   0.01763   0.01660  -1.91204
    X4        0.65046  -0.00305   0.00000   0.04103   0.01042   0.66088
    Y4        1.66987  -0.00090   0.00000  -0.01477  -0.01437   1.65550
    Z4        0.96995  -0.00051   0.00000  -0.00465  -0.00567   0.96427
    X5        0.64859  -0.00279   0.00000   0.04434   0.01341   0.66200
    Y5       -1.67511   0.00136   0.00000   0.01309   0.01349  -1.66163
    Z5        0.96248  -0.00076   0.00000  -0.00498  -0.00600   0.95648
    X6        4.11506   0.00325   0.00000   0.10641   0.07581   4.19087
    Y6        0.00005  -0.00004   0.00000   0.00002   0.00008   0.00013
    Z6       -0.00101   0.00006   0.00000   0.00055   0.00016  -0.00085
    X7        6.31055   0.00641   0.00000   0.11059   0.07999   6.39054
    Y7       -0.00007   0.00000   0.00000   0.00085   0.00069   0.00062
    Z7       -0.00036  -0.00003   0.00000  -0.00306  -0.00306  -0.00342
         Item               Value     Threshold  Converged?
 Maximum Force            0.006409     0.000450     NO 
 RMS     Force            0.002502     0.000300     NO 
 Maximum Displacement     0.248843     0.001800     NO 
 RMS     Displacement     0.061256     0.001200     NO 
 Predicted change in Energy=-1.141144D-03
 GradGradGradGradGradGradGradGradGradGradGradGradGradGradGradGradGradGrad

 Leave Link  103 at Sun Oct 13 09:48:27 2024, MaxMem=  2684354560 cpu:               0.7 elap:               0.1
 (Enter /usr/local/g16_AVX//g16/l9999.exe)

 ----------------------------------------------------------------------

 Electric dipole moment (input orientation):
 (Debye = 10**-18 statcoulomb cm , SI units = C m)
                  (au)            (Debye)         (10**-30 SI)
   Tot        0.218169D+01      0.554531D+01      0.184972D+02
   x          0.218169D+01      0.554531D+01      0.184972D+02
   y          0.371361D-04      0.943904D-04      0.314853D-03
   z         -0.773085D-04     -0.196499D-03     -0.655449D-03

 Dipole polarizability, Alpha (input orientation).
 (esu units = cm**3 , SI units = C**2 m**2 J**-1)
 Alpha(0;0):
               (au)            (10**-24 esu)      (10**-40 SI)
   iso        0.540250D+02      0.800567D+01      0.890751D+01
   aniso      0.378702D+02      0.561179D+01      0.624396D+01
   xx         0.792718D+02      0.117469D+02      0.130701D+02
   yx         0.378458D-02      0.560817D-03      0.623993D-03
   yy         0.414062D+02      0.613577D+01      0.682696D+01
   zx        -0.732391D-02     -0.108529D-02     -0.120755D-02
   zy        -0.343667D-02     -0.509262D-03     -0.566630D-03
   zz         0.413969D+02      0.613439D+01      0.682543D+01

 ----------------------------------------------------------------------

 Dipole orientation:
     6         -0.00020916          0.00013920          1.36956011
    17         -0.00016681          0.00004955         -4.46527355
     1          1.92862575          0.00463839          0.64871502
     1         -0.96999876          1.66984214          0.65044912
     1         -0.96247734         -1.67513924          0.64852729
     6          0.00086708         -0.00001901          4.11505819
     7          0.00013166         -0.00017922          6.31055143

 Electric dipole moment (dipole orientation):
 (Debye = 10**-18 statcoulomb cm , SI units = C m)
                  (au)            (Debye)         (10**-30 SI)
   Tot        0.218169D+01      0.554531D+01      0.184972D+02
   x          0.000000D+00      0.000000D+00      0.000000D+00
   y          0.000000D+00      0.000000D+00      0.000000D+00
   z          0.218169D+01      0.554531D+01      0.184972D+02

 Dipole polarizability, Alpha (dipole orientation).
 (esu units = cm**3 , SI units = C**2 m**2 J**-1)
 Alpha(0;0):
               (au)            (10**-24 esu)      (10**-40 SI)
   iso        0.540250D+02      0.800567D+01      0.890751D+01
   aniso      0.378702D+02      0.561179D+01      0.624396D+01
   xx         0.413969D+02      0.613439D+01      0.682543D+01
   yx         0.343627D-02      0.509203D-03      0.566565D-03
   yy         0.414062D+02      0.613577D+01      0.682696D+01
   zx         0.598182D-02      0.886414D-03      0.986268D-03
   zy         0.314027D-02      0.465340D-03      0.517761D-03
   zz         0.792718D+02      0.117469D+02      0.130702D+02

 ----------------------------------------------------------------------
 1\1\GINC-NODO7\Freq\RB3LYP\6-31++G(d,p)\C2H3Cl1N1(1-)\ALANQF\13-Oct-20
 24\0\\#p b3lyp 6-31++g(d,p) scf=verytight NoSymm freq=noraman int=ultr
 afine\\RxCoord=-5.99138 DE=2.41\\-1,1\C,0.72474,0.000086,0.000085\Cl,-
 2.362921,-0.000014,0.000172\H,0.343249,0.002443,-1.020597\H,0.344206,0
 .883657,0.513274\H,0.343219,-0.886431,0.509324\C,2.177595,0.000027,-0.
 000536\N,3.3394,-0.000038,-0.000188\\Version=ES64L-G16RevB.01\HF=-593.
 0589928\RMSD=1.549e-09\RMSF=2.502e-03\ZeroPoint=0.0453358\Thermal=0.04
 96153\Dipole=2.2616823,0.0000295,-0.0000336\DipoleDeriv=-0.1270624,0.0
 00166,-0.0001998,0.0000732,0.0594406,-0.0001767,-0.000071,-0.0001768,0
 .0588922,-1.0893137,0.0000043,0.0000201,0.0001599,-0.9249112,-0.000009
 9,-0.0000792,-0.0000099,-0.9249765,0.1326253,-0.000034,0.0143592,0.000
 1023,0.108533,0.0002769,-0.0170755,0.0002497,0.0197671,0.132098,-0.012
 3799,-0.0071235,0.0148408,0.04189,-0.0386458,0.0086551,-0.0385661,0.08
 62136,0.1328,0.0122253,-0.0069566,-0.014979,0.0414601,0.0385616,0.0087
 118,0.0385092,0.0865539,0.5460113,0.0001049,-0.0006005,-0.000295,0.061
 7654,-0.0000037,-0.0000371,-0.0000038,0.0617065,-0.7271585,-0.0000866,
 0.0005011,0.0000978,-0.3881778,-0.0000024,-0.000104,-0.0000024,-0.3881
 569\Polar=79.2717739,0.0037846,41.4062011,-0.0073239,-0.0034367,41.396
 8996\Quadrupole=-24.9603597,12.480686,12.4796737,0.0007181,0.0025054,-
 0.0000194\PG=C01 [X(C2H3Cl1N1)]\NImag=2\\0.48850720,-0.00050830,0.5574
 3221,0.00100357,0.00086131,0.55991639,-0.00937106,0.00000094,0.0000037
 3,0.01705353,0.00000482,-0.00011364,0.00000031,-0.00000082,-0.00067615
 ,-0.00000015,0.00000032,-0.00011405,-0.00001324,0.00000052,-0.00067712
 ,-0.06979059,0.00022191,-0.09186637,-0.00128952,0.00000215,-0.00091819
 ,0.08341602,0.00022942,-0.04001711,0.00059760,0.00000490,-0.00111002,-
 0.00000437,-0.00023402,0.04252218,-0.09044974,0.00057095,-0.29644772,-
 0.00139580,-0.00000429,0.00062391,0.10057392,-0.00062880,0.31532862,-0
 .06956722,0.07877489,0.04574075,-0.00129027,0.00079915,0.00046677,0.00
 427646,-0.00940381,-0.00463925,0.08316905,0.07753596,-0.23100505,-0.11
 085428,0.00120837,0.00020139,0.00075874,-0.00072636,0.00046827,0.00129
 039,-0.08630705,0.24576806,0.04500281,-0.11080934,-0.10458949,0.000705
 02,0.00075864,-0.00065806,0.01044398,-0.02408382,-0.01282751,-0.050133
 32,0.11797148,0.11120811,-0.06961512,-0.07852921,0.04510819,-0.0012917
 3,-0.00080431,0.00046460,0.00427471,0.00940016,-0.00458295,0.00425983,
 0.00867012,-0.00579843,0.08318403,-0.07725952,-0.23085500,0.10940166,-
 0.00121048,0.00020768,-0.00075457,0.00066808,0.00033655,-0.00120796,-0
 .00866811,-0.01935777,0.01261759,0.08608609,0.24570451,0.04437316,0.10
 938344,-0.10327164,0.00070034,-0.00075454,-0.00066563,0.01044521,0.024
 13116,-0.01271762,-0.00584692,-0.01271793,0.00700484,-0.04945762,-0.11
 651456,0.10983065,-0.25889339,0.00003628,0.00003134,-0.00092393,-0.000
 00222,0.00000152,-0.02136879,0.00000891,-0.00288330,-0.02133038,0.0025
 3788,0.00147740,-0.02130900,-0.00254488,0.00146775,1.56332591,-0.00000
 643,-0.07759802,-0.00000921,-0.00000413,0.00179659,-0.00000090,0.00007
 789,-0.00336824,-0.00002649,0.02830780,0.00486831,0.00476959,-0.028325
 98,0.00492026,-0.00474378,-0.00010143,0.10760430,0.00003432,-0.0000092
 8,-0.07766955,0.00000058,-0.00000090,0.00179710,-0.03272630,-0.0000167
 0,0.00770703,0.01644652,0.00477737,-0.00059153,0.01627887,-0.00476129,
 -0.00064631,0.00027022,0.00001116,0.10762570,-0.01126982,0.00000349,-0
 .00002121,-0.00288702,0.00000122,-0.00000131,0.00048171,-0.00000557,0.
 00337711,0.00048253,-0.00291893,-0.00169746,0.00049728,0.00292881,-0.0
 0168192,-1.23950042,0.00005228,-0.00030421,1.25219574,0.00000404,0.022
 15661,0.00000261,0.00000122,-0.00030585,0.00000026,-0.00000966,0.00116
 836,0.00000620,-0.00350288,-0.00094322,-0.00122414,0.00350312,-0.00095
 622,0.00121621,0.00006547,-0.03822320,-0.00000036,-0.00006131,0.017103
 53,0.00003604,0.00000261,0.02217606,-0.00000064,0.00000026,-0.00030613
 ,0.00404775,0.00000491,-0.00166670,-0.00203455,-0.00122578,0.00045364,
 -0.00201266,0.00121913,0.00046571,-0.00036493,-0.00000036,-0.03822244,
 0.00032899,-0.00000077,0.01709986\\-0.00457699,0.00043577,-0.00064518,
 0.00521375,0.00000106,-0.00000010,0.00318795,-0.00001002,-0.00059605,0
 .00304780,0.00089652,0.00051196,0.00278943,-0.00136118,0.00076008,-0.0
 0325252,0.00004269,-0.00005947,-0.00640942,-0.00000484,0.00002877\\\@


 GOOD SENSE ABOUT TRIVIALITIES IS BETTER THAN NONSENSE
 ABOUT THINGS THAT MATTER

                                       -- MAX BEERBOHM
 Job cpu time:       0 days  0 hours  3 minutes 56.0 seconds.
 Elapsed time:       0 days  0 hours  0 minutes 10.1 seconds.
 File lengths (MBytes):  RWF=     88 Int=      0 D2E=      0 Chk=      2 Scr=      2
 Normal termination of Gaussian 16 at Sun Oct 13 09:48:27 2024.
