 Entering Gaussian System, Link 0=g16
 Initial command:
 /usr/local/g16_AVX//g16/l1.exe "/scratch/alanqf/0042-54484.ixchel.mda.cinvestav.mx/Gau-31704.inp" -scrdir="/scratch/alanqf/0042-54484.ixchel.mda.cinvestav.mx/"
 Entering Link 1 = /usr/local/g16_AVX//g16/l1.exe PID=     31705.
  
 Copyright (c) 1988-2017, Gaussian, Inc.  All Rights Reserved.
  
 This is part of the Gaussian(R) 16 program.  It is based on
 the Gaussian(R) 09 system (copyright 2009, Gaussian, Inc.),
 the Gaussian(R) 03 system (copyright 2003, Gaussian, Inc.),
 the Gaussian(R) 98 system (copyright 1998, Gaussian, Inc.),
 the Gaussian(R) 94 system (copyright 1995, Gaussian, Inc.),
 the Gaussian 92(TM) system (copyright 1992, Gaussian, Inc.),
 the Gaussian 90(TM) system (copyright 1990, Gaussian, Inc.),
 the Gaussian 88(TM) system (copyright 1988, Gaussian, Inc.),
 the Gaussian 86(TM) system (copyright 1986, Carnegie Mellon
 University), and the Gaussian 82(TM) system (copyright 1983,
 Carnegie Mellon University). Gaussian is a federally registered
 trademark of Gaussian, Inc.
  
 This software contains proprietary and confidential information,
 including trade secrets, belonging to Gaussian, Inc.
  
 This software is provided under written license and may be
 used, copied, transmitted, or stored only in accord with that
 written license.
  
 The following legend is applicable only to US Government
 contracts under FAR:
  
                    RESTRICTED RIGHTS LEGEND
  
 Use, reproduction and disclosure by the US Government is
 subject to restrictions as set forth in subparagraphs (a)
 and (c) of the Commercial Computer Software - Restricted
 Rights clause in FAR 52.227-19.
  
 Gaussian, Inc.
 340 Quinnipiac St., Bldg. 40, Wallingford CT 06492
  
  
 ---------------------------------------------------------------
 Warning -- This program may not be used in any manner that
 competes with the business of Gaussian, Inc. or will provide
 assistance to any competitor of Gaussian, Inc.  The licensee
 of this program is prohibited from giving any competitor of
 Gaussian, Inc. access to this program.  By using this program,
 the user acknowledges that Gaussian, Inc. is engaged in the
 business of creating and licensing software in the field of
 computational chemistry and represents and warrants to the
 licensee that it is not a competitor of Gaussian, Inc. and that
 it will not use this program in any manner prohibited above.
 ---------------------------------------------------------------
  

 Cite this work as:
 Gaussian 16, Revision B.01,
 M. J. Frisch, G. W. Trucks, H. B. Schlegel, G. E. Scuseria, 
 M. A. Robb, J. R. Cheeseman, G. Scalmani, V. Barone, 
 G. A. Petersson, H. Nakatsuji, X. Li, M. Caricato, A. V. Marenich, 
 J. Bloino, B. G. Janesko, R. Gomperts, B. Mennucci, H. P. Hratchian, 
 J. V. Ortiz, A. F. Izmaylov, J. L. Sonnenberg, D. Williams-Young, 
 F. Ding, F. Lipparini, F. Egidi, J. Goings, B. Peng, A. Petrone, 
 T. Henderson, D. Ranasinghe, V. G. Zakrzewski, J. Gao, N. Rega, 
 G. Zheng, W. Liang, M. Hada, M. Ehara, K. Toyota, R. Fukuda, 
 J. Hasegawa, M. Ishida, T. Nakajima, Y. Honda, O. Kitao, H. Nakai, 
 T. Vreven, K. Throssell, J. A. Montgomery, Jr., J. E. Peralta, 
 F. Ogliaro, M. J. Bearpark, J. J. Heyd, E. N. Brothers, K. N. Kudin, 
 V. N. Staroverov, T. A. Keith, R. Kobayashi, J. Normand, 
 K. Raghavachari, A. P. Rendell, J. C. Burant, S. S. Iyengar, 
 J. Tomasi, M. Cossi, J. M. Millam, M. Klene, C. Adamo, R. Cammi, 
 J. W. Ochterski, R. L. Martin, K. Morokuma, O. Farkas, 
 J. B. Foresman, and D. J. Fox, Gaussian, Inc., Wallingford CT, 2016.
 
 ******************************************
 Gaussian 16:  ES64L-G16RevB.01 20-Dec-2017
                13-Oct-2024 
 ******************************************
 %NProcShared=26
 Will use up to   26 processors via shared memory.
 %MEM=20GB
 %chk=CHKfiles/0042.chk
 ---------------------------------------------------------------------
 #p b3lyp 6-31++g(d,p) scf=verytight NoSymm freq=noraman int=ultrafine
 ---------------------------------------------------------------------
 1/10=4,30=1,38=1/1,3;
 2/12=2,15=1,17=6,18=5,40=1/2;
 3/5=1,6=6,7=1111,11=2,25=1,30=1,71=2,74=-5,75=-5,140=1/1,2,3;
 4//1;
 5/5=2,17=3,38=5,98=1/2;
 8/6=4,10=90,11=11/1;
 11/6=1,8=1,9=11,15=111,16=1,31=1/1,2,10;
 10/6=1,31=1/2;
 6/7=2,8=2,9=2,10=2,28=1/1;
 7/8=1,10=1,25=1,30=1/1,2,3,16;
 1/10=4,30=1/3;
 99//99;
 Leave Link    1 at Sun Oct 13 09:48:17 2024, MaxMem=  2684354560 cpu:               1.4 elap:               0.1
 (Enter /usr/local/g16_AVX//g16/l101.exe)
 ------------------------
 RxCoord=-5.89287 DE=2.54
 ------------------------
 Symbolic Z-matrix:
 Charge = -1 Multiplicity = 1
 C                     0.71939  -0.00003   0.00028 
 Cl                   -2.3565    0.00001   0.0001 
 H                     0.33379   0.00287  -1.02184 
 H                     0.33845   0.88404   0.51268 
 H                     0.34258  -0.88503   0.50814 
 C                     2.17209  -0.00018  -0.00023 
 N                     3.33381   0.00002  -0.00023 
 
 ITRead=  0  0  0  0  0  0  0
 MicOpt= -1 -1 -1 -1 -1 -1 -1
 NAtoms=      7 NQM=        7 NQMF=       0 NMMI=      0 NMMIF=      0
                NMic=       0 NMicF=      0.
                    Isotopes and Nuclear Properties:
 (Nuclear quadrupole moments (NQMom) in fm**2, nuclear magnetic moments (NMagM)
  in nuclear magnetons)

  Atom         1           2           3           4           5           6           7
 IAtWgt=          12          35           1           1           1          12          14
 AtmWgt=  12.0000000  34.9688527   1.0078250   1.0078250   1.0078250  12.0000000  14.0030740
 NucSpn=           0           3           1           1           1           0           2
 AtZEff=  -0.0000000  -0.0000000  -0.0000000  -0.0000000  -0.0000000  -0.0000000  -0.0000000
 NQMom=    0.0000000  -8.1650000   0.0000000   0.0000000   0.0000000   0.0000000   2.0440000
 NMagM=    0.0000000   0.8218740   2.7928460   2.7928460   2.7928460   0.0000000   0.4037610
 AtZNuc=   6.0000000  17.0000000   1.0000000   1.0000000   1.0000000   6.0000000   7.0000000
 Leave Link  101 at Sun Oct 13 09:48:17 2024, MaxMem=  2684354560 cpu:               1.8 elap:               0.1
 (Enter /usr/local/g16_AVX//g16/l103.exe)

 GradGradGradGradGradGradGradGradGradGradGradGradGradGradGradGradGradGrad
 Berny optimization.
 Initialization pass.
 Trust Radius=3.00D-01 FncErr=1.00D-07 GrdErr=1.00D-07 EigMax=2.50D+02 EigMin=1.00D-04
 Number of steps in this run=      2 maximum allowed number of steps=      2.
 GradGradGradGradGradGradGradGradGradGradGradGradGradGradGradGradGradGrad

 Leave Link  103 at Sun Oct 13 09:48:17 2024, MaxMem=  2684354560 cpu:               0.3 elap:               0.0
 (Enter /usr/local/g16_AVX//g16/l202.exe)
                          Input orientation:                          
 ---------------------------------------------------------------------
 Center     Atomic      Atomic             Coordinates (Angstroms)
 Number     Number       Type             X           Y           Z
 ---------------------------------------------------------------------
      1          6           0        0.719388   -0.000025    0.000275
      2         17           0       -2.356501    0.000007    0.000102
      3          1           0        0.333792    0.002873   -1.021835
      4          1           0        0.338451    0.884040    0.512677
      5          1           0        0.342578   -0.885029    0.508135
      6          6           0        2.172091   -0.000176   -0.000225
      7          7           0        3.333812    0.000018   -0.000225
 ---------------------------------------------------------------------
                    Distance matrix (angstroms):
                    1          2          3          4          5
     1  C    0.000000
     2  Cl   3.075889   0.000000
     3  H    1.092429   2.877853   0.000000
     4  H    1.090523   2.882189   1.769521   0.000000
     5  H    1.087722   2.885553   1.768970   1.769080   0.000000
     6  C    1.452703   4.528592   2.103102   2.099319   2.094878
     7  N    2.614424   5.690313   3.169198   3.164925   3.160573
                    6          7
     6  C    0.000000
     7  N    1.161721   0.000000
 Symmetry turned off by external request.
 Stoichiometry    C2H3ClN(1-)
 Framework group  C1[X(C2H3ClN)]
 Deg. of freedom    15
 Full point group                 C1      NOp   1
 Rotational constants (GHZ):         160.2093413           1.2190484           1.2190448
 Leave Link  202 at Sun Oct 13 09:48:18 2024, MaxMem=  2684354560 cpu:               0.2 elap:               0.0
 (Enter /usr/local/g16_AVX//g16/l301.exe)
 Standard basis: 6-31++G(d,p) (6D, 7F)
 Ernie: Thresh=  0.10000D-02 Tol=  0.10000D-05 Strict=F.
    98 basis functions,   176 primitive gaussians,    98 cartesian basis functions
    20 alpha electrons       20 beta electrons
       nuclear repulsion energy       108.3279831141 Hartrees.
 IExCor=  402 DFT=T Ex+Corr=B3LYP ExCW=0 ScaHFX=  0.200000
 ScaDFX=  0.800000  0.720000  1.000000  0.810000 ScalE2=  1.000000  1.000000
 IRadAn=      5 IRanWt=     -1 IRanGd=            0 ICorTp=0 IEmpDi=  4
 NAtoms=    7 NActive=    7 NUniq=    7 SFac= 1.00D+00 NAtFMM=   60 NAOKFM=F Big=F
 Integral buffers will be    131072 words long.
 Raffenetti 2 integral format.
 Two-electron integral symmetry is turned off.
 Leave Link  301 at Sun Oct 13 09:48:18 2024, MaxMem=  2684354560 cpu:               0.8 elap:               0.1
 (Enter /usr/local/g16_AVX//g16/l302.exe)
 NPDir=0 NMtPBC=     1 NCelOv=     1 NCel=       1 NClECP=     1 NCelD=      1
         NCelK=      1 NCelE2=     1 NClLst=     1 CellRange=     0.0.
 One-electron integrals computed using PRISM.
 NBasis=    98 RedAO= T EigKep=  1.30D-05  NBF=    98
 NBsUse=    98 1.00D-06 EigRej= -1.00D+00 NBFU=    98
 Precomputing XC quadrature grid using
 IXCGrd= 4 IRadAn=           5 IRanWt=          -1 IRanGd=           0 AccXCQ= 0.00D+00.
 Generated NRdTot=       0 NPtTot=           0 NUsed=           0 NTot=          32
 NSgBfM=    98    98    98    98    98 MxSgAt=     7 MxSgA2=     7.
 Leave Link  302 at Sun Oct 13 09:48:18 2024, MaxMem=  2684354560 cpu:               3.2 elap:               0.2
 (Enter /usr/local/g16_AVX//g16/l303.exe)
 DipDrv:  MaxL=1.
 Leave Link  303 at Sun Oct 13 09:48:18 2024, MaxMem=  2684354560 cpu:               0.8 elap:               0.1
 (Enter /usr/local/g16_AVX//g16/l401.exe)
 ExpMin= 3.60D-02 ExpMax= 2.52D+04 ExpMxC= 3.78D+03 IAcc=3 IRadAn=         5 AccDes= 0.00D+00
 Harris functional with IExCor=  402 and IRadAn=       5 diagonalized for initial guess.
 HarFok:  IExCor=  402 AccDes= 0.00D+00 IRadAn=         5 IDoV= 1 UseB2=F ITyADJ=14
 ICtDFT=  3500011 ScaDFX=  1.000000  1.000000  1.000000  1.000000
 FoFCou: FMM=F IPFlag=           0 FMFlag=      100000 FMFlg1=           0
         NFxFlg=           0 DoJE=T BraDBF=F KetDBF=T FulRan=T
         wScrn=  0.000000 ICntrl=       500 IOpCl=  0 I1Cent=   200000004 NGrid=           0
         NMat0=    1 NMatS0=      1 NMatT0=    0 NMatD0=    1 NMtDS0=    0 NMtDT0=    0
 Symmetry not used in FoFCou.
 Harris En= -593.113148654381    
 JPrj=0 DoOrth=F DoCkMO=F.
 Leave Link  401 at Sun Oct 13 09:48:18 2024, MaxMem=  2684354560 cpu:               5.8 elap:               0.3
 (Enter /usr/local/g16_AVX//g16/l502.exe)
 Keep R1 ints in memory in canonical form, NReq=35752935.
 FoFCou: FMM=F IPFlag=           0 FMFlag=           0 FMFlg1=           0
         NFxFlg=           0 DoJE=F BraDBF=F KetDBF=F FulRan=T
         wScrn=  0.000000 ICntrl=       600 IOpCl=  0 I1Cent=           0 NGrid=           0
         NMat0=    1 NMatS0=   4851 NMatT0=    0 NMatD0=    1 NMtDS0=    0 NMtDT0=    0
 Symmetry not used in FoFCou.
 Two-electron integral symmetry not used.
 Closed shell SCF:
 Using DIIS extrapolation, IDIIS=  1040.
 NGot=  2684354560 LenX=  2672563405 LenY=  2672553360
 Requested convergence on RMS density matrix=1.00D-08 within 128 cycles.
 Requested convergence on MAX density matrix=1.00D-06.
 Requested convergence on             energy=1.00D-06.
 No special actions if energy rises.

 Cycle   1  Pass 1  IDiag  1:
 E= -592.948443784217    
 DIIS: error= 2.84D-02 at cycle   1 NSaved=   1.
 NSaved= 1 IEnMin= 1 EnMin= -592.948443784217     IErMin= 1 ErrMin= 2.84D-02
 ErrMax= 2.84D-02  0.00D+00 EMaxC= 1.00D-01 BMatC= 1.05D-01 BMatP= 1.05D-01
 IDIUse=3 WtCom= 7.16D-01 WtEn= 2.84D-01
 Coeff-Com:  0.100D+01
 Coeff-En:   0.100D+01
 Coeff:      0.100D+01
 Gap=     0.175 Goal=   None    Shift=    0.000
 GapD=    0.175 DampG=1.000 DampE=0.500 DampFc=0.5000 IDamp=-1.
 Damping current iteration by 5.00D-01
 RMSDP=1.24D-02 MaxDP=2.72D-01              OVMax= 1.72D-01

 Cycle   2  Pass 1  IDiag  1:
 E= -592.989969369187     Delta-E=       -0.041525584971 Rises=F Damp=T
 DIIS: error= 1.51D-02 at cycle   2 NSaved=   2.
 NSaved= 2 IEnMin= 2 EnMin= -592.989969369187     IErMin= 2 ErrMin= 1.51D-02
 ErrMax= 1.51D-02  0.00D+00 EMaxC= 1.00D-01 BMatC= 1.36D-02 BMatP= 1.05D-01
 IDIUse=3 WtCom= 8.49D-01 WtEn= 1.51D-01
 Coeff-Com:  0.146D+00 0.854D+00
 Coeff-En:   0.221D+00 0.779D+00
 Coeff:      0.157D+00 0.843D+00
 Gap=     0.151 Goal=   None    Shift=    0.000
 RMSDP=5.21D-03 MaxDP=1.67D-01 DE=-4.15D-02 OVMax= 1.37D-01

 Cycle   3  Pass 1  IDiag  1:
 E= -593.041149853447     Delta-E=       -0.051180484260 Rises=F Damp=F
 DIIS: error= 1.35D-02 at cycle   3 NSaved=   3.
 NSaved= 3 IEnMin= 3 EnMin= -593.041149853447     IErMin= 3 ErrMin= 1.35D-02
 ErrMax= 1.35D-02  0.00D+00 EMaxC= 1.00D-01 BMatC= 1.92D-02 BMatP= 1.36D-02
 IDIUse=2 WtCom= 0.00D+00 WtEn= 1.00D+00
 Coeff-En:   0.000D+00 0.000D+00 0.100D+01
 Coeff:      0.000D+00 0.000D+00 0.100D+01
 Gap=     0.160 Goal=   None    Shift=    0.000
 RMSDP=7.67D-03 MaxDP=2.79D-01 DE=-5.12D-02 OVMax= 1.63D-01

 Cycle   4  Pass 1  IDiag  1:
 E= -592.946865395512     Delta-E=        0.094284457936 Rises=F Damp=F
 DIIS: error= 3.05D-02 at cycle   4 NSaved=   4.
 NSaved= 4 IEnMin= 3 EnMin= -593.041149853447     IErMin= 3 ErrMin= 1.35D-02
 ErrMax= 3.05D-02  0.00D+00 EMaxC= 1.00D-01 BMatC= 1.25D-01 BMatP= 1.36D-02
 IDIUse=2 WtCom= 0.00D+00 WtEn= 1.00D+00
 Coeff-En:   0.000D+00 0.000D+00 0.803D+00 0.197D+00
 Coeff:      0.000D+00 0.000D+00 0.803D+00 0.197D+00
 Gap=     0.157 Goal=   None    Shift=    0.000
 RMSDP=3.71D-03 MaxDP=1.34D-01 DE= 9.43D-02 OVMax= 8.29D-02

 Cycle   5  Pass 1  IDiag  1:
 E= -593.049359880690     Delta-E=       -0.102494485179 Rises=F Damp=F
 DIIS: error= 9.07D-03 at cycle   5 NSaved=   5.
 NSaved= 5 IEnMin= 5 EnMin= -593.049359880690     IErMin= 5 ErrMin= 9.07D-03
 ErrMax= 9.07D-03  0.00D+00 EMaxC= 1.00D-01 BMatC= 1.06D-02 BMatP= 1.36D-02
 IDIUse=3 WtCom= 9.09D-01 WtEn= 9.07D-02
 Coeff-Com: -0.875D-03 0.186D-01 0.321D+00-0.102D+00 0.763D+00
 Coeff-En:   0.000D+00 0.000D+00 0.390D+00 0.000D+00 0.610D+00
 Coeff:     -0.796D-03 0.169D-01 0.327D+00-0.928D-01 0.749D+00
 Gap=     0.158 Goal=   None    Shift=    0.000
 RMSDP=1.56D-03 MaxDP=5.52D-02 DE=-1.02D-01 OVMax= 3.28D-02

 Cycle   6  Pass 1  IDiag  1:
 E= -593.058855399163     Delta-E=       -0.009495518472 Rises=F Damp=F
 DIIS: error= 1.50D-04 at cycle   6 NSaved=   6.
 NSaved= 6 IEnMin= 6 EnMin= -593.058855399163     IErMin= 6 ErrMin= 1.50D-04
 ErrMax= 1.50D-04  0.00D+00 EMaxC= 1.00D-01 BMatC= 4.49D-06 BMatP= 1.06D-02
 IDIUse=3 WtCom= 9.99D-01 WtEn= 1.50D-03
 Coeff-Com: -0.156D-02 0.734D-02 0.119D+00-0.495D-01 0.324D+00 0.601D+00
 Coeff-En:   0.000D+00 0.000D+00 0.000D+00 0.000D+00 0.000D+00 0.100D+01
 Coeff:     -0.155D-02 0.733D-02 0.118D+00-0.494D-01 0.324D+00 0.602D+00
 Gap=     0.157 Goal=   None    Shift=    0.000
 RMSDP=4.11D-05 MaxDP=7.28D-04 DE=-9.50D-03 OVMax= 6.44D-04

 Cycle   7  Pass 1  IDiag  1:
 E= -593.058859571690     Delta-E=       -0.000004172527 Rises=F Damp=F
 DIIS: error= 6.60D-05 at cycle   7 NSaved=   7.
 NSaved= 7 IEnMin= 7 EnMin= -593.058859571690     IErMin= 7 ErrMin= 6.60D-05
 ErrMax= 6.60D-05  0.00D+00 EMaxC= 1.00D-01 BMatC= 5.18D-07 BMatP= 4.49D-06
 IDIUse=1 WtCom= 1.00D+00 WtEn= 0.00D+00
 Coeff-Com: -0.206D-03 0.782D-03 0.182D-01-0.956D-02 0.529D-01 0.189D+00
 Coeff-Com:  0.748D+00
 Coeff:     -0.206D-03 0.782D-03 0.182D-01-0.956D-02 0.529D-01 0.189D+00
 Coeff:      0.748D+00
 Gap=     0.157 Goal=   None    Shift=    0.000
 RMSDP=9.40D-06 MaxDP=1.94D-04 DE=-4.17D-06 OVMax= 2.47D-04

 Cycle   8  Pass 1  IDiag  1:
 E= -593.058860068470     Delta-E=       -0.000000496780 Rises=F Damp=F
 DIIS: error= 1.07D-05 at cycle   8 NSaved=   8.
 NSaved= 8 IEnMin= 8 EnMin= -593.058860068470     IErMin= 8 ErrMin= 1.07D-05
 ErrMax= 1.07D-05  0.00D+00 EMaxC= 1.00D-01 BMatC= 1.19D-08 BMatP= 5.18D-07
 IDIUse=1 WtCom= 1.00D+00 WtEn= 0.00D+00
 Coeff-Com:  0.415D-04-0.143D-03 0.399D-02-0.195D-02 0.106D-01 0.508D-01
 Coeff-Com:  0.261D+00 0.676D+00
 Coeff:      0.415D-04-0.143D-03 0.399D-02-0.195D-02 0.106D-01 0.508D-01
 Coeff:      0.261D+00 0.676D+00
 Gap=     0.157 Goal=   None    Shift=    0.000
 RMSDP=4.56D-06 MaxDP=1.39D-04 DE=-4.97D-07 OVMax= 3.46D-05

 Cycle   9  Pass 1  IDiag  1:
 E= -593.058860081560     Delta-E=       -0.000000013091 Rises=F Damp=F
 DIIS: error= 2.44D-06 at cycle   9 NSaved=   9.
 NSaved= 9 IEnMin= 9 EnMin= -593.058860081560     IErMin= 9 ErrMin= 2.44D-06
 ErrMax= 2.44D-06  0.00D+00 EMaxC= 1.00D-01 BMatC= 7.16D-10 BMatP= 1.19D-08
 IDIUse=1 WtCom= 1.00D+00 WtEn= 0.00D+00
 Coeff-Com:  0.312D-04-0.714D-04-0.663D-03 0.110D-03-0.147D-02-0.569D-03
 Coeff-Com:  0.173D-01 0.212D+00 0.773D+00
 Coeff:      0.312D-04-0.714D-04-0.663D-03 0.110D-03-0.147D-02-0.569D-03
 Coeff:      0.173D-01 0.212D+00 0.773D+00
 Gap=     0.157 Goal=   None    Shift=    0.000
 RMSDP=1.40D-06 MaxDP=5.15D-05 DE=-1.31D-08 OVMax= 7.45D-06

 Cycle  10  Pass 1  IDiag  1:
 E= -593.058860082316     Delta-E=       -0.000000000756 Rises=F Damp=F
 DIIS: error= 2.67D-07 at cycle  10 NSaved=  10.
 NSaved=10 IEnMin=10 EnMin= -593.058860082316     IErMin=10 ErrMin= 2.67D-07
 ErrMax= 2.67D-07  0.00D+00 EMaxC= 1.00D-01 BMatC= 1.49D-11 BMatP= 7.16D-10
 IDIUse=1 WtCom= 1.00D+00 WtEn= 0.00D+00
 Coeff-Com:  0.657D-05-0.181D-04-0.125D-03 0.575D-04-0.336D-03-0.345D-03
 Coeff-Com: -0.265D-02 0.270D-01 0.150D+00 0.827D+00
 Coeff:      0.657D-05-0.181D-04-0.125D-03 0.575D-04-0.336D-03-0.345D-03
 Coeff:     -0.265D-02 0.270D-01 0.150D+00 0.827D+00
 Gap=     0.157 Goal=   None    Shift=    0.000
 RMSDP=7.84D-08 MaxDP=1.56D-06 DE=-7.56D-10 OVMax= 1.23D-06

 Cycle  11  Pass 1  IDiag  1:
 E= -593.058860082332     Delta-E=       -0.000000000015 Rises=F Damp=F
 DIIS: error= 6.48D-08 at cycle  11 NSaved=  11.
 NSaved=11 IEnMin=11 EnMin= -593.058860082332     IErMin=11 ErrMin= 6.48D-08
 ErrMax= 6.48D-08  0.00D+00 EMaxC= 1.00D-01 BMatC= 5.28D-13 BMatP= 1.49D-11
 IDIUse=1 WtCom= 1.00D+00 WtEn= 0.00D+00
 Coeff-Com: -0.552D-06 0.807D-06-0.155D-04 0.774D-05-0.332D-04-0.845D-04
 Coeff-Com: -0.121D-02-0.161D-02 0.485D-02 0.105D+00 0.893D+00
 Coeff:     -0.552D-06 0.807D-06-0.155D-04 0.774D-05-0.332D-04-0.845D-04
 Coeff:     -0.121D-02-0.161D-02 0.485D-02 0.105D+00 0.893D+00
 Gap=     0.157 Goal=   None    Shift=    0.000
 RMSDP=9.83D-08 MaxDP=3.75D-06 DE=-1.53D-11 OVMax= 2.06D-07

 Cycle  12  Pass 1  IDiag  1:
 E= -593.058860082333     Delta-E=       -0.000000000001 Rises=F Damp=F
 DIIS: error= 2.12D-08 at cycle  12 NSaved=  12.
 NSaved=12 IEnMin=12 EnMin= -593.058860082333     IErMin=12 ErrMin= 2.12D-08
 ErrMax= 2.12D-08  0.00D+00 EMaxC= 1.00D-01 BMatC= 1.43D-14 BMatP= 5.28D-13
 IDIUse=1 WtCom= 1.00D+00 WtEn= 0.00D+00
 Coeff-Com: -0.499D-06 0.106D-05-0.867D-06-0.130D-07 0.202D-05-0.133D-04
 Coeff-Com: -0.232D-03-0.124D-02-0.332D-02 0.389D-02 0.278D+00 0.723D+00
 Coeff:     -0.499D-06 0.106D-05-0.867D-06-0.130D-07 0.202D-05-0.133D-04
 Coeff:     -0.232D-03-0.124D-02-0.332D-02 0.389D-02 0.278D+00 0.723D+00
 Gap=     0.157 Goal=   None    Shift=    0.000
 RMSDP=2.01D-08 MaxDP=7.92D-07 DE=-7.96D-13 OVMax= 4.41D-08

 Cycle  13  Pass 1  IDiag  1:
 E= -593.058860082334     Delta-E=       -0.000000000001 Rises=F Damp=F
 DIIS: error= 1.08D-09 at cycle  13 NSaved=  13.
 NSaved=13 IEnMin=13 EnMin= -593.058860082334     IErMin=13 ErrMin= 1.08D-09
 ErrMax= 1.08D-09  0.00D+00 EMaxC= 1.00D-01 BMatC= 1.95D-16 BMatP= 1.43D-14
 IDIUse=1 WtCom= 1.00D+00 WtEn= 0.00D+00
 Coeff-Com: -0.103D-07 0.129D-07 0.321D-06-0.731D-07 0.505D-06-0.248D-05
 Coeff-Com:  0.129D-04-0.140D-04-0.302D-03 0.440D-03-0.124D-01 0.860D-02
 Coeff-Com:  0.100D+01
 Coeff:     -0.103D-07 0.129D-07 0.321D-06-0.731D-07 0.505D-06-0.248D-05
 Coeff:      0.129D-04-0.140D-04-0.302D-03 0.440D-03-0.124D-01 0.860D-02
 Coeff:      0.100D+01
 Gap=     0.157 Goal=   None    Shift=    0.000
 RMSDP=1.58D-09 MaxDP=5.08D-08 DE=-1.14D-12 OVMax= 7.76D-09

 SCF Done:  E(RB3LYP) =  -593.058860082     A.U. after   13 cycles
            NFock= 13  Conv=0.16D-08     -V/T= 2.0046
 KE= 5.903291723133D+02 PE=-1.627017279168D+03 EE= 3.353012636582D+02
 Leave Link  502 at Sun Oct 13 09:48:20 2024, MaxMem=  2684354560 cpu:              50.1 elap:               2.2
 (Enter /usr/local/g16_AVX//g16/l801.exe)
 DoSCS=F DFT=T ScalE2(SS,OS)=  1.000000  1.000000
 Range of M.O.s used for correlation:     1    98
 NBasis=    98 NAE=    20 NBE=    20 NFC=     0 NFV=     0
 NROrb=     98 NOA=    20 NOB=    20 NVA=    78 NVB=    78

 **** Warning!!: The largest alpha MO coefficient is  0.13858302D+03

 Leave Link  801 at Sun Oct 13 09:48:20 2024, MaxMem=  2684354560 cpu:               0.4 elap:               0.1
 (Enter /usr/local/g16_AVX//g16/l1101.exe)
 Using compressed storage, NAtomX=     7.
 Will process      8 centers per pass.
 Leave Link 1101 at Sun Oct 13 09:48:21 2024, MaxMem=  2684354560 cpu:               3.4 elap:               0.2
 (Enter /usr/local/g16_AVX//g16/l1102.exe)
 Symmetrizing basis deriv contribution to polar:
 IMax=3 JMax=2 DiffMx= 0.00D+00
 Leave Link 1102 at Sun Oct 13 09:48:21 2024, MaxMem=  2684354560 cpu:               0.5 elap:               0.1
 (Enter /usr/local/g16_AVX//g16/l1110.exe)
 Forming Gx(P) for the SCF density, NAtomX=     7.
 Integral derivatives from FoFJK, PRISM(SPDF).
 Do as many integral derivatives as possible in FoFJK.
 G2DrvN: MDV=    2684353864.
 G2DrvN: will do     8 centers at a time, making    1 passes.
 Calling FoFCou, ICntrl=  3107 FMM=F I1Cent=   0 AccDes= 0.00D+00.
 FoFJK:  IHMeth= 1 ICntrl=    3107 DoSepK=F KAlg= 0 I1Cent=           0 FoldK=F
 IRaf=         0 NMat=       1 IRICut=       1 DoRegI=T DoRafI=F ISym2E= 0 IDoP0=0 IntGTp=1.
 FoFCou: FMM=F IPFlag=           0 FMFlag=      100000 FMFlg1=           0
         NFxFlg=           0 DoJE=F BraDBF=F KetDBF=F FulRan=T
         wScrn=  0.000000 ICntrl=      3107 IOpCl=  0 I1Cent=           0 NGrid=           0
         NMat0=    1 NMatS0=      1 NMatT0=    0 NMatD0=    1 NMtDS0=    0 NMtDT0=    0
 Symmetry not used in FoFCou.
 End of G2Drv F.D. properties file   721 does not exist.
 End of G2Drv F.D. properties file   722 does not exist.
 End of G2Drv F.D. properties file   788 does not exist.
 Leave Link 1110 at Sun Oct 13 09:48:23 2024, MaxMem=  2684354560 cpu:              64.8 elap:               2.5
 (Enter /usr/local/g16_AVX//g16/l1002.exe)
 Minotr:  Closed shell wavefunction.
          IDoAtm=1111111
          Direct CPHF calculation.
          Differentiating once with respect to electric field.
                with respect to dipole field.
          Differentiating once with respect to nuclear coordinates.
          Requested convergence is 1.0D-08 RMS, and 1.0D-07 maximum.
          Secondary convergence is 1.0D-12 RMS, and 1.0D-12 maximum.
          NewPWx=T KeepS1=F KeepF1=F KeepIn=T MapXYZ=F SortEE=F KeepMc=T.
         2136 words used for storage of precomputed grid.
 Keep R1 ints in memory in canonical form, NReq=35668397.
 FoFCou: FMM=F IPFlag=           0 FMFlag=           0 FMFlg1=           0
         NFxFlg=           0 DoJE=F BraDBF=F KetDBF=F FulRan=T
         wScrn=  0.000000 ICntrl=       600 IOpCl=  0 I1Cent=           0 NGrid=           0
         NMat0=    1 NMatS0=   4851 NMatT0=    0 NMatD0=    1 NMtDS0=    0 NMtDT0=    0
 Symmetry not used in FoFCou.
 Two-electron integral symmetry not used.
          MDV=    2684354560 using IRadAn=       1.
          Solving linear equations simultaneously, MaxMat=       0.
          There are    24 degrees of freedom in the 1st order CPHF.  IDoFFX=6 NUNeed=     3.
     21 vectors produced by pass  0 Test12= 6.50D-15 4.17D-09 XBig12= 6.93D+01 3.10D+00.
 AX will form    21 AO Fock derivatives at one time.
     21 vectors produced by pass  1 Test12= 6.50D-15 4.17D-09 XBig12= 4.73D+01 2.40D+00.
     21 vectors produced by pass  2 Test12= 6.50D-15 4.17D-09 XBig12= 1.45D+00 3.00D-01.
     21 vectors produced by pass  3 Test12= 6.50D-15 4.17D-09 XBig12= 1.03D-02 2.20D-02.
     21 vectors produced by pass  4 Test12= 6.50D-15 4.17D-09 XBig12= 1.48D-05 7.37D-04.
     18 vectors produced by pass  5 Test12= 6.50D-15 4.17D-09 XBig12= 1.48D-08 2.21D-05.
      5 vectors produced by pass  6 Test12= 6.50D-15 4.17D-09 XBig12= 2.18D-11 9.43D-07.
      3 vectors produced by pass  7 Test12= 6.50D-15 4.17D-09 XBig12= 3.53D-14 6.15D-08.
 InvSVY:  IOpt=1 It=  1 EMax= 5.33D-15
 Solved reduced A of dimension   131 with    24 vectors.
 FullF1:  Do perturbations      1 to       3.
 Isotropic polarizability for W=    0.000000       54.03 Bohr**3.
 End of Minotr F.D. properties file   721 does not exist.
 End of Minotr F.D. properties file   722 does not exist.
 End of Minotr F.D. properties file   788 does not exist.
 Leave Link 1002 at Sun Oct 13 09:48:27 2024, MaxMem=  2684354560 cpu:              83.5 elap:               3.3
 (Enter /usr/local/g16_AVX//g16/l601.exe)
 Copying SCF densities to generalized density rwf, IOpCl= 0 IROHF=0.

 **********************************************************************

            Population analysis using the SCF Density.

 **********************************************************************

 Alpha  occ. eigenvalues -- -101.25504 -14.22316 -10.11984 -10.08856  -9.16876
 Alpha  occ. eigenvalues --   -6.92663  -6.92663  -6.92632  -0.79369  -0.63841
 Alpha  occ. eigenvalues --   -0.50838  -0.37544  -0.32200  -0.32097  -0.25446
 Alpha  occ. eigenvalues --   -0.21223  -0.21205  -0.05404  -0.05404  -0.05379
 Alpha virt. eigenvalues --    0.10345   0.13945   0.13962   0.14463   0.15116
 Alpha virt. eigenvalues --    0.15125   0.20063   0.20791   0.20796   0.21933
 Alpha virt. eigenvalues --    0.23474   0.23487   0.25621   0.26052   0.26054
 Alpha virt. eigenvalues --    0.29954   0.33011   0.33955   0.33965   0.34864
 Alpha virt. eigenvalues --    0.34917   0.36127   0.39497   0.41528   0.48837
 Alpha virt. eigenvalues --    0.69084   0.79094   0.79098   0.84704   0.84747
 Alpha virt. eigenvalues --    0.85487   0.85515   0.86181   0.89960   0.98437
 Alpha virt. eigenvalues --    1.02759   1.02887   1.04098   1.09865   1.12517
 Alpha virt. eigenvalues --    1.12520   1.15290   1.15291   1.16141   1.16155
 Alpha virt. eigenvalues --    1.22577   1.27408   1.29610   1.45892   1.45954
 Alpha virt. eigenvalues --    1.54588   1.63068   1.63077   1.86877   1.86984
 Alpha virt. eigenvalues --    1.92237   2.05807   2.05830   2.15483   2.24348
 Alpha virt. eigenvalues --    2.24736   2.32879   2.40334   2.40470   2.80183
 Alpha virt. eigenvalues --    2.80803   2.81098   3.06519   3.09849   3.10146
 Alpha virt. eigenvalues --    3.29294   3.46380   3.55891   3.56273   4.26323
 Alpha virt. eigenvalues --    4.45494   4.58712   4.81791
          Condensed to atoms (all electrons):
               1          2          3          4          5          6
     1  C    6.059776  -0.138908   0.422781   0.421982   0.420645  -1.137176
     2  Cl  -0.138908  17.945188  -0.009733  -0.009915  -0.010103   0.135177
     3  H    0.422781  -0.009733   0.484806  -0.024575  -0.024322  -0.062813
     4  H    0.421982  -0.009915  -0.024575   0.485431  -0.024082  -0.062359
     5  H    0.420645  -0.010103  -0.024322  -0.024082   0.485777  -0.061303
     6  C   -1.137176   0.135177  -0.062813  -0.062359  -0.061303   6.905058
     7  N   -0.071244   0.001754  -0.005541  -0.005545  -0.005500   0.461626
               7
     1  C   -0.071244
     2  Cl   0.001754
     3  H   -0.005541
     4  H   -0.005545
     5  H   -0.005500
     6  C    0.461626
     7  N    7.212270
 Mulliken charges:
               1
     1  C    0.022143
     2  Cl  -0.913461
     3  H    0.219396
     4  H    0.219064
     5  H    0.218887
     6  C   -0.178210
     7  N   -0.587820
 Sum of Mulliken charges =  -1.00000
 Mulliken charges with hydrogens summed into heavy atoms:
               1
     1  C    0.679490
     2  Cl  -0.913461
     6  C   -0.178210
     7  N   -0.587820
 APT charges:
               1
     1  C   -0.003161
     2  Cl  -0.979609
     3  H    0.088181
     4  H    0.087072
     5  H    0.086126
     6  C    0.223861
     7  N   -0.502471
 Sum of APT charges =  -1.00000
 APT charges with hydrogens summed into heavy atoms:
               1
     1  C    0.258218
     2  Cl  -0.979609
     6  C    0.223861
     7  N   -0.502471
 Electronic spatial extent (au):  <R**2>=            855.7843
 Charge=             -1.0000 electrons
 Dipole moment (field-independent basis, Debye):
    X=              5.5099    Y=              0.0006    Z=             -0.0008  Tot=              5.5099
 Quadrupole moment (field-independent basis, Debye-Ang):
   XX=            -85.5893   YY=            -35.3869   ZZ=            -35.3918
   XY=             -0.0032   XZ=              0.0085   YZ=             -0.0011
 Traceless Quadrupole moment (field-independent basis, Debye-Ang):
   XX=            -33.4667   YY=             16.7358   ZZ=             16.7309
   XY=             -0.0032   XZ=              0.0085   YZ=             -0.0011
 Octapole moment (field-independent basis, Debye-Ang**2):
  XXX=            -14.9431  YYY=             -0.0119  ZZZ=             -0.8390  XYY=              3.9432
  XXY=             -0.0052  XXZ=              0.0110  XZZ=              3.9307  YZZ=              0.0041
  YYZ=              0.8510  XYZ=             -0.0034
 Hexadecapole moment (field-independent basis, Debye-Ang**3):
 XXXX=          -1692.3216 YYYY=            -57.7957 ZZZZ=            -57.8273 XXXY=              0.0271
 XXXZ=              0.0260 YYYX=              0.0093 YYYZ=             -0.0036 ZZZX=             -0.1990
 ZZZY=             -0.0071 XXYY=           -215.8100 XXZZ=           -215.8201 YYZZ=            -19.2724
 XXYZ=             -0.0035 YYXZ=              0.2296 ZZXY=              0.0052
 N-N= 1.083279831141D+02 E-N=-1.627017278917D+03  KE= 5.903291723133D+02
  Exact polarizability:  79.314  -0.013  41.371   0.017   0.009  41.398
 Approx polarizability:  98.174  -0.021  50.181   0.034   0.014  50.216
 No NMR shielding tensors so no spin-rotation constants.
 Leave Link  601 at Sun Oct 13 09:48:27 2024, MaxMem=  2684354560 cpu:               2.8 elap:               0.1
 (Enter /usr/local/g16_AVX//g16/l701.exe)
 ... and contract with generalized density number  0.
 Compute integral second derivatives.
 Leave Link  701 at Sun Oct 13 09:48:27 2024, MaxMem=  2684354560 cpu:               4.5 elap:               0.2
 (Enter /usr/local/g16_AVX//g16/l702.exe)
 L702 exits ... SP integral derivatives will be done elsewhere.
 Leave Link  702 at Sun Oct 13 09:48:27 2024, MaxMem=  2684354560 cpu:               0.5 elap:               0.0
 (Enter /usr/local/g16_AVX//g16/l703.exe)
 Integral derivatives from FoFJK, PRISM(SPDF).
 Compute integral second derivatives, UseDBF=F ICtDFT=           0.
 Calling FoFJK, ICntrl=    100127 FMM=F ISym2X=0 I1Cent= 0 IOpClX= 0 NMat=1 NMatS=1 NMatT=0.
 FoFJK:  IHMeth= 1 ICntrl=  100127 DoSepK=F KAlg= 0 I1Cent=           0 FoldK=F
 IRaf=         0 NMat=       1 IRICut=       1 DoRegI=T DoRafI=F ISym2E= 0 IDoP0=0 IntGTp=1.
 FoFCou: FMM=F IPFlag=           0 FMFlag=      100000 FMFlg1=         800
         NFxFlg=           0 DoJE=F BraDBF=F KetDBF=F FulRan=T
         wScrn=  0.000000 ICntrl=    100127 IOpCl=  0 I1Cent=           0 NGrid=           0
         NMat0=    1 NMatS0=      1 NMatT0=    0 NMatD0=    1 NMtDS0=    0 NMtDT0=    0
 Symmetry not used in FoFCou.
 Leave Link  703 at Sun Oct 13 09:48:31 2024, MaxMem=  2684354560 cpu:             109.7 elap:               4.3
 (Enter /usr/local/g16_AVX//g16/l716.exe)
 Dipole        = 2.16774642D+00 2.31675401D-04-2.98449899D-04
 Polarizability= 7.93139749D+01-1.31537213D-02 4.13711581D+01
                 1.65953596D-02 9.45576735D-03 4.13977430D+01
 Full mass-weighted force constant matrix:
 Low frequencies ---  -74.7299  -70.9684  -32.7709  -32.6455   -0.0008   -0.0008
 Low frequencies ---    0.0018  114.2538  156.6843
 ******    2 imaginary frequencies (negative Signs) ****** 
 Diagonal vibrational polarizability:
       23.2207511     114.2097506     123.9326135
 Harmonic frequencies (cm**-1), IR intensities (KM/Mole), Raman scattering
 activities (A**4/AMU), depolarization ratios for plane and unpolarized
 incident light, reduced masses (AMU), force constants (mDyne/A),
 and normal coordinates:
                      1                      2                      3
                      A                      A                      A
 Frequencies --    -71.8764               -68.3347               156.6842
 Red. masses --      3.6586                 3.7007                12.4154
 Frc consts  --      0.0111                 0.0102                 0.1796
 IR Inten    --     21.5670                21.6800                19.9700
  Atom  AN      X      Y      Z        X      Y      Z        X      Y      Z
     1   6     0.00   0.36  -0.13     0.00   0.13   0.36    -0.36  -0.00   0.00
     2  17     0.00  -0.08   0.03    -0.00  -0.03  -0.08     0.44   0.00  -0.00
     3   1     0.09   0.44  -0.16    -0.25   0.16   0.46    -0.36  -0.00   0.00
     4   1     0.17   0.45  -0.15     0.20   0.17   0.45    -0.36  -0.00  -0.00
     5   1    -0.27   0.45  -0.17     0.05   0.16   0.44    -0.36   0.00  -0.00
     6   6    -0.00   0.04  -0.01     0.00   0.01   0.04    -0.38  -0.00   0.00
     7   7    -0.00  -0.23   0.08     0.00  -0.08  -0.23    -0.38   0.00  -0.00
                      4                      5                      6
                      A                      A                      A
 Frequencies --    371.4351               375.2435               932.4858
 Red. masses --      3.4409                 3.4408                 4.8281
 Frc consts  --      0.2797                 0.2855                 2.4735
 IR Inten    --      1.2283                 1.1291                12.7048
  Atom  AN      X      Y      Z        X      Y      Z        X      Y      Z
     1   6    -0.00  -0.06   0.02     0.00  -0.02  -0.06     0.45  -0.00   0.00
     2  17     0.00  -0.00   0.00    -0.00   0.00   0.00    -0.00  -0.00   0.00
     3   1    -0.20  -0.27   0.10     0.56  -0.10  -0.28     0.48   0.00  -0.01
     4   1    -0.38  -0.27   0.09    -0.45  -0.10  -0.28     0.47   0.01   0.00
     5   1     0.59  -0.28   0.10    -0.11  -0.09  -0.27     0.46  -0.01   0.00
     6   6    -0.00   0.37  -0.13     0.00   0.13   0.38    -0.20   0.00  -0.00
     7   7    -0.00  -0.21   0.07     0.00  -0.07  -0.21    -0.30  -0.00   0.00
                      7                      8                      9
                      A                      A                      A
 Frequencies --   1017.4112              1017.8463              1348.6697
 Red. masses --      1.5091                 1.5051                 1.2139
 Frc consts  --      0.9203                 0.9187                 1.3009
 IR Inten    --      1.5329                 1.6077                44.5392
  Atom  AN      X      Y      Z        X      Y      Z        X      Y      Z
     1   6     0.00   0.13  -0.10     0.00  -0.10  -0.13    -0.14  -0.00   0.00
     2  17    -0.00  -0.00   0.00    -0.00   0.00   0.00     0.00  -0.00   0.00
     3   1    -0.44  -0.25   0.07    -0.56   0.20   0.10     0.52   0.01  -0.24
     4   1    -0.26  -0.19   0.24     0.67   0.03   0.16     0.52   0.21   0.11
     5   1     0.72  -0.08   0.10    -0.10   0.18   0.28     0.52  -0.20   0.11
     6   6    -0.00  -0.11   0.08    -0.00   0.08   0.10     0.00   0.00  -0.00
     7   7    -0.00   0.02  -0.02    -0.00  -0.01  -0.02     0.00   0.00  -0.00
                     10                     11                     12
                      A                      A                      A
 Frequencies --   1438.8700              1442.8708              2352.9137
 Red. masses --      1.0398                 1.0405                12.4936
 Frc consts  --      1.2684                 1.2763                40.7519
 IR Inten    --     12.0766                12.4196                55.5500
  Atom  AN      X      Y      Z        X      Y      Z        X      Y      Z
     1   6    -0.00  -0.01  -0.05     0.00  -0.05   0.01    -0.09   0.00   0.00
     2  17     0.00  -0.00  -0.00    -0.00  -0.00   0.00     0.00   0.00  -0.00
     3   1     0.34   0.22  -0.15    -0.11   0.68   0.05    -0.07  -0.00   0.02
     4   1    -0.26  -0.34   0.36    -0.24   0.17  -0.51    -0.07  -0.02  -0.01
     5   1    -0.07   0.38   0.59     0.34  -0.06   0.21    -0.07   0.02  -0.01
     6   6     0.00  -0.01  -0.02    -0.00  -0.02   0.01     0.79   0.00  -0.00
     7   7     0.00   0.00   0.00    -0.00   0.00  -0.00    -0.59  -0.00  -0.00
                     13                     14                     15
                      A                      A                      A
 Frequencies --   3091.3141              3166.2184              3193.7384
 Red. masses --      1.0359                 1.1017                 1.1018
 Frc consts  --      5.8327                 6.5074                 6.6216
 IR Inten    --      2.5153                 0.3405                 0.4081
  Atom  AN      X      Y      Z        X      Y      Z        X      Y      Z
     1   6    -0.05   0.01  -0.02     0.01  -0.03  -0.09    -0.01  -0.09   0.03
     2  17    -0.00  -0.00   0.00     0.00   0.00   0.00    -0.00   0.00  -0.00
     3   1     0.24   0.00   0.66     0.24  -0.01   0.63    -0.07  -0.02  -0.19
     4   1     0.19  -0.45  -0.27    -0.25   0.58   0.32    -0.15   0.33   0.21
     5   1     0.14   0.36  -0.21    -0.06  -0.16   0.07     0.31   0.71  -0.41
     6   6    -0.00  -0.00   0.00     0.00   0.00   0.00    -0.00   0.00  -0.00
     7   7     0.00   0.00  -0.00    -0.00  -0.00  -0.00     0.00  -0.00   0.00

 -------------------
 - Thermochemistry -
 -------------------
 Temperature   298.150 Kelvin.  Pressure   1.00000 Atm.
 Atom     1 has atomic number  6 and mass  12.00000
 Atom     2 has atomic number 17 and mass  34.96885
 Atom     3 has atomic number  1 and mass   1.00783
 Atom     4 has atomic number  1 and mass   1.00783
 Atom     5 has atomic number  1 and mass   1.00783
 Atom     6 has atomic number  6 and mass  12.00000
 Atom     7 has atomic number  7 and mass  14.00307
 Molecular mass:    75.99540 amu.
 Principal axes and moments of inertia in atomic units:
                           1         2         3
     Eigenvalues --    11.264891480.450841480.45521
           X            1.00000   0.00004  -0.00001
           Y           -0.00002   0.58746   0.80926
           Z           -0.00004   0.80926  -0.58746
 This molecule is an asymmetric top.
 Rotational symmetry number  1.
 Rotational temperatures (Kelvin)      7.68884     0.05851     0.05850
 Rotational constants (GHZ):         160.20934     1.21905     1.21904
    2 imaginary frequencies ignored.
 Zero-point vibrational energy     119062.5 (Joules/Mol)
                                   28.45663 (Kcal/Mol)
 Warning -- explicit consideration of   3 degrees of freedom as
           vibrations may cause significant error
 Vibrational temperatures:    225.43   534.41   539.89  1341.64  1463.83
          (Kelvin)           1464.45  1940.43  2070.21  2075.97  3385.32
                             4447.71  4555.48  4595.08
 
 Zero-point correction=                           0.045349 (Hartree/Particle)
 Thermal correction to Energy=                    0.049624
 Thermal correction to Enthalpy=                  0.050568
 Thermal correction to Gibbs Free Energy=         0.017933
 Sum of electronic and zero-point Energies=           -593.013512
 Sum of electronic and thermal Energies=              -593.009236
 Sum of electronic and thermal Enthalpies=            -593.008292
 Sum of electronic and thermal Free Energies=         -593.040928
 
                     E (Thermal)             CV                S
                      KCal/Mol        Cal/Mol-Kelvin    Cal/Mol-Kelvin
 Total                   31.139             12.397             68.687
 Electronic               0.000              0.000              0.000
 Translational            0.889              2.981             38.900
 Rotational               0.889              2.981             24.716
 Vibrational             29.362              6.436              5.071
 Vibration     1          0.620              1.895              2.589
 Vibration     2          0.743              1.531              1.074
 Vibration     3          0.746              1.523              1.058
                       Q            Log10(Q)             Ln(Q)
 Total Bot       0.564440D-08         -8.248382        -18.992601
 Total V=0       0.407824D+13         12.610473         29.036686
 Vib (Bot)       0.385371D-20        -20.414121        -47.005250
 Vib (Bot)    1  0.129157D+01          0.111120          0.255862
 Vib (Bot)    2  0.489669D+00         -0.310097         -0.714026
 Vib (Bot)    3  0.483431D+00         -0.315666         -0.726847
 Vib (V=0)       0.278441D+01          0.444734          1.024038
 Vib (V=0)    1  0.188498D+01          0.275306          0.633916
 Vib (V=0)    2  0.119984D+01          0.079123          0.182188
 Vib (V=0)    3  0.119549D+01          0.077546          0.178555
 Electronic      0.100000D+01          0.000000          0.000000
 Translational   0.260396D+08          7.415635         17.075130
 Rotational      0.562476D+05          4.750104         10.937518
 
                                                       RxCoord=-5.89287 DE=2.54
                                                             IR Spectrum
 
     3 3  3                            2                                  11   1           11                                        
     1 1  0                            3                                  44   3           00  9                     33       1      
     9 6  9                            5                                  43   4           11  3                     77       5      
     4 6  1                            3                                  39   9           87  2                     51       7      
 
     X X  X                            X                                  XX   X           XX  X                     XX       X      
                                       X                                  XX   X               X                              X      
                                       X                                  XX   X               X                              X      
                                       X                                  XX   X               X                              X      
                                       X                                       X               X                              X      
                                       X                                       X                                              X      
                                       X                                       X                                              X      
                                       X                                       X                                                     
                                       X                                       X                                                     
                                       X                                       X                                                     
                                       X                                       X                                                     
                                       X                                       X                                                     
                                       X                                       X                                                     
                                       X                                       X                                                     
                                       X                                       X                                                     
                                       X                                       X                                                     
                                       X                                                                                             
                                       X                                                                                             
                                       X                                                                                             
                                       X                                                                                             
 
 -------------------------------------------------------------------
 Center     Atomic                   Forces (Hartrees/Bohr)
 Number     Number              X              Y              Z
 -------------------------------------------------------------------
      1        6           0.004825374    0.001362750   -0.001838715
      2       17          -0.005600154    0.000006657   -0.000010826
      3        1          -0.002231765   -0.000103829    0.002231898
      4        1          -0.002951372   -0.001102150   -0.000405525
      5        1          -0.003897194   -0.000368542    0.000332079
      6        6           0.003181552    0.000242470   -0.000338699
      7        7           0.006673560   -0.000037356    0.000029789
 -------------------------------------------------------------------
 Cartesian Forces:  Max     0.006673560 RMS     0.002674531
 Z-matrix is all fixed cartesians, so copy forces.
 Force constants in Cartesian coordinates: 
                1             2             3             4             5 
      1  0.488428D+00
      2  0.138040D-02  0.563141D+00
      3 -0.161510D-02 -0.287250D-02  0.555100D+00
      4 -0.967556D-02 -0.244276D-05  0.808007D-05  0.177274D-01
      5 -0.197615D-04 -0.915630D-04  0.000000D+00  0.440966D-05 -0.726251D-03
      6  0.351102D-04  0.000000D+00 -0.934485D-04 -0.204008D-04 -0.216324D-05
      7 -0.699338D-01  0.207121D-03 -0.903759D-01 -0.138161D-02  0.315338D-05
      8  0.164480D-03 -0.406804D-01  0.678975D-03 -0.346204D-05 -0.112144D-02
      9 -0.888762D-01  0.764836D-03 -0.291005D+00 -0.140298D-02 -0.374508D-05
     10 -0.694912D-01  0.787176D-01  0.457321D-01 -0.138537D-02  0.789766D-03
     11  0.774156D-01 -0.230970D+00 -0.110456D+00  0.120918D-02  0.206234D-03
     12  0.450565D-01 -0.110602D+00 -0.104293D+00  0.722793D-03  0.768081D-03
     13 -0.692005D-01 -0.802389D-01  0.460963D-01 -0.138159D-02 -0.780431D-03
     14 -0.790063D-01 -0.235909D+00  0.112641D+00 -0.121854D-02  0.218769D-03
     15  0.454238D-01  0.112702D+00 -0.104209D+00  0.712341D-03 -0.764063D-03
     16 -0.258837D+00 -0.387069D-04  0.137930D-03 -0.975360D-03  0.751951D-05
     17  0.724494D-04 -0.777052D-01  0.172069D-04  0.145719D-04  0.182869D-02
     18 -0.761298D-04  0.173221D-04 -0.777019D-01 -0.262430D-04  0.300697D-05
     19 -0.112896D-01 -0.250449D-04  0.165534D-04 -0.292787D-02 -0.465561D-05
     20 -0.680414D-05  0.222151D-01 -0.903854D-05 -0.372160D-05 -0.314441D-03
     21  0.520133D-04 -0.907700D-05  0.222018D-01  0.641452D-05  0.000000D+00
                6             7             8             9            10 
      6 -0.734798D-03
      7 -0.919275D-03  0.835327D-01
      8 -0.354511D-05 -0.270524D-03  0.432082D-01
      9  0.630267D-03  0.990595D-01 -0.719106D-03  0.309991D+00
     10  0.459929D-03  0.426824D-02 -0.934954D-02 -0.466843D-02  0.832051D-01
     11  0.767716D-03 -0.692074D-03  0.431097D-03  0.123754D-02 -0.862837D-01
     12 -0.660442D-03  0.103274D-01 -0.240037D-01 -0.129368D-01 -0.500410D-01
     13  0.450074D-03  0.426808D-02  0.947173D-02 -0.465374D-02  0.425363D-02
     14 -0.763892D-03  0.685896D-03  0.418755D-03 -0.126269D-02 -0.863861D-02
     15 -0.664243D-03  0.103406D-01  0.240974D-01 -0.127935D-01 -0.587506D-02
     16 -0.124161D-04 -0.213122D-01  0.695974D-05 -0.284151D-02 -0.213491D-01
     17  0.301495D-05  0.747767D-04 -0.342605D-02 -0.254667D-04  0.282566D-01
     18  0.184046D-02 -0.324301D-01 -0.649981D-04  0.779435D-02  0.164233D-01
     19  0.697824D-05  0.558644D-03 -0.196390D-04  0.338336D-02  0.498625D-03
     20  0.000000D+00 -0.834914D-05  0.116987D-02  0.862859D-05 -0.349207D-02
     21 -0.317798D-03  0.399767D-02  0.148909D-04 -0.168085D-02 -0.203093D-02
               11            12            13            14            15 
     11  0.245659D+00
     12  0.117703D+00  0.110993D+00
     13  0.875549D-02 -0.586263D-02  0.830655D-01
     14 -0.192903D-01  0.126287D-01  0.878199D-01  0.250609D+00
     15 -0.128366D-01  0.706002D-02 -0.504149D-01 -0.119742D+00  0.110764D+00
     16  0.253193D-02  0.147596D-02 -0.214347D-01 -0.258135D-02  0.148853D-02
     17  0.492171D-02  0.472263D-02 -0.285679D-01  0.491142D-02 -0.466811D-02
     18  0.481559D-02 -0.625404D-03  0.164199D-01 -0.472163D-02 -0.628106D-03
     19 -0.293636D-02 -0.167910D-02  0.429526D-03  0.293900D-02 -0.167531D-02
     20 -0.957869D-03 -0.121636D-02  0.354005D-02 -0.959481D-03  0.121152D-02
     21 -0.123108D-02  0.461957D-03 -0.203497D-02  0.122001D-02  0.470807D-03
               16            17            18            19            20 
     16  0.156406D+01
     17  0.259991D-03  0.107612D+00
     18 -0.220413D-03 -0.533992D-04  0.107450D+00
     19 -0.124015D+01 -0.110544D-03 -0.903725D-04  0.125288D+01
     20 -0.186351D-03 -0.381426D-01  0.410264D-05  0.157248D-03  0.169894D-01
     21 -0.280866D-04  0.411635D-05 -0.381294D-01  0.378842D-04  0.194689D-05
               21 
     21  0.169935D-01
 Leave Link  716 at Sun Oct 13 09:48:31 2024, MaxMem=  2684354560 cpu:               0.6 elap:               0.0
 (Enter /usr/local/g16_AVX//g16/l103.exe)

 GradGradGradGradGradGradGradGradGradGradGradGradGradGradGradGradGradGrad
 Berny optimization.
 Search for a local minimum.
 Step number   1 out of a maximum of    2
 All quantities printed in internal units (Hartrees-Bohrs-Radians)
 Second derivative matrix not updated -- analytic derivatives used.
 ITU=  0
     Eigenvalues ---   -0.00091  -0.00084   0.01741   0.02365   0.02402
     Eigenvalues ---    0.09496   0.09562   0.09697   0.16136   0.16186
     Eigenvalues ---    0.28249   0.65142   0.81907   0.83383   2.67368
 Eigenvalue     1 is  -9.12D-04 should be greater than     0.000000 Eigenvector:
                          Y5        Y4        Y3        Y7        Y1
   1                    0.41743   0.41017   0.39755  -0.33491   0.32135
                          X5        Y2        X4        Z5        Z3
   1                   -0.27382  -0.25807   0.17699  -0.15466  -0.15101
 Eigenvalue     2 is  -8.39D-04 should be greater than     0.000000 Eigenvector:
                          Z3        Z4        Z5        Z7        Z1
   1                    0.41962   0.40657   0.40024  -0.33760   0.32236
                          Z2        X3        X4        Y4        Y3
   1                   -0.25846  -0.25461   0.20922   0.15871   0.14308
 Quadratic step=3.028D-01 exceeds max=3.000D-01 adjusted using Lamda=-1.686D-04.
 Angle between NR and scaled steps=   0.36 degrees.
 Angle between quadratic step and forces=  47.74 degrees.
 Linear search not attempted -- first point.
 B after Tr=    -0.031581   -0.001109    0.000870
         Rot=    1.000000    0.000000   -0.000160   -0.000141 Ang=   0.02 deg.
 Variable       Old X    -DE/DX   Delta X   Delta X   Delta X     New X
                                 (Linear)    (Quad)   (Total)
    X1        1.35945   0.00483   0.00000   0.09276   0.06118   1.42063
    Y1       -0.00005   0.00136   0.00000   0.00250   0.00180   0.00175
    Z1        0.00052  -0.00184   0.00000  -0.00188  -0.00147  -0.00095
    X2       -4.45314  -0.00560   0.00000  -0.22404  -0.25562  -4.70876
    Y2        0.00001   0.00001   0.00000  -0.00194  -0.00436  -0.00435
    Z2        0.00019  -0.00001   0.00000   0.00156   0.00393   0.00412
    X3        0.63078  -0.00223   0.00000   0.05327   0.02108   0.65185
    Y3        0.00543  -0.00010   0.00000   0.00228   0.00136   0.00679
    Z3       -1.93099   0.00223   0.00000   0.01429   0.01494  -1.91605
    X4        0.63958  -0.00295   0.00000   0.04440   0.01266   0.65224
    Y4        1.67059  -0.00110   0.00000  -0.01131  -0.01223   1.65836
    Z4        0.96882  -0.00041   0.00000  -0.00906  -0.00841   0.96041
    X5        0.64738  -0.00390   0.00000   0.03256   0.00175   0.64913
    Y5       -1.67246  -0.00037   0.00000   0.01518   0.01427  -1.65820
    Z5        0.96024   0.00033   0.00000  -0.00855  -0.00789   0.95234
    X6        4.10466   0.00318   0.00000   0.10888   0.07730   4.18196
    Y6       -0.00033   0.00024   0.00000   0.00020   0.00028  -0.00006
    Z6       -0.00043  -0.00034   0.00000   0.00022  -0.00026  -0.00069
    X7        6.29999   0.00667   0.00000   0.11323   0.08165   6.38164
    Y7        0.00003  -0.00004   0.00000  -0.00180  -0.00111  -0.00107
    Z7       -0.00043   0.00003   0.00000   0.00036  -0.00083  -0.00125
         Item               Value     Threshold  Converged?
 Maximum Force            0.006674     0.000450     NO 
 RMS     Force            0.002675     0.000300     NO 
 Maximum Displacement     0.255619     0.001800     NO 
 RMS     Displacement     0.062901     0.001200     NO 
 Predicted change in Energy=-1.244478D-03
 GradGradGradGradGradGradGradGradGradGradGradGradGradGradGradGradGradGrad

 Leave Link  103 at Sun Oct 13 09:48:32 2024, MaxMem=  2684354560 cpu:               0.6 elap:               0.1
 (Enter /usr/local/g16_AVX//g16/l9999.exe)

 ----------------------------------------------------------------------

 Electric dipole moment (input orientation):
 (Debye = 10**-18 statcoulomb cm , SI units = C m)
                  (au)            (Debye)         (10**-30 SI)
   Tot        0.216775D+01      0.550986D+01      0.183789D+02
   x          0.216775D+01      0.550986D+01      0.183789D+02
   y          0.231675D-03      0.588860D-03      0.196423D-02
   z         -0.298450D-03     -0.758584D-03     -0.253036D-02

 Dipole polarizability, Alpha (input orientation).
 (esu units = cm**3 , SI units = C**2 m**2 J**-1)
 Alpha(0;0):
               (au)            (10**-24 esu)      (10**-40 SI)
   iso        0.540276D+02      0.800607D+01      0.890795D+01
   aniso      0.379296D+02      0.562058D+01      0.625374D+01
   xx         0.793140D+02      0.117531D+02      0.130771D+02
   yx        -0.131537D-01     -0.194918D-02     -0.216876D-02
   yy         0.413712D+02      0.613057D+01      0.682118D+01
   zx         0.165954D-01      0.245918D-02      0.273621D-02
   zy         0.945577D-02      0.140120D-02      0.155905D-02
   zz         0.413977D+02      0.613451D+01      0.682557D+01

 ----------------------------------------------------------------------

 Dipole orientation:
     6         -0.00070682         -0.00019261          1.35944620
    17          0.00042029          0.00048920         -4.45314146
     1          1.93090085          0.00556813          0.63104189
     1         -0.96908572          1.67042156          0.63962485
     1         -0.96014632         -1.67263422          0.64706764
     6         -0.00013985         -0.00077129          4.10465707
     7         -0.00044211         -0.00063934          6.29999160

 Electric dipole moment (dipole orientation):
 (Debye = 10**-18 statcoulomb cm , SI units = C m)
                  (au)            (Debye)         (10**-30 SI)
   Tot        0.216775D+01      0.550986D+01      0.183789D+02
   x          0.000000D+00      0.000000D+00      0.000000D+00
   y          0.000000D+00      0.000000D+00      0.000000D+00
   z          0.216775D+01      0.550986D+01      0.183789D+02

 Dipole polarizability, Alpha (dipole orientation).
 (esu units = cm**3 , SI units = C**2 m**2 J**-1)
 Alpha(0;0):
               (au)            (10**-24 esu)      (10**-40 SI)
   iso        0.540276D+02      0.800607D+01      0.890795D+01
   aniso      0.379296D+02      0.562058D+01      0.625374D+01
   xx         0.413978D+02      0.613451D+01      0.682557D+01
   yx        -0.944878D-02     -0.140017D-02     -0.155789D-02
   yy         0.413712D+02      0.613057D+01      0.682118D+01
   zx        -0.218147D-01     -0.323261D-02     -0.359676D-02
   zy        -0.172124D-01     -0.255062D-02     -0.283795D-02
   zz         0.793140D+02      0.117531D+02      0.130771D+02

 ----------------------------------------------------------------------
 1\1\GINC-NODO11\Freq\RB3LYP\6-31++G(d,p)\C2H3Cl1N1(1-)\ALANQF\13-Oct-2
 024\0\\#p b3lyp 6-31++g(d,p) scf=verytight NoSymm freq=noraman int=ult
 rafine\\RxCoord=-5.89287 DE=2.54\\-1,1\C,0.719388,-0.000025,0.000275\C
 l,-2.356501,0.000007,0.000102\H,0.333792,0.002873,-1.021835\H,0.338451
 ,0.88404,0.512677\H,0.342578,-0.885029,0.508135\C,2.172091,-0.000176,-
 0.000225\N,3.333812,0.000018,-0.000225\\Version=ES64L-G16RevB.01\HF=-5
 93.0588601\RMSD=1.584e-09\RMSF=2.675e-03\ZeroPoint=0.0453485\Thermal=0
 .0496237\Dipole=2.2472051,0.0002764,-0.0003258\DipoleDeriv=-0.1272611,
 -0.0005865,0.0008427,0.0000677,0.0580712,0.0006051,-0.0001353,0.000605
 8,0.0597082,-1.0895174,-0.0000337,0.0000749,-0.0006536,-0.9246706,0.00
 00261,0.0010821,0.0000261,-0.9246378,0.1363635,-0.0000508,0.013354,-0.
 0002472,0.1088074,0.000006,-0.0173566,0.0000481,0.0193719,0.1330206,-0
 .0121991,-0.0069699,0.0144338,0.0423345,-0.0387134,0.009145,-0.0387464
 ,0.0858611,0.1299796,0.0129585,-0.0073509,-0.0142652,0.0421403,0.03803
 12,0.0086227,0.0380212,0.0862567,0.5476402,-0.0004759,0.0002043,0.0008
 663,0.0619013,0.00006,-0.0016745,0.0000602,0.0620421,-0.7302255,0.0003
 874,-0.0001549,-0.0002018,-0.388584,-0.0000149,0.0003165,-0.0000149,-0
 .3886022\Polar=79.3139749,-0.0131537,41.3711581,0.0165954,0.0094558,41
 .397743\Quadrupole=-24.8816557,12.4426356,12.4390201,-0.0024003,0.0063
 395,-0.0008219\PG=C01 [X(C2H3Cl1N1)]\NImag=2\\0.48842779,0.00138040,0.
 56314091,-0.00161510,-0.00287250,0.55509999,-0.00967556,-0.00000244,0.
 00000808,0.01772736,-0.00001976,-0.00009156,-0.00000031,0.00000441,-0.
 00072625,0.00003511,-0.00000033,-0.00009345,-0.00002040,-0.00000216,-0
 .00073480,-0.06993382,0.00020712,-0.09037587,-0.00138161,0.00000315,-0
 .00091928,0.08353265,0.00016448,-0.04068043,0.00067898,-0.00000346,-0.
 00112144,-0.00000355,-0.00027052,0.04320819,-0.08887621,0.00076484,-0.
 29100493,-0.00140298,-0.00000375,0.00063027,0.09905951,-0.00071911,0.3
 0999144,-0.06949120,0.07871757,0.04573213,-0.00138537,0.00078977,0.000
 45993,0.00426824,-0.00934954,-0.00466843,0.08320514,0.07741557,-0.2309
 7028,-0.11045573,0.00120918,0.00020623,0.00076772,-0.00069207,0.000431
 10,0.00123754,-0.08628373,0.24565944,0.04505653,-0.11060190,-0.1042926
 8,0.00072279,0.00076808,-0.00066044,0.01032741,-0.02400366,-0.01293680
 ,-0.05004097,0.11770253,0.11099334,-0.06920046,-0.08023889,0.04609628,
 -0.00138159,-0.00078043,0.00045007,0.00426808,0.00947173,-0.00465374,0
 .00425363,0.00875549,-0.00586263,0.08306551,-0.07900633,-0.23590852,0.
 11264140,-0.00121854,0.00021877,-0.00076389,0.00068590,0.00041876,-0.0
 0126269,-0.00863861,-0.01929033,0.01262867,0.08781992,0.25060939,0.045
 42378,0.11270165,-0.10420886,0.00071234,-0.00076406,-0.00066424,0.0103
 4060,0.02409744,-0.01279348,-0.00587506,-0.01283657,0.00706002,-0.0504
 1489,-0.11974187,0.11076385,-0.25883719,-0.00003871,0.00013793,-0.0009
 7536,0.00000752,-0.00001242,-0.02131219,0.00000696,-0.00284151,-0.0213
 4906,0.00253193,0.00147596,-0.02143469,-0.00258135,0.00148853,1.564056
 36,0.00007245,-0.07770519,0.00001721,0.00001457,0.00182869,0.00000301,
 0.00007478,-0.00342605,-0.00002547,0.02825663,0.00492171,0.00472263,-0
 .02856787,0.00491142,-0.00466811,0.00025999,0.10761201,-0.00007613,0.0
 0001732,-0.07770187,-0.00002624,0.00000301,0.00184046,-0.03243005,-0.0
 0006500,0.00779435,0.01642334,0.00481559,-0.00062540,0.01641988,-0.004
 72163,-0.00062811,-0.00022041,-0.00005340,0.10744997,-0.01128956,-0.00
 002504,0.00001655,-0.00292787,-0.00000466,0.00000698,0.00055864,-0.000
 01964,0.00338336,0.00049863,-0.00293636,-0.00167910,0.00042953,0.00293
 900,-0.00167531,-1.24014787,-0.00011054,-0.00009037,1.25287850,-0.0000
 0680,0.02221508,-0.00000904,-0.00000372,-0.00031444,-0.00000080,-0.000
 00835,0.00116987,0.00000863,-0.00349207,-0.00095787,-0.00121636,0.0035
 4005,-0.00095948,0.00121152,-0.00018635,-0.03814258,0.00000410,0.00015
 725,0.01698942,0.00005201,-0.00000908,0.02220180,0.00000641,-0.0000008
 0,-0.00031780,0.00399767,0.00001489,-0.00168085,-0.00203093,-0.0012310
 8,0.00046196,-0.00203497,0.00122001,0.00047081,-0.00002809,0.00000412,
 -0.03812940,0.00003788,0.00000195,0.01699350\\-0.00482537,-0.00136275,
 0.00183872,0.00560015,-0.00000666,0.00001083,0.00223176,0.00010383,-0.
 00223190,0.00295137,0.00110215,0.00040553,0.00389719,0.00036854,-0.000
 33208,-0.00318155,-0.00024247,0.00033870,-0.00667356,0.00003736,-0.000
 02979\\\@


 YOU SHOULDN'T LET PEOPLE DRIVE YOU CRAZY
 WHEN YOU KNOW IT'S WITHIN WALKING DISTANCE.
 Job cpu time:       0 days  0 hours  5 minutes 36.9 seconds.
 Elapsed time:       0 days  0 hours  0 minutes 14.0 seconds.
 File lengths (MBytes):  RWF=     88 Int=      0 D2E=      0 Chk=      2 Scr=      2
 Normal termination of Gaussian 16 at Sun Oct 13 09:48:32 2024.
