 Entering Gaussian System, Link 0=g16
 Initial command:
 /usr/local/g16_AVX//g16/l1.exe "/scratch/alanqf/0043-54485.ixchel.mda.cinvestav.mx/Gau-23424.inp" -scrdir="/scratch/alanqf/0043-54485.ixchel.mda.cinvestav.mx/"
 Entering Link 1 = /usr/local/g16_AVX//g16/l1.exe PID=     23425.
  
 Copyright (c) 1988-2017, Gaussian, Inc.  All Rights Reserved.
  
 This is part of the Gaussian(R) 16 program.  It is based on
 the Gaussian(R) 09 system (copyright 2009, Gaussian, Inc.),
 the Gaussian(R) 03 system (copyright 2003, Gaussian, Inc.),
 the Gaussian(R) 98 system (copyright 1998, Gaussian, Inc.),
 the Gaussian(R) 94 system (copyright 1995, Gaussian, Inc.),
 the Gaussian 92(TM) system (copyright 1992, Gaussian, Inc.),
 the Gaussian 90(TM) system (copyright 1990, Gaussian, Inc.),
 the Gaussian 88(TM) system (copyright 1988, Gaussian, Inc.),
 the Gaussian 86(TM) system (copyright 1986, Carnegie Mellon
 University), and the Gaussian 82(TM) system (copyright 1983,
 Carnegie Mellon University). Gaussian is a federally registered
 trademark of Gaussian, Inc.
  
 This software contains proprietary and confidential information,
 including trade secrets, belonging to Gaussian, Inc.
  
 This software is provided under written license and may be
 used, copied, transmitted, or stored only in accord with that
 written license.
  
 The following legend is applicable only to US Government
 contracts under FAR:
  
                    RESTRICTED RIGHTS LEGEND
  
 Use, reproduction and disclosure by the US Government is
 subject to restrictions as set forth in subparagraphs (a)
 and (c) of the Commercial Computer Software - Restricted
 Rights clause in FAR 52.227-19.
  
 Gaussian, Inc.
 340 Quinnipiac St., Bldg. 40, Wallingford CT 06492
  
  
 ---------------------------------------------------------------
 Warning -- This program may not be used in any manner that
 competes with the business of Gaussian, Inc. or will provide
 assistance to any competitor of Gaussian, Inc.  The licensee
 of this program is prohibited from giving any competitor of
 Gaussian, Inc. access to this program.  By using this program,
 the user acknowledges that Gaussian, Inc. is engaged in the
 business of creating and licensing software in the field of
 computational chemistry and represents and warrants to the
 licensee that it is not a competitor of Gaussian, Inc. and that
 it will not use this program in any manner prohibited above.
 ---------------------------------------------------------------
  

 Cite this work as:
 Gaussian 16, Revision B.01,
 M. J. Frisch, G. W. Trucks, H. B. Schlegel, G. E. Scuseria, 
 M. A. Robb, J. R. Cheeseman, G. Scalmani, V. Barone, 
 G. A. Petersson, H. Nakatsuji, X. Li, M. Caricato, A. V. Marenich, 
 J. Bloino, B. G. Janesko, R. Gomperts, B. Mennucci, H. P. Hratchian, 
 J. V. Ortiz, A. F. Izmaylov, J. L. Sonnenberg, D. Williams-Young, 
 F. Ding, F. Lipparini, F. Egidi, J. Goings, B. Peng, A. Petrone, 
 T. Henderson, D. Ranasinghe, V. G. Zakrzewski, J. Gao, N. Rega, 
 G. Zheng, W. Liang, M. Hada, M. Ehara, K. Toyota, R. Fukuda, 
 J. Hasegawa, M. Ishida, T. Nakajima, Y. Honda, O. Kitao, H. Nakai, 
 T. Vreven, K. Throssell, J. A. Montgomery, Jr., J. E. Peralta, 
 F. Ogliaro, M. J. Bearpark, J. J. Heyd, E. N. Brothers, K. N. Kudin, 
 V. N. Staroverov, T. A. Keith, R. Kobayashi, J. Normand, 
 K. Raghavachari, A. P. Rendell, J. C. Burant, S. S. Iyengar, 
 J. Tomasi, M. Cossi, J. M. Millam, M. Klene, C. Adamo, R. Cammi, 
 J. W. Ochterski, R. L. Martin, K. Morokuma, O. Farkas, 
 J. B. Foresman, and D. J. Fox, Gaussian, Inc., Wallingford CT, 2016.
 
 ******************************************
 Gaussian 16:  ES64L-G16RevB.01 20-Dec-2017
                13-Oct-2024 
 ******************************************
 %NProcShared=26
 Will use up to   26 processors via shared memory.
 %MEM=20GB
 %chk=CHKfiles/0043.chk
 ---------------------------------------------------------------------
 #p b3lyp 6-31++g(d,p) scf=verytight NoSymm freq=noraman int=ultrafine
 ---------------------------------------------------------------------
 1/10=4,30=1,38=1/1,3;
 2/12=2,15=1,17=6,18=5,40=1/2;
 3/5=1,6=6,7=1111,11=2,25=1,30=1,71=2,74=-5,75=-5,140=1/1,2,3;
 4//1;
 5/5=2,17=3,38=5,98=1/2;
 8/6=4,10=90,11=11/1;
 11/6=1,8=1,9=11,15=111,16=1,31=1/1,2,10;
 10/6=1,31=1/2;
 6/7=2,8=2,9=2,10=2,28=1/1;
 7/8=1,10=1,25=1,30=1/1,2,3,16;
 1/10=4,30=1/3;
 99//99;
 Leave Link    1 at Sun Oct 13 09:48:19 2024, MaxMem=  2684354560 cpu:               1.3 elap:               0.1
 (Enter /usr/local/g16_AVX//g16/l101.exe)
 ------------------------
 RxCoord=-5.79353 DE=2.67
 ------------------------
 Symbolic Z-matrix:
 Charge = -1 Multiplicity = 1
 C                     0.71407  -0.00003   0.00031 
 Cl                   -2.35008   0.        0.00007 
 H                     0.33359   0.00206  -1.01977 
 H                     0.33319   0.88304   0.51363 
 H                     0.33005  -0.88643   0.50958 
 C                     2.16663   0.00011  -0.00057 
 N                     3.32831   0.00002  -0.00019 
 
 ITRead=  0  0  0  0  0  0  0
 MicOpt= -1 -1 -1 -1 -1 -1 -1
 NAtoms=      7 NQM=        7 NQMF=       0 NMMI=      0 NMMIF=      0
                NMic=       0 NMicF=      0.
                    Isotopes and Nuclear Properties:
 (Nuclear quadrupole moments (NQMom) in fm**2, nuclear magnetic moments (NMagM)
  in nuclear magnetons)

  Atom         1           2           3           4           5           6           7
 IAtWgt=          12          35           1           1           1          12          14
 AtmWgt=  12.0000000  34.9688527   1.0078250   1.0078250   1.0078250  12.0000000  14.0030740
 NucSpn=           0           3           1           1           1           0           2
 AtZEff=  -0.0000000  -0.0000000  -0.0000000  -0.0000000  -0.0000000  -0.0000000  -0.0000000
 NQMom=    0.0000000  -8.1650000   0.0000000   0.0000000   0.0000000   0.0000000   2.0440000
 NMagM=    0.0000000   0.8218740   2.7928460   2.7928460   2.7928460   0.0000000   0.4037610
 AtZNuc=   6.0000000  17.0000000   1.0000000   1.0000000   1.0000000   6.0000000   7.0000000
 Leave Link  101 at Sun Oct 13 09:48:19 2024, MaxMem=  2684354560 cpu:               2.8 elap:               0.2
 (Enter /usr/local/g16_AVX//g16/l103.exe)

 GradGradGradGradGradGradGradGradGradGradGradGradGradGradGradGradGradGrad
 Berny optimization.
 Initialization pass.
 Trust Radius=3.00D-01 FncErr=1.00D-07 GrdErr=1.00D-07 EigMax=2.50D+02 EigMin=1.00D-04
 Number of steps in this run=      2 maximum allowed number of steps=      2.
 GradGradGradGradGradGradGradGradGradGradGradGradGradGradGradGradGradGrad

 Leave Link  103 at Sun Oct 13 09:48:19 2024, MaxMem=  2684354560 cpu:               0.5 elap:               0.1
 (Enter /usr/local/g16_AVX//g16/l202.exe)
                          Input orientation:                          
 ---------------------------------------------------------------------
 Center     Atomic      Atomic             Coordinates (Angstroms)
 Number     Number       Type             X           Y           Z
 ---------------------------------------------------------------------
      1          6           0        0.714065   -0.000025    0.000311
      2         17           0       -2.350079    0.000003    0.000068
      3          1           0        0.333588    0.002056   -1.019772
      4          1           0        0.333191    0.883039    0.513633
      5          1           0        0.330050   -0.886426    0.509578
      6          6           0        2.166631    0.000110   -0.000573
      7          7           0        3.328311    0.000016   -0.000191
 ---------------------------------------------------------------------
                    Distance matrix (angstroms):
                    1          2          3          4          5
     1  C    0.000000
     2  Cl   3.064144   0.000000
     3  H    1.088732   2.870914   0.000000
     4  H    1.090122   2.871139   1.768463   0.000000
     5  H    1.092029   2.868527   1.768707   1.769472   0.000000
     6  C    1.452566   4.516710   2.097336   2.098922   2.102196
     7  N    2.614246   5.678390   3.163529   3.164568   3.167840
                    6          7
     6  C    0.000000
     7  N    1.161680   0.000000
 Symmetry turned off by external request.
 Stoichiometry    C2H3ClN(1-)
 Framework group  C1[X(C2H3ClN)]
 Deg. of freedom    15
 Full point group                 C1      NOp   1
 Rotational constants (GHZ):         160.2635398           1.2248367           1.2248303
 Leave Link  202 at Sun Oct 13 09:48:19 2024, MaxMem=  2684354560 cpu:               0.2 elap:               0.1
 (Enter /usr/local/g16_AVX//g16/l301.exe)
 Standard basis: 6-31++G(d,p) (6D, 7F)
 Ernie: Thresh=  0.10000D-02 Tol=  0.10000D-05 Strict=F.
    98 basis functions,   176 primitive gaussians,    98 cartesian basis functions
    20 alpha electrons       20 beta electrons
       nuclear repulsion energy       108.4886819889 Hartrees.
 IExCor=  402 DFT=T Ex+Corr=B3LYP ExCW=0 ScaHFX=  0.200000
 ScaDFX=  0.800000  0.720000  1.000000  0.810000 ScalE2=  1.000000  1.000000
 IRadAn=      5 IRanWt=     -1 IRanGd=            0 ICorTp=0 IEmpDi=  4
 NAtoms=    7 NActive=    7 NUniq=    7 SFac= 1.00D+00 NAtFMM=   60 NAOKFM=F Big=F
 Integral buffers will be    131072 words long.
 Raffenetti 2 integral format.
 Two-electron integral symmetry is turned off.
 Leave Link  301 at Sun Oct 13 09:48:20 2024, MaxMem=  2684354560 cpu:               1.3 elap:               0.1
 (Enter /usr/local/g16_AVX//g16/l302.exe)
 NPDir=0 NMtPBC=     1 NCelOv=     1 NCel=       1 NClECP=     1 NCelD=      1
         NCelK=      1 NCelE2=     1 NClLst=     1 CellRange=     0.0.
 One-electron integrals computed using PRISM.
 NBasis=    98 RedAO= T EigKep=  1.29D-05  NBF=    98
 NBsUse=    98 1.00D-06 EigRej= -1.00D+00 NBFU=    98
 Precomputing XC quadrature grid using
 IXCGrd= 4 IRadAn=           5 IRanWt=          -1 IRanGd=           0 AccXCQ= 0.00D+00.
 Generated NRdTot=       0 NPtTot=           0 NUsed=           0 NTot=          32
 NSgBfM=    98    98    98    98    98 MxSgAt=     7 MxSgA2=     7.
 Leave Link  302 at Sun Oct 13 09:48:20 2024, MaxMem=  2684354560 cpu:               3.9 elap:               0.2
 (Enter /usr/local/g16_AVX//g16/l303.exe)
 DipDrv:  MaxL=1.
 Leave Link  303 at Sun Oct 13 09:48:20 2024, MaxMem=  2684354560 cpu:               0.8 elap:               0.1
 (Enter /usr/local/g16_AVX//g16/l401.exe)
 ExpMin= 3.60D-02 ExpMax= 2.52D+04 ExpMxC= 3.78D+03 IAcc=3 IRadAn=         5 AccDes= 0.00D+00
 Harris functional with IExCor=  402 and IRadAn=       5 diagonalized for initial guess.
 HarFok:  IExCor=  402 AccDes= 0.00D+00 IRadAn=         5 IDoV= 1 UseB2=F ITyADJ=14
 ICtDFT=  3500011 ScaDFX=  1.000000  1.000000  1.000000  1.000000
 FoFCou: FMM=F IPFlag=           0 FMFlag=      100000 FMFlg1=           0
         NFxFlg=           0 DoJE=T BraDBF=F KetDBF=T FulRan=T
         wScrn=  0.000000 ICntrl=       500 IOpCl=  0 I1Cent=   200000004 NGrid=           0
         NMat0=    1 NMatS0=      1 NMatT0=    0 NMatD0=    1 NMtDS0=    0 NMtDT0=    0
 Symmetry not used in FoFCou.
 Harris En= -593.113026500875    
 JPrj=0 DoOrth=F DoCkMO=F.
 Leave Link  401 at Sun Oct 13 09:48:20 2024, MaxMem=  2684354560 cpu:               5.8 elap:               0.3
 (Enter /usr/local/g16_AVX//g16/l502.exe)
 Keep R1 ints in memory in canonical form, NReq=35752935.
 FoFCou: FMM=F IPFlag=           0 FMFlag=           0 FMFlg1=           0
         NFxFlg=           0 DoJE=F BraDBF=F KetDBF=F FulRan=T
         wScrn=  0.000000 ICntrl=       600 IOpCl=  0 I1Cent=           0 NGrid=           0
         NMat0=    1 NMatS0=   4851 NMatT0=    0 NMatD0=    1 NMtDS0=    0 NMtDT0=    0
 Symmetry not used in FoFCou.
 Two-electron integral symmetry not used.
 Closed shell SCF:
 Using DIIS extrapolation, IDIIS=  1040.
 NGot=  2684354560 LenX=  2672563405 LenY=  2672553360
 Requested convergence on RMS density matrix=1.00D-08 within 128 cycles.
 Requested convergence on MAX density matrix=1.00D-06.
 Requested convergence on             energy=1.00D-06.
 No special actions if energy rises.

 Cycle   1  Pass 1  IDiag  1:
 E= -592.948307585381    
 DIIS: error= 2.84D-02 at cycle   1 NSaved=   1.
 NSaved= 1 IEnMin= 1 EnMin= -592.948307585381     IErMin= 1 ErrMin= 2.84D-02
 ErrMax= 2.84D-02  0.00D+00 EMaxC= 1.00D-01 BMatC= 1.05D-01 BMatP= 1.05D-01
 IDIUse=3 WtCom= 7.16D-01 WtEn= 2.84D-01
 Coeff-Com:  0.100D+01
 Coeff-En:   0.100D+01
 Coeff:      0.100D+01
 Gap=     0.175 Goal=   None    Shift=    0.000
 GapD=    0.175 DampG=1.000 DampE=0.500 DampFc=0.5000 IDamp=-1.
 Damping current iteration by 5.00D-01
 RMSDP=1.25D-02 MaxDP=2.76D-01              OVMax= 1.71D-01

 Cycle   2  Pass 1  IDiag  1:
 E= -592.989909503616     Delta-E=       -0.041601918235 Rises=F Damp=T
 DIIS: error= 1.48D-02 at cycle   2 NSaved=   2.
 NSaved= 2 IEnMin= 2 EnMin= -592.989909503616     IErMin= 2 ErrMin= 1.48D-02
 ErrMax= 1.48D-02  0.00D+00 EMaxC= 1.00D-01 BMatC= 1.36D-02 BMatP= 1.05D-01
 IDIUse=3 WtCom= 8.52D-01 WtEn= 1.48D-01
 Coeff-Com:  0.145D+00 0.855D+00
 Coeff-En:   0.220D+00 0.780D+00
 Coeff:      0.156D+00 0.844D+00
 Gap=     0.151 Goal=   None    Shift=    0.000
 RMSDP=5.24D-03 MaxDP=1.67D-01 DE=-4.16D-02 OVMax= 1.37D-01

 Cycle   3  Pass 1  IDiag  1:
 E= -593.041036626813     Delta-E=       -0.051127123197 Rises=F Damp=F
 DIIS: error= 1.34D-02 at cycle   3 NSaved=   3.
 NSaved= 3 IEnMin= 3 EnMin= -593.041036626813     IErMin= 3 ErrMin= 1.34D-02
 ErrMax= 1.34D-02  0.00D+00 EMaxC= 1.00D-01 BMatC= 1.93D-02 BMatP= 1.36D-02
 IDIUse=2 WtCom= 0.00D+00 WtEn= 1.00D+00
 Coeff-En:   0.000D+00 0.000D+00 0.100D+01
 Coeff:      0.000D+00 0.000D+00 0.100D+01
 Gap=     0.161 Goal=   None    Shift=    0.000
 RMSDP=7.70D-03 MaxDP=2.80D-01 DE=-5.11D-02 OVMax= 1.63D-01

 Cycle   4  Pass 1  IDiag  1:
 E= -592.946690882086     Delta-E=        0.094345744727 Rises=F Damp=F
 DIIS: error= 3.01D-02 at cycle   4 NSaved=   4.
 NSaved= 4 IEnMin= 3 EnMin= -593.041036626813     IErMin= 3 ErrMin= 1.34D-02
 ErrMax= 3.01D-02  0.00D+00 EMaxC= 1.00D-01 BMatC= 1.25D-01 BMatP= 1.36D-02
 IDIUse=2 WtCom= 0.00D+00 WtEn= 1.00D+00
 Coeff-En:   0.000D+00 0.000D+00 0.803D+00 0.197D+00
 Coeff:      0.000D+00 0.000D+00 0.803D+00 0.197D+00
 Gap=     0.157 Goal=   None    Shift=    0.000
 RMSDP=3.73D-03 MaxDP=1.35D-01 DE= 9.43D-02 OVMax= 8.28D-02

 Cycle   5  Pass 1  IDiag  1:
 E= -593.049230720857     Delta-E=       -0.102539838770 Rises=F Damp=F
 DIIS: error= 8.99D-03 at cycle   5 NSaved=   5.
 NSaved= 5 IEnMin= 5 EnMin= -593.049230720857     IErMin= 5 ErrMin= 8.99D-03
 ErrMax= 8.99D-03  0.00D+00 EMaxC= 1.00D-01 BMatC= 1.06D-02 BMatP= 1.36D-02
 IDIUse=3 WtCom= 9.10D-01 WtEn= 8.99D-02
 Coeff-Com: -0.853D-03 0.185D-01 0.321D+00-0.102D+00 0.764D+00
 Coeff-En:   0.000D+00 0.000D+00 0.390D+00 0.000D+00 0.610D+00
 Coeff:     -0.776D-03 0.169D-01 0.327D+00-0.931D-01 0.750D+00
 Gap=     0.159 Goal=   None    Shift=    0.000
 RMSDP=1.57D-03 MaxDP=5.55D-02 DE=-1.03D-01 OVMax= 3.29D-02

 Cycle   6  Pass 1  IDiag  1:
 E= -593.058741084021     Delta-E=       -0.009510363165 Rises=F Damp=F
 DIIS: error= 1.47D-04 at cycle   6 NSaved=   6.
 NSaved= 6 IEnMin= 6 EnMin= -593.058741084021     IErMin= 6 ErrMin= 1.47D-04
 ErrMax= 1.47D-04  0.00D+00 EMaxC= 1.00D-01 BMatC= 4.44D-06 BMatP= 1.06D-02
 IDIUse=3 WtCom= 9.99D-01 WtEn= 1.47D-03
 Coeff-Com: -0.152D-02 0.728D-02 0.119D+00-0.496D-01 0.324D+00 0.601D+00
 Coeff-En:   0.000D+00 0.000D+00 0.000D+00 0.000D+00 0.000D+00 0.100D+01
 Coeff:     -0.152D-02 0.727D-02 0.118D+00-0.495D-01 0.324D+00 0.601D+00
 Gap=     0.157 Goal=   None    Shift=    0.000
 RMSDP=4.12D-05 MaxDP=7.39D-04 DE=-9.51D-03 OVMax= 6.46D-04

 Cycle   7  Pass 1  IDiag  1:
 E= -593.058745204855     Delta-E=       -0.000004120834 Rises=F Damp=F
 DIIS: error= 6.59D-05 at cycle   7 NSaved=   7.
 NSaved= 7 IEnMin= 7 EnMin= -593.058745204855     IErMin= 7 ErrMin= 6.59D-05
 ErrMax= 6.59D-05  0.00D+00 EMaxC= 1.00D-01 BMatC= 5.19D-07 BMatP= 4.44D-06
 IDIUse=1 WtCom= 1.00D+00 WtEn= 0.00D+00
 Coeff-Com: -0.194D-03 0.748D-03 0.181D-01-0.950D-02 0.525D-01 0.189D+00
 Coeff-Com:  0.749D+00
 Coeff:     -0.194D-03 0.748D-03 0.181D-01-0.950D-02 0.525D-01 0.189D+00
 Coeff:      0.749D+00
 Gap=     0.157 Goal=   None    Shift=    0.000
 RMSDP=9.60D-06 MaxDP=2.07D-04 DE=-4.12D-06 OVMax= 2.47D-04

 Cycle   8  Pass 1  IDiag  1:
 E= -593.058745702441     Delta-E=       -0.000000497586 Rises=F Damp=F
 DIIS: error= 1.06D-05 at cycle   8 NSaved=   8.
 NSaved= 8 IEnMin= 8 EnMin= -593.058745702441     IErMin= 8 ErrMin= 1.06D-05
 ErrMax= 1.06D-05  0.00D+00 EMaxC= 1.00D-01 BMatC= 1.17D-08 BMatP= 5.19D-07
 IDIUse=1 WtCom= 1.00D+00 WtEn= 0.00D+00
 Coeff-Com:  0.437D-04-0.147D-03 0.399D-02-0.195D-02 0.105D-01 0.508D-01
 Coeff-Com:  0.260D+00 0.677D+00
 Coeff:      0.437D-04-0.147D-03 0.399D-02-0.195D-02 0.105D-01 0.508D-01
 Coeff:      0.260D+00 0.677D+00
 Gap=     0.157 Goal=   None    Shift=    0.000
 RMSDP=4.49D-06 MaxDP=1.36D-04 DE=-4.98D-07 OVMax= 3.43D-05

 Cycle   9  Pass 1  IDiag  1:
 E= -593.058745715269     Delta-E=       -0.000000012828 Rises=F Damp=F
 DIIS: error= 2.45D-06 at cycle   9 NSaved=   9.
 NSaved= 9 IEnMin= 9 EnMin= -593.058745715269     IErMin= 9 ErrMin= 2.45D-06
 ErrMax= 2.45D-06  0.00D+00 EMaxC= 1.00D-01 BMatC= 7.26D-10 BMatP= 1.17D-08
 IDIUse=1 WtCom= 1.00D+00 WtEn= 0.00D+00
 Coeff-Com:  0.313D-04-0.715D-04-0.667D-03 0.111D-03-0.148D-02-0.551D-03
 Coeff-Com:  0.175D-01 0.215D+00 0.770D+00
 Coeff:      0.313D-04-0.715D-04-0.667D-03 0.111D-03-0.148D-02-0.551D-03
 Coeff:      0.175D-01 0.215D+00 0.770D+00
 Gap=     0.157 Goal=   None    Shift=    0.000
 RMSDP=1.41D-06 MaxDP=5.21D-05 DE=-1.28D-08 OVMax= 7.51D-06

 Cycle  10  Pass 1  IDiag  1:
 E= -593.058745716036     Delta-E=       -0.000000000767 Rises=F Damp=F
 DIIS: error= 2.66D-07 at cycle  10 NSaved=  10.
 NSaved=10 IEnMin=10 EnMin= -593.058745716036     IErMin=10 ErrMin= 2.66D-07
 ErrMax= 2.66D-07  0.00D+00 EMaxC= 1.00D-01 BMatC= 1.51D-11 BMatP= 7.26D-10
 IDIUse=1 WtCom= 1.00D+00 WtEn= 0.00D+00
 Coeff-Com:  0.654D-05-0.180D-04-0.125D-03 0.576D-04-0.338D-03-0.345D-03
 Coeff-Com: -0.263D-02 0.275D-01 0.149D+00 0.826D+00
 Coeff:      0.654D-05-0.180D-04-0.125D-03 0.576D-04-0.338D-03-0.345D-03
 Coeff:     -0.263D-02 0.275D-01 0.149D+00 0.826D+00
 Gap=     0.157 Goal=   None    Shift=    0.000
 RMSDP=7.92D-08 MaxDP=1.60D-06 DE=-7.67D-10 OVMax= 1.24D-06

 Cycle  11  Pass 1  IDiag  1:
 E= -593.058745716051     Delta-E=       -0.000000000015 Rises=F Damp=F
 DIIS: error= 6.43D-08 at cycle  11 NSaved=  11.
 NSaved=11 IEnMin=11 EnMin= -593.058745716051     IErMin=11 ErrMin= 6.43D-08
 ErrMax= 6.43D-08  0.00D+00 EMaxC= 1.00D-01 BMatC= 5.37D-13 BMatP= 1.51D-11
 IDIUse=1 WtCom= 1.00D+00 WtEn= 0.00D+00
 Coeff-Com: -0.544D-06 0.770D-06-0.159D-04 0.798D-05-0.343D-04-0.872D-04
 Coeff-Com: -0.123D-02-0.156D-02 0.519D-02 0.108D+00 0.890D+00
 Coeff:     -0.544D-06 0.770D-06-0.159D-04 0.798D-05-0.343D-04-0.872D-04
 Coeff:     -0.123D-02-0.156D-02 0.519D-02 0.108D+00 0.890D+00
 Gap=     0.157 Goal=   None    Shift=    0.000
 RMSDP=9.94D-08 MaxDP=3.79D-06 DE=-1.48D-11 OVMax= 2.06D-07

 Cycle  12  Pass 1  IDiag  1:
 E= -593.058745716051     Delta-E=       -0.000000000000 Rises=F Damp=F
 DIIS: error= 2.14D-08 at cycle  12 NSaved=  12.
 NSaved=12 IEnMin=12 EnMin= -593.058745716051     IErMin=12 ErrMin= 2.14D-08
 ErrMax= 2.14D-08  0.00D+00 EMaxC= 1.00D-01 BMatC= 1.48D-14 BMatP= 5.37D-13
 IDIUse=1 WtCom= 1.00D+00 WtEn= 0.00D+00
 Coeff-Com: -0.502D-06 0.106D-05-0.873D-06-0.130D-07 0.204D-05-0.137D-04
 Coeff-Com: -0.234D-03-0.125D-02-0.331D-02 0.396D-02 0.276D+00 0.725D+00
 Coeff:     -0.502D-06 0.106D-05-0.873D-06-0.130D-07 0.204D-05-0.137D-04
 Coeff:     -0.234D-03-0.125D-02-0.331D-02 0.396D-02 0.276D+00 0.725D+00
 Gap=     0.157 Goal=   None    Shift=    0.000
 RMSDP=2.00D-08 MaxDP=7.87D-07 DE=-1.14D-13 OVMax= 4.49D-08

 Cycle  13  Pass 1  IDiag  1:
 E= -593.058745716052     Delta-E=       -0.000000000001 Rises=F Damp=F
 DIIS: error= 1.07D-09 at cycle  13 NSaved=  13.
 NSaved=13 IEnMin=13 EnMin= -593.058745716052     IErMin=13 ErrMin= 1.07D-09
 ErrMax= 1.07D-09  0.00D+00 EMaxC= 1.00D-01 BMatC= 1.96D-16 BMatP= 1.48D-14
 IDIUse=1 WtCom= 1.00D+00 WtEn= 0.00D+00
 Coeff-Com: -0.990D-08 0.121D-07 0.323D-06-0.734D-07 0.505D-06-0.248D-05
 Coeff-Com:  0.132D-04-0.139D-04-0.299D-03 0.414D-03-0.124D-01 0.730D-02
 Coeff-Com:  0.101D+01
 Coeff:     -0.990D-08 0.121D-07 0.323D-06-0.734D-07 0.505D-06-0.248D-05
 Coeff:      0.132D-04-0.139D-04-0.299D-03 0.414D-03-0.124D-01 0.730D-02
 Coeff:      0.101D+01
 Gap=     0.157 Goal=   None    Shift=    0.000
 RMSDP=1.57D-09 MaxDP=4.96D-08 DE=-9.09D-13 OVMax= 7.83D-09

 SCF Done:  E(RB3LYP) =  -593.058745716     A.U. after   13 cycles
            NFock= 13  Conv=0.16D-08     -V/T= 2.0046
 KE= 5.903314549058D+02 PE=-1.627347875607D+03 EE= 3.354689929958D+02
 Leave Link  502 at Sun Oct 13 09:48:22 2024, MaxMem=  2684354560 cpu:              38.8 elap:               1.8
 (Enter /usr/local/g16_AVX//g16/l801.exe)
 DoSCS=F DFT=T ScalE2(SS,OS)=  1.000000  1.000000
 Range of M.O.s used for correlation:     1    98
 NBasis=    98 NAE=    20 NBE=    20 NFC=     0 NFV=     0
 NROrb=     98 NOA=    20 NOB=    20 NVA=    78 NVB=    78

 **** Warning!!: The largest alpha MO coefficient is  0.13901702D+03

 Leave Link  801 at Sun Oct 13 09:48:22 2024, MaxMem=  2684354560 cpu:               0.6 elap:               0.1
 (Enter /usr/local/g16_AVX//g16/l1101.exe)
 Using compressed storage, NAtomX=     7.
 Will process      8 centers per pass.
 Leave Link 1101 at Sun Oct 13 09:48:22 2024, MaxMem=  2684354560 cpu:               3.6 elap:               0.2
 (Enter /usr/local/g16_AVX//g16/l1102.exe)
 Symmetrizing basis deriv contribution to polar:
 IMax=3 JMax=2 DiffMx= 0.00D+00
 Leave Link 1102 at Sun Oct 13 09:48:22 2024, MaxMem=  2684354560 cpu:               0.7 elap:               0.1
 (Enter /usr/local/g16_AVX//g16/l1110.exe)
 Forming Gx(P) for the SCF density, NAtomX=     7.
 Integral derivatives from FoFJK, PRISM(SPDF).
 Do as many integral derivatives as possible in FoFJK.
 G2DrvN: MDV=    2684353864.
 G2DrvN: will do     8 centers at a time, making    1 passes.
 Calling FoFCou, ICntrl=  3107 FMM=F I1Cent=   0 AccDes= 0.00D+00.
 FoFJK:  IHMeth= 1 ICntrl=    3107 DoSepK=F KAlg= 0 I1Cent=           0 FoldK=F
 IRaf=         0 NMat=       1 IRICut=       1 DoRegI=T DoRafI=F ISym2E= 0 IDoP0=0 IntGTp=1.
 FoFCou: FMM=F IPFlag=           0 FMFlag=      100000 FMFlg1=           0
         NFxFlg=           0 DoJE=F BraDBF=F KetDBF=F FulRan=T
         wScrn=  0.000000 ICntrl=      3107 IOpCl=  0 I1Cent=           0 NGrid=           0
         NMat0=    1 NMatS0=      1 NMatT0=    0 NMatD0=    1 NMtDS0=    0 NMtDT0=    0
 Symmetry not used in FoFCou.
 End of G2Drv F.D. properties file   721 does not exist.
 End of G2Drv F.D. properties file   722 does not exist.
 End of G2Drv F.D. properties file   788 does not exist.
 Leave Link 1110 at Sun Oct 13 09:48:24 2024, MaxMem=  2684354560 cpu:              40.1 elap:               1.6
 (Enter /usr/local/g16_AVX//g16/l1002.exe)
 Minotr:  Closed shell wavefunction.
          IDoAtm=1111111
          Direct CPHF calculation.
          Differentiating once with respect to electric field.
                with respect to dipole field.
          Differentiating once with respect to nuclear coordinates.
          Requested convergence is 1.0D-08 RMS, and 1.0D-07 maximum.
          Secondary convergence is 1.0D-12 RMS, and 1.0D-12 maximum.
          NewPWx=T KeepS1=F KeepF1=F KeepIn=T MapXYZ=F SortEE=F KeepMc=T.
         2136 words used for storage of precomputed grid.
 Keep R1 ints in memory in canonical form, NReq=35668397.
 FoFCou: FMM=F IPFlag=           0 FMFlag=           0 FMFlg1=           0
         NFxFlg=           0 DoJE=F BraDBF=F KetDBF=F FulRan=T
         wScrn=  0.000000 ICntrl=       600 IOpCl=  0 I1Cent=           0 NGrid=           0
         NMat0=    1 NMatS0=   4851 NMatT0=    0 NMatD0=    1 NMtDS0=    0 NMtDT0=    0
 Symmetry not used in FoFCou.
 Two-electron integral symmetry not used.
          MDV=    2684354560 using IRadAn=       1.
          Solving linear equations simultaneously, MaxMat=       0.
          There are    24 degrees of freedom in the 1st order CPHF.  IDoFFX=6 NUNeed=     3.
     21 vectors produced by pass  0 Test12= 6.50D-15 4.17D-09 XBig12= 6.93D+01 3.11D+00.
 AX will form    21 AO Fock derivatives at one time.
     21 vectors produced by pass  1 Test12= 6.50D-15 4.17D-09 XBig12= 4.73D+01 2.40D+00.
     21 vectors produced by pass  2 Test12= 6.50D-15 4.17D-09 XBig12= 1.45D+00 2.97D-01.
     21 vectors produced by pass  3 Test12= 6.50D-15 4.17D-09 XBig12= 1.04D-02 2.20D-02.
     21 vectors produced by pass  4 Test12= 6.50D-15 4.17D-09 XBig12= 1.50D-05 8.65D-04.
     19 vectors produced by pass  5 Test12= 6.50D-15 4.17D-09 XBig12= 1.51D-08 2.23D-05.
      5 vectors produced by pass  6 Test12= 6.50D-15 4.17D-09 XBig12= 2.24D-11 9.45D-07.
      1 vectors produced by pass  7 Test12= 6.50D-15 4.17D-09 XBig12= 3.67D-14 6.33D-08.
 InvSVY:  IOpt=1 It=  1 EMax= 3.55D-15
 Solved reduced A of dimension   130 with    24 vectors.
 FullF1:  Do perturbations      1 to       3.
 Isotropic polarizability for W=    0.000000       54.04 Bohr**3.
 End of Minotr F.D. properties file   721 does not exist.
 End of Minotr F.D. properties file   722 does not exist.
 End of Minotr F.D. properties file   788 does not exist.
 Leave Link 1002 at Sun Oct 13 09:48:26 2024, MaxMem=  2684354560 cpu:              56.7 elap:               2.3
 (Enter /usr/local/g16_AVX//g16/l601.exe)
 Copying SCF densities to generalized density rwf, IOpCl= 0 IROHF=0.

 **********************************************************************

            Population analysis using the SCF Density.

 **********************************************************************

 Alpha  occ. eigenvalues -- -101.25506 -14.22281 -10.11947 -10.08805  -9.16880
 Alpha  occ. eigenvalues --   -6.92667  -6.92667  -6.92635  -0.79338  -0.63797
 Alpha  occ. eigenvalues --   -0.50853  -0.37511  -0.32130  -0.32069  -0.25416
 Alpha  occ. eigenvalues --   -0.21185  -0.21174  -0.05416  -0.05416  -0.05382
 Alpha virt. eigenvalues --    0.10363   0.13969   0.13983   0.14473   0.15144
 Alpha virt. eigenvalues --    0.15150   0.20073   0.20806   0.20811   0.21932
 Alpha virt. eigenvalues --    0.23500   0.23511   0.25642   0.26058   0.26060
 Alpha virt. eigenvalues --    0.29998   0.33028   0.33982   0.33989   0.34909
 Alpha virt. eigenvalues --    0.34950   0.36201   0.39500   0.41571   0.48859
 Alpha virt. eigenvalues --    0.69104   0.79121   0.79123   0.84716   0.84738
 Alpha virt. eigenvalues --    0.85543   0.85566   0.86222   0.90066   0.98409
 Alpha virt. eigenvalues --    1.02790   1.02867   1.04116   1.09887   1.12549
 Alpha virt. eigenvalues --    1.12550   1.15282   1.15283   1.16180   1.16185
 Alpha virt. eigenvalues --    1.22649   1.27513   1.29893   1.45958   1.45986
 Alpha virt. eigenvalues --    1.54620   1.63100   1.63106   1.86927   1.86991
 Alpha virt. eigenvalues --    1.92353   2.05851   2.05858   2.15549   2.24470
 Alpha virt. eigenvalues --    2.24756   2.32995   2.40379   2.40478   2.80478
 Alpha virt. eigenvalues --    2.80857   2.81067   3.06610   3.09947   3.10117
 Alpha virt. eigenvalues --    3.29340   3.46423   3.56005   3.56289   4.26404
 Alpha virt. eigenvalues --    4.45575   4.58762   4.81844
          Condensed to atoms (all electrons):
               1          2          3          4          5          6
     1  C    6.070239  -0.140977   0.421317   0.422172   0.423227  -1.147538
     2  Cl  -0.140977  17.946560  -0.010267  -0.010214  -0.010064   0.135661
     3  H    0.421317  -0.010267   0.485385  -0.024181  -0.024375  -0.061636
     4  H    0.422172  -0.010214  -0.024181   0.485554  -0.024434  -0.062498
     5  H    0.423227  -0.010064  -0.024375  -0.024434   0.485224  -0.063327
     6  C   -1.147538   0.135661  -0.061636  -0.062498  -0.063327   6.918457
     7  N   -0.073217   0.001846  -0.005490  -0.005542  -0.005567   0.462420
               7
     1  C   -0.073217
     2  Cl   0.001846
     3  H   -0.005490
     4  H   -0.005542
     5  H   -0.005567
     6  C    0.462420
     7  N    7.213949
 Mulliken charges:
               1
     1  C    0.024778
     2  Cl  -0.912545
     3  H    0.219247
     4  H    0.219142
     5  H    0.219315
     6  C   -0.181538
     7  N   -0.588398
 Sum of Mulliken charges =  -1.00000
 Mulliken charges with hydrogens summed into heavy atoms:
               1
     1  C    0.682482
     2  Cl  -0.912545
     6  C   -0.181538
     7  N   -0.588398
 APT charges:
               1
     1  C   -0.003859
     2  Cl  -0.979476
     3  H    0.087155
     4  H    0.087231
     5  H    0.087986
     6  C    0.224795
     7  N   -0.503832
 Sum of APT charges =  -1.00000
 APT charges with hydrogens summed into heavy atoms:
               1
     1  C    0.258513
     2  Cl  -0.979476
     6  C    0.224795
     7  N   -0.503832
 Electronic spatial extent (au):  <R**2>=            852.1900
 Charge=             -1.0000 electrons
 Dipole moment (field-independent basis, Debye):
    X=              5.4729    Y=             -0.0006    Z=              0.0009  Tot=              5.4729
 Quadrupole moment (field-independent basis, Debye-Ang):
   XX=            -85.4254   YY=            -35.3874   ZZ=            -35.3868
   XY=              0.0023   XZ=              0.0004   YZ=              0.0010
 Traceless Quadrupole moment (field-independent basis, Debye-Ang):
   XX=            -33.3589   YY=             16.6791   ZZ=             16.6798
   XY=              0.0023   XZ=              0.0004   YZ=              0.0010
 Octapole moment (field-independent basis, Debye-Ang**2):
  XXX=            -15.1484  YYY=             -0.0019  ZZZ=             -0.8516  XYY=              3.9084
  XXY=              0.0027  XXZ=              0.0006  XZZ=              3.9124  YZZ=              0.0074
  YYZ=              0.8454  XYZ=              0.0026
 Hexadecapole moment (field-independent basis, Debye-Ang**3):
 XXXX=          -1683.8395 YYYY=            -57.8041 ZZZZ=            -57.7853 XXXY=             -0.0234
 XXXZ=              0.0811 YYYX=             -0.0096 YYYZ=              0.0024 ZZZX=             -0.1759
 ZZZY=              0.0049 XXYY=           -214.9016 XXZZ=           -214.8954 YYZZ=            -19.2614
 XXYZ=              0.0024 YYXZ=              0.2293 ZZXY=             -0.0012
 N-N= 1.084886819889D+02 E-N=-1.627347875356D+03  KE= 5.903314549058D+02
  Exact polarizability:  79.383   0.009  41.378  -0.014  -0.006  41.360
 Approx polarizability:  98.271   0.015  50.221  -0.016  -0.009  50.192
 No NMR shielding tensors so no spin-rotation constants.
 Leave Link  601 at Sun Oct 13 09:48:27 2024, MaxMem=  2684354560 cpu:               2.7 elap:               0.1
 (Enter /usr/local/g16_AVX//g16/l701.exe)
 ... and contract with generalized density number  0.
 Compute integral second derivatives.
 Leave Link  701 at Sun Oct 13 09:48:27 2024, MaxMem=  2684354560 cpu:               4.7 elap:               0.2
 (Enter /usr/local/g16_AVX//g16/l702.exe)
 L702 exits ... SP integral derivatives will be done elsewhere.
 Leave Link  702 at Sun Oct 13 09:48:27 2024, MaxMem=  2684354560 cpu:               0.6 elap:               0.1
 (Enter /usr/local/g16_AVX//g16/l703.exe)
 Integral derivatives from FoFJK, PRISM(SPDF).
 Compute integral second derivatives, UseDBF=F ICtDFT=           0.
 Calling FoFJK, ICntrl=    100127 FMM=F ISym2X=0 I1Cent= 0 IOpClX= 0 NMat=1 NMatS=1 NMatT=0.
 FoFJK:  IHMeth= 1 ICntrl=  100127 DoSepK=F KAlg= 0 I1Cent=           0 FoldK=F
 IRaf=         0 NMat=       1 IRICut=       1 DoRegI=T DoRafI=F ISym2E= 0 IDoP0=0 IntGTp=1.
 FoFCou: FMM=F IPFlag=           0 FMFlag=      100000 FMFlg1=         800
         NFxFlg=           0 DoJE=F BraDBF=F KetDBF=F FulRan=T
         wScrn=  0.000000 ICntrl=    100127 IOpCl=  0 I1Cent=           0 NGrid=           0
         NMat0=    1 NMatS0=      1 NMatT0=    0 NMatD0=    1 NMtDS0=    0 NMtDT0=    0
 Symmetry not used in FoFCou.
 Leave Link  703 at Sun Oct 13 09:48:30 2024, MaxMem=  2684354560 cpu:              67.1 elap:               2.6
 (Enter /usr/local/g16_AVX//g16/l716.exe)
 Dipole        = 2.15321834D+00-2.17643642D-04 3.67666626D-04
 Polarizability= 7.93833897D+01 9.26073507D-03 4.13776774D+01
                -1.39980201D-02-6.22723287D-03 4.13601020D+01
 Full mass-weighted force constant matrix:
 Low frequencies ---  -73.8586  -70.6555  -33.8455  -33.8238   -0.0041    0.0017
 Low frequencies ---    0.0023  117.0122  159.7724
 ******    2 imaginary frequencies (negative Signs) ****** 
 Diagonal vibrational polarizability:
       22.3692447     124.0112425     115.5498021
 Harmonic frequencies (cm**-1), IR intensities (KM/Mole), Raman scattering
 activities (A**4/AMU), depolarization ratios for plane and unpolarized
 incident light, reduced masses (AMU), force constants (mDyne/A),
 and normal coordinates:
                      1                      2                      3
                      A                      A                      A
 Frequencies --    -71.3437               -68.5635               159.7724
 Red. masses --      3.6784                 3.7121                12.4449
 Frc consts  --      0.0110                 0.0103                 0.1872
 IR Inten    --     21.6422                21.7119                19.9424
  Atom  AN      X      Y      Z        X      Y      Z        X      Y      Z
     1   6     0.00   0.10   0.37    -0.00   0.37  -0.10    -0.36   0.00   0.00
     2  17    -0.00  -0.02  -0.08    -0.00  -0.08   0.02     0.44  -0.00  -0.00
     3   1    -0.26   0.12   0.47     0.07   0.45  -0.13    -0.36   0.00   0.00
     4   1     0.19   0.13   0.46     0.18   0.46  -0.12    -0.36  -0.00  -0.00
     5   1     0.07   0.12   0.45    -0.25   0.46  -0.13    -0.36   0.00  -0.00
     6   6    -0.00   0.01   0.04     0.00   0.04  -0.01    -0.38   0.00  -0.00
     7   7     0.00  -0.06  -0.24     0.00  -0.24   0.07    -0.38  -0.00   0.00
                      4                      5                      6
                      A                      A                      A
 Frequencies --    372.5337               375.4419               932.8764
 Red. masses --      3.4335                 3.4353                 4.8341
 Frc consts  --      0.2808                 0.2853                 2.4787
 IR Inten    --      1.1835                 1.1166                12.8266
  Atom  AN      X      Y      Z        X      Y      Z        X      Y      Z
     1   6    -0.00  -0.02  -0.06     0.00  -0.06   0.02     0.45   0.00  -0.00
     2  17     0.00   0.00   0.00    -0.00   0.00  -0.00    -0.00   0.00  -0.00
     3   1     0.57  -0.08  -0.29    -0.16  -0.28   0.08     0.47  -0.00  -0.01
     4   1    -0.43  -0.09  -0.28    -0.41  -0.28   0.07     0.47   0.01   0.01
     5   1    -0.14  -0.07  -0.28     0.57  -0.29   0.09     0.48  -0.01   0.00
     6   6    -0.00   0.11   0.38     0.00   0.38  -0.11    -0.20  -0.00   0.00
     7   7     0.00  -0.06  -0.21     0.00  -0.21   0.06    -0.30   0.00  -0.00
                      7                      8                      9
                      A                      A                      A
 Frequencies --   1017.3502              1018.0963              1348.4764
 Red. masses --      1.5079                 1.5037                 1.2132
 Frc consts  --      0.9195                 0.9183                 1.2998
 IR Inten    --      1.5640                 1.6217                45.2008
  Atom  AN      X      Y      Z        X      Y      Z        X      Y      Z
     1   6    -0.00   0.02   0.16    -0.00   0.16  -0.02    -0.14   0.00  -0.00
     2  17    -0.00  -0.00  -0.00     0.00  -0.00   0.00     0.00   0.00  -0.00
     3   1     0.72  -0.03  -0.12    -0.08  -0.33   0.01     0.52  -0.00  -0.23
     4   1    -0.42   0.07  -0.26    -0.58  -0.18   0.12     0.52   0.20   0.12
     5   1    -0.29  -0.11  -0.28     0.65  -0.16  -0.06     0.52  -0.20   0.12
     6   6    -0.00  -0.01  -0.13     0.00  -0.13   0.01     0.00  -0.00   0.00
     7   7    -0.00   0.00   0.02     0.00   0.02  -0.00     0.00  -0.00   0.00
                     10                     11                     12
                      A                      A                      A
 Frequencies --   1439.3647              1441.9843              2353.1605
 Red. masses --      1.0399                 1.0404                12.4925
 Frc consts  --      1.2694                 1.2746                40.7571
 IR Inten    --     12.0937                12.3198                56.0107
  Atom  AN      X      Y      Z        X      Y      Z        X      Y      Z
     1   6    -0.00  -0.05   0.02     0.00  -0.02  -0.05    -0.09   0.00   0.00
     2  17     0.00  -0.00   0.00     0.00  -0.00  -0.00     0.00  -0.00   0.00
     3   1    -0.11   0.68   0.05     0.33   0.23  -0.15    -0.07  -0.00   0.02
     4   1    -0.23   0.18  -0.52    -0.27  -0.34   0.35    -0.07  -0.02  -0.01
     5   1     0.35  -0.07   0.20    -0.07   0.38   0.59    -0.07   0.02  -0.01
     6   6     0.00  -0.02   0.01    -0.00  -0.01  -0.02     0.79  -0.00   0.00
     7   7     0.00   0.00  -0.00    -0.00   0.00   0.00    -0.59   0.00  -0.00
                     13                     14                     15
                      A                      A                      A
 Frequencies --   3092.2962              3169.4331              3187.3227
 Red. masses --      1.0350                 1.1019                 1.1028
 Frc consts  --      5.8311                 6.5214                 6.6006
 IR Inten    --      2.6232                 0.3527                 0.3804
  Atom  AN      X      Y      Z        X      Y      Z        X      Y      Z
     1   6    -0.05  -0.01   0.01     0.01  -0.09   0.02    -0.00  -0.02  -0.09
     2  17    -0.00   0.00  -0.00     0.00   0.00  -0.00    -0.00   0.00   0.00
     3   1     0.16  -0.00   0.46    -0.10  -0.02  -0.26     0.29  -0.01   0.78
     4   1     0.18  -0.45  -0.26    -0.23   0.51   0.32    -0.19   0.43   0.23
     5   1     0.23   0.56  -0.32     0.25   0.57  -0.33    -0.06  -0.14   0.05
     6   6    -0.00   0.00  -0.00     0.00   0.00  -0.00    -0.00   0.00   0.00
     7   7     0.00  -0.00   0.00    -0.00  -0.00   0.00     0.00  -0.00  -0.00

 -------------------
 - Thermochemistry -
 -------------------
 Temperature   298.150 Kelvin.  Pressure   1.00000 Atm.
 Atom     1 has atomic number  6 and mass  12.00000
 Atom     2 has atomic number 17 and mass  34.96885
 Atom     3 has atomic number  1 and mass   1.00783
 Atom     4 has atomic number  1 and mass   1.00783
 Atom     5 has atomic number  1 and mass   1.00783
 Atom     6 has atomic number  6 and mass  12.00000
 Atom     7 has atomic number  7 and mass  14.00307
 Molecular mass:    75.99540 amu.
 Principal axes and moments of inertia in atomic units:
                           1         2         3
     Eigenvalues --    11.261081473.454511473.46221
           X            1.00000  -0.00002   0.00007
           Y            0.00001   0.99349   0.11393
           Z           -0.00007  -0.11393   0.99349
 This molecule is an asymmetric top.
 Rotational symmetry number  1.
 Rotational temperatures (Kelvin)      7.69144     0.05878     0.05878
 Rotational constants (GHZ):         160.26354     1.22484     1.22483
    2 imaginary frequencies ignored.
 Zero-point vibrational energy     119076.9 (Joules/Mol)
                                   28.46007 (Kcal/Mol)
 Warning -- explicit consideration of   3 degrees of freedom as
           vibrations may cause significant error
 Vibrational temperatures:    229.88   535.99   540.18  1342.20  1463.74
          (Kelvin)           1464.81  1940.16  2070.92  2074.69  3385.67
                             4449.12  4560.11  4585.85
 
 Zero-point correction=                           0.045354 (Hartree/Particle)
 Thermal correction to Energy=                    0.049623
 Thermal correction to Enthalpy=                  0.050567
 Thermal correction to Gibbs Free Energy=         0.017956
 Sum of electronic and zero-point Energies=           -593.013392
 Sum of electronic and thermal Energies=              -593.009123
 Sum of electronic and thermal Enthalpies=            -593.008179
 Sum of electronic and thermal Free Energies=         -593.040790
 
                     E (Thermal)             CV                S
                      KCal/Mol        Cal/Mol-Kelvin    Cal/Mol-Kelvin
 Total                   31.139             12.391             68.635
 Electronic               0.000              0.000              0.000
 Translational            0.889              2.981             38.900
 Rotational               0.889              2.981             24.706
 Vibrational             29.361              6.429              5.029
 Vibration     1          0.622              1.892              2.552
 Vibration     2          0.744              1.529              1.069
 Vibration     3          0.746              1.522              1.057
                       Q            Log10(Q)             Ln(Q)
 Total Bot       0.550511D-08         -8.259234        -19.017589
 Total V=0       0.400077D+13         12.602143         29.017508
 Vib (Bot)       0.377709D-20        -20.422842        -47.025333
 Vib (Bot)    1  0.126542D+01          0.102235          0.235406
 Vib (Bot)    2  0.487857D+00         -0.311707         -0.717733
 Vib (Bot)    3  0.483109D+00         -0.315955         -0.727513
 Vib (V=0)       0.274495D+01          0.438535          1.009764
 Vib (V=0)    1  0.186062D+01          0.269658          0.620911
 Vib (V=0)    2  0.119857D+01          0.078665          0.181132
 Vib (V=0)    3  0.119527D+01          0.077464          0.178368
 Electronic      0.100000D+01          0.000000          0.000000
 Translational   0.260396D+08          7.415635         17.075130
 Rotational      0.559724D+05          4.747974         10.932613
 
                                                       RxCoord=-5.79353 DE=2.67
                                                             IR Spectrum
 
     33  3                             2                                  11   1           11                                        
     11  0                             3                                  44   3           00  9                     33       1      
     86  9                             5                                  43   4           11  3                     77       6      
     79  2                             3                                  29   8           87  3                     53       0      
 
     XX  X                             X                                  XX   X           XX  X                     XX       X      
                                       X                                  XX   X               X                              X      
                                       X                                  XX   X               X                              X      
                                       X                                  XX   X               X                              X      
                                       X                                       X               X                              X      
                                       X                                       X                                              X      
                                       X                                       X                                              X      
                                       X                                       X                                                     
                                       X                                       X                                                     
                                       X                                       X                                                     
                                       X                                       X                                                     
                                       X                                       X                                                     
                                       X                                       X                                                     
                                       X                                       X                                                     
                                       X                                       X                                                     
                                       X                                       X                                                     
                                       X                                                                                             
                                       X                                                                                             
                                       X                                                                                             
                                       X                                                                                             
 
 -------------------------------------------------------------------
 Center     Atomic                   Forces (Hartrees/Bohr)
 Number     Number              X              Y              Z
 -------------------------------------------------------------------
      1        6           0.004798421   -0.000903953    0.001272712
      2       17          -0.006006956   -0.000005194    0.000005538
      3        1          -0.003408298    0.000077358    0.000092571
      4        1          -0.003001682   -0.000754579   -0.000541502
      5        1          -0.002331466    0.001743003   -0.001014786
      6        6           0.003112420   -0.000184495    0.000244106
      7        7           0.006837561    0.000027860   -0.000058639
 -------------------------------------------------------------------
 Cartesian Forces:  Max     0.006837561 RMS     0.002664493
 Z-matrix is all fixed cartesians, so copy forces.
 Force constants in Cartesian coordinates: 
                1             2             3             4             5 
      1  0.488664D+00
      2 -0.881329D-03  0.556008D+00
      3  0.152654D-02  0.195298D-02  0.561399D+00
      4 -0.100077D-01  0.175388D-05  0.237747D-05  0.184439D-01
      5  0.152323D-04 -0.669232D-04  0.000000D+00 -0.334917D-05 -0.787489D-03
      6 -0.135939D-04  0.000000D+00 -0.676092D-04 -0.108959D-04  0.144751D-05
      7 -0.695118D-01  0.224966D-03 -0.924370D-01 -0.147461D-02  0.137636D-05
      8  0.248861D-03 -0.397341D-01  0.550967D-03  0.860553D-05 -0.112568D-02
      9 -0.910015D-01  0.492448D-03 -0.298182D+00 -0.141681D-02 -0.439611D-05
     10 -0.694131D-01  0.790065D-01  0.458683D-01 -0.148223D-02  0.775319D-03
     11  0.777554D-01 -0.231145D+00 -0.111124D+00  0.122772D-02  0.213879D-03
     12  0.450931D-01 -0.111024D+00 -0.104662D+00  0.710670D-03  0.776496D-03
     13 -0.696389D-01 -0.783849D-01  0.450192D-01 -0.148425D-02 -0.786557D-03
     14 -0.770840D-01 -0.229549D+00  0.108621D+00 -0.122648D-02  0.217054D-03
     15  0.442551D-01  0.108580D+00 -0.102938D+00  0.708289D-03 -0.771924D-03
     16 -0.258745D+00  0.149255D-04  0.629414D-04 -0.102419D-02 -0.548508D-05
     17 -0.604312D-04 -0.777460D-01 -0.695517D-05 -0.108565D-04  0.187641D-02
     18  0.107052D-03 -0.710314D-05 -0.778106D-01  0.862032D-05 -0.227894D-05
     19 -0.113474D-01  0.180731D-04 -0.422658D-04 -0.297095D-02  0.346399D-05
     20  0.627423D-05  0.222331D-01  0.565003D-05  0.260939D-05 -0.327248D-03
     21  0.333310D-04  0.567375D-05  0.222607D-01 -0.225022D-05  0.000000D+00
                6             7             8             9            10 
      6 -0.787205D-03
      7 -0.888415D-03  0.834332D-01
      8 -0.454316D-05 -0.213225D-03  0.422830D-01
      9  0.649148D-03  0.101118D+00 -0.593571D-03  0.317014D+00
     10  0.455467D-03  0.425914D-02 -0.938130D-02 -0.462678D-02  0.832668D-01
     11  0.776700D-03 -0.720666D-03  0.468681D-03  0.131052D-02 -0.864894D-01
     12 -0.665395D-03  0.104467D-01 -0.241058D-01 -0.128017D-01 -0.502759D-01
     13  0.456348D-03  0.426137D-02  0.932996D-02 -0.456315D-02  0.424895D-02
     14 -0.771980D-03  0.637875D-03  0.288979D-03 -0.118308D-02 -0.866288D-02
     15 -0.675757D-03  0.104450D-01  0.241493D-01 -0.127240D-01 -0.579948D-02
     16  0.537751D-05 -0.214470D-01  0.652169D-05 -0.290036D-02 -0.213830D-01
     17 -0.228610D-05  0.803386D-04 -0.335151D-02 -0.275600D-04  0.282400D-01
     18  0.187353D-02 -0.327284D-01  0.304349D-05  0.772264D-02  0.164027D-01
     19 -0.428721D-05  0.479796D-03  0.000000D+00  0.339026D-02  0.503386D-03
     20  0.000000D+00 -0.106650D-04  0.117064D-02  0.563015D-05 -0.348819D-02
     21 -0.326716D-03  0.404375D-02  0.000000D+00 -0.167796D-02 -0.202424D-02
               11            12            13            14            15 
     11  0.245940D+00
     12  0.118159D+00  0.111281D+00
     13  0.862457D-02 -0.573609D-02  0.833809D-01
     14 -0.194178D-01  0.126143D-01  0.858928D-01  0.244447D+00
     15 -0.126812D-01  0.696998D-02 -0.493566D-01 -0.115689D+00  0.109552D+00
     16  0.252702D-02  0.147285D-02 -0.213235D-01 -0.249362D-02  0.143717D-02
     17  0.489043D-02  0.481715D-02 -0.281449D-01  0.498473D-02 -0.481653D-02
     18  0.479144D-02 -0.570793D-03  0.161727D-01 -0.482130D-02 -0.647192D-03
     19 -0.292461D-02 -0.171124D-02  0.555548D-03  0.293633D-02 -0.168955D-02
     20 -0.950472D-03 -0.123696D-02  0.346904D-02 -0.970689D-03  0.122964D-02
     21 -0.123271D-02  0.448826D-03 -0.199240D-02  0.123037D-02  0.462506D-03
               16            17            18            19            20 
     16  0.156435D+01
     17 -0.134555D-03  0.107430D+00
     18  0.309257D-03  0.395627D-04  0.107524D+00
     19 -0.124042D+01  0.304252D-04 -0.271963D-03  0.125320D+01
     20  0.851884D-04 -0.380841D-01 -0.337069D-05 -0.642617D-04  0.169288D-01
     21 -0.387237D-03 -0.338173D-05 -0.380917D-01  0.329050D-03 -0.119048D-05
               21 
     21  0.169243D-01
 Leave Link  716 at Sun Oct 13 09:48:30 2024, MaxMem=  2684354560 cpu:               0.9 elap:               0.1
 (Enter /usr/local/g16_AVX//g16/l103.exe)

 GradGradGradGradGradGradGradGradGradGradGradGradGradGradGradGradGradGrad
 Berny optimization.
 Search for a local minimum.
 Step number   1 out of a maximum of    2
 All quantities printed in internal units (Hartrees-Bohrs-Radians)
 Second derivative matrix not updated -- analytic derivatives used.
 ITU=  0
     Eigenvalues ---   -0.00091  -0.00085   0.01811   0.02369   0.02398
     Eigenvalues ---    0.09504   0.09548   0.09698   0.16135   0.16168
     Eigenvalues ---    0.28234   0.65170   0.82091   0.83088   2.67424
 Eigenvalue     1 is  -9.09D-04 should be greater than     0.000000 Eigenvector:
                          Z3        Z4        Z5        Z7        Z1
   1                    0.43096   0.41646   0.41048  -0.34500   0.33067
                          Z2        X3        X4        Y4        Y3
   1                   -0.26579  -0.26493   0.19424   0.12385   0.10996
 Eigenvalue     2 is  -8.51D-04 should be greater than     0.000000 Eigenvector:
                          Y5        Y4        Y3        Y7        Y1
   1                    0.42745   0.42227   0.40890  -0.34707   0.33159
                          Y2        X5        X4        Z5        Z3
   1                   -0.26611  -0.26093   0.19141  -0.12135  -0.11604
 Quadratic step=3.126D-01 exceeds max=3.000D-01 adjusted using Lamda=-8.305D-04.
 Angle between NR and scaled steps=   1.11 degrees.
 Angle between quadratic step and forces=  45.42 degrees.
 Linear search not attempted -- first point.
 B after Tr=    -0.031767    0.000267   -0.000673
         Rot=    1.000000   -0.000000    0.000092    0.000062 Ang=   0.01 deg.
 Variable       Old X    -DE/DX   Delta X   Delta X   Delta X     New X
                                 (Linear)    (Quad)   (Total)
    X1        1.34939   0.00480   0.00000   0.09251   0.06074   1.41013
    Y1       -0.00005  -0.00090   0.00000  -0.00075  -0.00066  -0.00071
    Z1        0.00059   0.00127   0.00000   0.00191   0.00150   0.00209
    X2       -4.44101  -0.00601   0.00000  -0.22421  -0.25597  -4.69698
    Y2        0.00001  -0.00001   0.00000   0.00057   0.00142   0.00142
    Z2        0.00013   0.00001   0.00000  -0.00135  -0.00288  -0.00275
    X3        0.63039  -0.00341   0.00000   0.03948   0.00807   0.63846
    Y3        0.00389   0.00008   0.00000  -0.00033  -0.00014   0.00374
    Z3       -1.92709   0.00009   0.00000   0.01570   0.01515  -1.91194
    X4        0.62964  -0.00300   0.00000   0.04284   0.01110   0.64074
    Y4        1.66870  -0.00075   0.00000  -0.01373  -0.01354   1.65516
    Z4        0.97063  -0.00054   0.00000  -0.00615  -0.00670   0.96393
    X5        0.62370  -0.00233   0.00000   0.04991   0.01776   0.64146
    Y5       -1.67510   0.00174   0.00000   0.01357   0.01375  -1.66135
    Z5        0.96296  -0.00101   0.00000  -0.00631  -0.00686   0.95610
    X6        4.09434   0.00311   0.00000   0.10870   0.07694   4.17128
    Y6        0.00021  -0.00018   0.00000  -0.00029  -0.00055  -0.00034
    Z6       -0.00108   0.00024   0.00000   0.00096   0.00106  -0.00002
    X7        6.28960   0.00684   0.00000   0.11313   0.08136   6.37096
    Y7        0.00003   0.00003   0.00000   0.00026  -0.00027  -0.00024
    Z7       -0.00036  -0.00006   0.00000  -0.00178  -0.00127  -0.00163
         Item               Value     Threshold  Converged?
 Maximum Force            0.006838     0.000450     NO 
 RMS     Force            0.002664     0.000300     NO 
 Maximum Displacement     0.255972     0.001800     NO 
 RMS     Displacement     0.062855     0.001200     NO 
 Predicted change in Energy=-1.323256D-03
 GradGradGradGradGradGradGradGradGradGradGradGradGradGradGradGradGradGrad

 Leave Link  103 at Sun Oct 13 09:48:30 2024, MaxMem=  2684354560 cpu:               0.6 elap:               0.1
 (Enter /usr/local/g16_AVX//g16/l9999.exe)

 ----------------------------------------------------------------------

 Electric dipole moment (input orientation):
 (Debye = 10**-18 statcoulomb cm , SI units = C m)
                  (au)            (Debye)         (10**-30 SI)
   Tot        0.215322D+01      0.547293D+01      0.182557D+02
   x          0.215322D+01      0.547293D+01      0.182557D+02
   y         -0.217644D-03     -0.553195D-03     -0.184526D-02
   z          0.367667D-03      0.934515D-03      0.311721D-02

 Dipole polarizability, Alpha (input orientation).
 (esu units = cm**3 , SI units = C**2 m**2 J**-1)
 Alpha(0;0):
               (au)            (10**-24 esu)      (10**-40 SI)
   iso        0.540404D+02      0.800796D+01      0.891006D+01
   aniso      0.380145D+02      0.563317D+01      0.626775D+01
   xx         0.793834D+02      0.117634D+02      0.130886D+02
   yx         0.926074D-02      0.137230D-02      0.152689D-02
   yy         0.413777D+02      0.613154D+01      0.682226D+01
   zx        -0.139980D-01     -0.207429D-02     -0.230796D-02
   zy        -0.622723D-02     -0.922781D-03     -0.102673D-02
   zz         0.413601D+02      0.612893D+01      0.681936D+01

 ----------------------------------------------------------------------

 Dipole orientation:
     6         -0.00035729          0.00008919          1.34938736
    17         -0.00088686         -0.00044313         -4.44100557
     1          1.92719779          0.00375420          0.63006050
     1         -0.97034952          1.66886359          0.62963679
     1         -0.96302562         -1.67494199          0.62403784
     6          0.00178199          0.00062154          4.09433892
     7          0.00143497          0.00066583          6.28959606

 Electric dipole moment (dipole orientation):
 (Debye = 10**-18 statcoulomb cm , SI units = C m)
                  (au)            (Debye)         (10**-30 SI)
   Tot        0.215322D+01      0.547293D+01      0.182557D+02
   x          0.000000D+00      0.000000D+00      0.000000D+00
   y          0.000000D+00      0.000000D+00      0.000000D+00
   z          0.215322D+01      0.547293D+01      0.182557D+02

 Dipole polarizability, Alpha (dipole orientation).
 (esu units = cm**3 , SI units = C**2 m**2 J**-1)
 Alpha(0;0):
               (au)            (10**-24 esu)      (10**-40 SI)
   iso        0.540404D+02      0.800796D+01      0.891006D+01
   aniso      0.380145D+02      0.563317D+01      0.626775D+01
   xx         0.413601D+02      0.612894D+01      0.681936D+01
   yx         0.623266D-02      0.923585D-03      0.102763D-02
   yy         0.413777D+02      0.613154D+01      0.682226D+01
   zx         0.204913D-01      0.303649D-02      0.337855D-02
   zy         0.130992D-01      0.194109D-02      0.215976D-02
   zz         0.793834D+02      0.117634D+02      0.130886D+02

 ----------------------------------------------------------------------
 1\1\GINC-NODO6\Freq\RB3LYP\6-31++G(d,p)\C2H3Cl1N1(1-)\ALANQF\13-Oct-20
 24\0\\#p b3lyp 6-31++g(d,p) scf=verytight NoSymm freq=noraman int=ultr
 afine\\RxCoord=-5.79353 DE=2.67\\-1,1\C,0.714065,-0.000025,0.000311\Cl
 ,-2.350079,0.000003,0.000068\H,0.333588,0.002056,-1.019772\H,0.333191,
 0.883039,0.513633\H,0.33005,-0.886426,0.509578\C,2.166631,0.00011,-0.0
 00573\N,3.328311,0.000016,-0.000191\\Version=ES64L-G16RevB.01\HF=-593.
 0587457\RMSD=1.565e-09\RMSF=2.664e-03\ZeroPoint=0.045354\Thermal=0.049
 6225\Dipole=2.2320945,-0.0002495,0.0004494\DipoleDeriv=-0.1287489,0.00
 04226,-0.0005651,-0.0000951,0.0592006,-0.0004181,0.0000531,-0.0004186,
 0.0579724,-1.0898389,0.000029,-0.0000117,0.0004988,-0.9242534,-0.00001
 52,-0.0005068,-0.0000153,-0.9243366,0.1330225,-0.000016,0.0142987,0.00
 02632,0.1082668,0.0003512,-0.0166635,0.0003307,0.0201749,0.1334393,-0.
 0120947,-0.0069724,0.0146669,0.0419564,-0.0383856,0.0082993,-0.0383054
 ,0.0862963,0.1358108,0.0115959,-0.0065888,-0.0148279,0.0414962,0.03850
 22,0.0085571,0.038443,0.0866516,0.5498115,0.0003205,-0.0008796,-0.0006
 271,0.0623622,-0.0000477,0.0003924,-0.0000479,0.0622119,-0.7334963,-0.
 0002572,0.0007187,0.0001212,-0.3890286,0.0000133,-0.0001316,0.0000133,
 -0.3889705\Polar=79.3833897,0.0092607,41.3776774,-0.013998,-0.0062272,
 41.360102\Quadrupole=-24.801512,12.4005035,12.4010085,0.0016783,0.0002
 751,0.0007308\PG=C01 [X(C2H3Cl1N1)]\NImag=2\\0.48866395,-0.00088133,0.
 55600797,0.00152654,0.00195298,0.56139901,-0.01000771,0.00000175,0.000
 00238,0.01844394,0.00001523,-0.00006692,0.00000005,-0.00000335,-0.0007
 8749,-0.00001359,0.00000006,-0.00006761,-0.00001090,0.00000145,-0.0007
 8720,-0.06951182,0.00022497,-0.09243703,-0.00147461,0.00000138,-0.0008
 8842,0.08343317,0.00024886,-0.03973409,0.00055097,0.00000861,-0.001125
 68,-0.00000454,-0.00021322,0.04228298,-0.09100153,0.00049245,-0.298182
 11,-0.00141681,-0.00000440,0.00064915,0.10111838,-0.00059357,0.3170139
 6,-0.06941306,0.07900652,0.04586825,-0.00148223,0.00077532,0.00045547,
 0.00425914,-0.00938130,-0.00462678,0.08326678,0.07775540,-0.23114488,-
 0.11112383,0.00122772,0.00021388,0.00077670,-0.00072067,0.00046868,0.0
 0131052,-0.08648943,0.24594020,0.04509308,-0.11102430,-0.10466164,0.00
 071067,0.00077650,-0.00066540,0.01044665,-0.02410582,-0.01280173,-0.05
 027593,0.11815911,0.11128075,-0.06963893,-0.07838491,0.04501918,-0.001
 48425,-0.00078656,0.00045635,0.00426137,0.00932996,-0.00456315,0.00424
 895,0.00862457,-0.00573609,0.08338086,-0.07708401,-0.22954922,0.108621
 14,-0.00122648,0.00021705,-0.00077198,0.00063788,0.00028898,-0.0011830
 8,-0.00866288,-0.01941783,0.01261432,0.08589278,0.24444698,0.04425511,
 0.10858024,-0.10293776,0.00070829,-0.00077192,-0.00067576,0.01044503,0
 .02414928,-0.01272396,-0.00579948,-0.01268124,0.00696998,-0.04935658,-
 0.11568947,0.10955218,-0.25874508,0.00001493,0.00006294,-0.00102419,-0
 .00000549,0.00000538,-0.02144703,0.00000652,-0.00290036,-0.02138297,0.
 00252702,0.00147285,-0.02132353,-0.00249362,0.00143717,1.56434728,-0.0
 0006043,-0.07774600,-0.00000696,-0.00001086,0.00187641,-0.00000229,0.0
 0008034,-0.00335151,-0.00002756,0.02823996,0.00489043,0.00481715,-0.02
 814488,0.00498473,-0.00481653,-0.00013455,0.10743008,0.00010705,-0.000
 00710,-0.07781059,0.00000862,-0.00000228,0.00187353,-0.03272837,0.0000
 0304,0.00772264,0.01640270,0.00479144,-0.00057079,0.01617270,-0.004821
 30,-0.00064719,0.00030926,0.00003956,0.10752410,-0.01134735,0.00001807
 ,-0.00004227,-0.00297095,0.00000346,-0.00000429,0.00047980,0.00000058,
 0.00339026,0.00050339,-0.00292461,-0.00171124,0.00055555,0.00293633,-0
 .00168955,-1.24042447,0.00003043,-0.00027196,1.25320404,0.00000627,0.0
 2223314,0.00000565,0.00000261,-0.00032725,0.00000060,-0.00001067,0.001
 17064,0.00000563,-0.00348819,-0.00095047,-0.00123696,0.00346904,-0.000
 97069,0.00122964,0.00008519,-0.03808414,-0.00000337,-0.00006426,0.0169
 2877,0.00003333,0.00000567,0.02226070,-0.00000225,0.00000060,-0.000326
 72,0.00404375,0.00000064,-0.00167796,-0.00202424,-0.00123271,0.0004488
 3,-0.00199240,0.00123037,0.00046251,-0.00038724,-0.00000338,-0.0380917
 0,0.00032905,-0.00000119,0.01692434\\-0.00479842,0.00090395,-0.0012727
 1,0.00600696,0.00000519,-0.00000554,0.00340830,-0.00007736,-0.00009257
 ,0.00300168,0.00075458,0.00054150,0.00233147,-0.00174300,0.00101479,-0
 .00311242,0.00018450,-0.00024411,-0.00683756,-0.00002786,0.00005864\\\
 @


 What some people mistake for the high cost
 of living is really the cost of living high.
                              -- Doug Larson
 Job cpu time:       0 days  0 hours  3 minutes 55.0 seconds.
 Elapsed time:       0 days  0 hours  0 minutes 10.2 seconds.
 File lengths (MBytes):  RWF=     88 Int=      0 D2E=      0 Chk=      2 Scr=      2
 Normal termination of Gaussian 16 at Sun Oct 13 09:48:30 2024.
