RxCoord=-5.49426 DE=3.12                                                
Freq      RB3LYP                                                      6-31++G(d,p)        
Number of atoms                            I                7
Info1-9                                    I   N=           9
          16          16           0           0           0         100
           6          18        -502
Full Title                                 C   N=           2
RxCoord=-5.49426 DE=3.12
Route                                      C   N=           6
#p b3lyp 6-31++g(d,p) scf=verytight NoSymm freq=noraman int=
ultrafine   
Charge                                     I               -1
Multiplicity                               I                1
Number of electrons                        I               40
Number of alpha electrons                  I               20
Number of beta electrons                   I               20
Number of basis functions                  I               98
Number of independent functions            I               98
Number of point charges in /Mol/           I                0
Number of translation vectors              I                0
Atomic numbers                             I   N=           7
           6          17           1           1           1           6
           7
Nuclear charges                            R   N=           7
  6.00000000E+00  1.70000000E+01  1.00000000E+00  1.00000000E+00  1.00000000E+00
  6.00000000E+00  7.00000000E+00
Current cartesian coordinates              R   N=          21
  1.32119257E+00  9.44863062E-06  7.06757571E-04 -4.40400484E+00 -1.88972612E-06
 -7.55890450E-05  5.94808305E-01  4.55423996E-03 -1.93015304E+00  5.98198474E-01
  1.67105269E+00  9.70586014E-01  5.98436579E-01 -1.67561826E+00  9.62709636E-01
  4.06122931E+00  9.44863062E-06 -5.97153455E-04  6.25637675E+00 -1.32280829E-05
 -1.32280829E-04
Number of symbols in /Mol/                 I                0
Force Field                                I                0
Atom Types                                 C   N=           7
                                                            
                        
Int Atom Types                             I   N=           7
           0           0           0           0           0           0
           0
MM charges                                 R   N=           7
  0.00000000E+00  0.00000000E+00  0.00000000E+00  0.00000000E+00  0.00000000E+00
  0.00000000E+00  0.00000000E+00
Integer atomic weights                     I   N=           7
          12          35           1           1           1          12
          14
Real atomic weights                        R   N=           7
  1.20000000E+01  3.49688527E+01  1.00782504E+00  1.00782504E+00  1.00782504E+00
  1.20000000E+01  1.40030740E+01
Atom fragment info                         I   N=           7
           0           0           0           0           0           0
           0
Atom residue num                           I   N=           7
           0           0           0           0           0           0
           0
Nuclear spins                              I   N=           7
           0           3           1           1           1           0
           2
Nuclear ZEff                               R   N=           7
 -3.60000000E+00 -1.42400000E+01 -1.00000000E+00 -1.00000000E+00 -1.00000000E+00
 -3.60000000E+00 -4.55000000E+00
Nuclear ZNuc                               R   N=           7
  6.00000000E+00  1.70000000E+01  1.00000000E+00  1.00000000E+00  1.00000000E+00
  6.00000000E+00  7.00000000E+00
Nuclear QMom                               R   N=           7
  0.00000000E+00 -8.16500000E+00  0.00000000E+00  0.00000000E+00  0.00000000E+00
  0.00000000E+00  2.04400000E+00
Nuclear GFac                               R   N=           7
  0.00000000E+00  8.21874000E-01  2.79284600E+00  2.79284600E+00  2.79284600E+00
  0.00000000E+00  4.03761000E-01
MicOpt                                     I   N=           7
          -1          -1          -1          -1          -1          -1
          -1
Number of residues                         I                0
Number of secondary structures             I                0
Number of contracted shells                I               33
Number of primitive shells                 I               72
Pure/Cartesian d shells                    I                1
Pure/Cartesian f shells                    I                0
Highest angular momentum                   I                2
Largest degree of contraction              I                6
Shell types                                I   N=          33
           0          -1          -1          -1           2           0
          -1          -1          -1          -1           2           0
           0           0           1           0           0           0
           1           0           0           0           1           0
          -1          -1          -1           2           0          -1
          -1          -1           2
Number of primitives per shell             I   N=          33
           6           3           1           1           1           6
           6           3           1           1           1           3
           1           1           1           3           1           1
           1           3           1           1           1           6
           3           1           1           1           6           3
           1           1           1
Shell to atom map                          I   N=          33
           1           1           1           1           1           2
           2           2           2           2           2           3
           3           3           3           4           4           4
           4           5           5           5           5           6
           6           6           6           6           7           7
           7           7           7
Primitive exponents                        R   N=          72
  3.04752488E+03  4.57369518E+02  1.03948685E+02  2.92101553E+01  9.28666296E+00
  3.16392696E+00  7.86827235E+00  1.88128854E+00  5.44249258E-01  1.68714478E-01
  4.38000000E-02  8.00000000E-01  2.51801000E+04  3.78035000E+03  8.60474000E+02
  2.42145000E+02  7.73349000E+01  2.62470000E+01  4.91765000E+02  1.16984000E+02
  3.74153000E+01  1.37834000E+01  5.45215000E+00  2.22588000E+00  3.18649000E+00
  1.14427000E+00  4.20377000E-01  1.42657000E-01  4.83000000E-02  7.50000000E-01
  1.87311370E+01  2.82539436E+00  6.40121692E-01  1.61277759E-01  3.60000000E-02
  1.10000000E+00  1.87311370E+01  2.82539436E+00  6.40121692E-01  1.61277759E-01
  3.60000000E-02  1.10000000E+00  1.87311370E+01  2.82539436E+00  6.40121692E-01
  1.61277759E-01  3.60000000E-02  1.10000000E+00  3.04752488E+03  4.57369518E+02
  1.03948685E+02  2.92101553E+01  9.28666296E+00  3.16392696E+00  7.86827235E+00
  1.88128854E+00  5.44249258E-01  1.68714478E-01  4.38000000E-02  8.00000000E-01
  4.17351146E+03  6.27457911E+02  1.42902093E+02  4.02343293E+01  1.28202129E+01
  4.39043701E+00  1.16263619E+01  2.71627981E+00  7.72218397E-01  2.12031498E-01
  6.39000000E-02  8.00000000E-01
Contraction coefficients                   R   N=          72
  1.83473713E-03  1.40373228E-02  6.88426223E-02  2.32184443E-01  4.67941348E-01
  3.62311985E-01 -1.19332420E-01 -1.60854152E-01  1.14345644E+00  1.00000000E+00
  1.00000000E+00  1.00000000E+00  1.83295985E-03  1.40341988E-02  6.90973943E-02
  2.37451980E-01  4.83033960E-01  3.39855972E-01 -2.29739142E-03 -3.07137189E-02
 -1.12528069E-01  4.50163278E-02  5.89353363E-01  4.65206287E-01 -2.51828028E-01
  6.15892514E-02  1.06018433E+00  1.00000000E+00  1.00000000E+00  1.00000000E+00
  3.34946043E-02  2.34726953E-01  8.13757326E-01  1.00000000E+00  1.00000000E+00
  1.00000000E+00  3.34946043E-02  2.34726953E-01  8.13757326E-01  1.00000000E+00
  1.00000000E+00  1.00000000E+00  3.34946043E-02  2.34726953E-01  8.13757326E-01
  1.00000000E+00  1.00000000E+00  1.00000000E+00  1.83473713E-03  1.40373228E-02
  6.88426223E-02  2.32184443E-01  4.67941348E-01  3.62311985E-01 -1.19332420E-01
 -1.60854152E-01  1.14345644E+00  1.00000000E+00  1.00000000E+00  1.00000000E+00
  1.83477216E-03  1.39946270E-02  6.85865518E-02  2.32240873E-01  4.69069948E-01
  3.60455199E-01 -1.14961182E-01 -1.69117479E-01  1.14585195E+00  1.00000000E+00
  1.00000000E+00  1.00000000E+00
P(S=P) Contraction coefficients            R   N=          72
  0.00000000E+00  0.00000000E+00  0.00000000E+00  0.00000000E+00  0.00000000E+00
  0.00000000E+00  6.89990666E-02  3.16423961E-01  7.44308291E-01  1.00000000E+00
  1.00000000E+00  0.00000000E+00  0.00000000E+00  0.00000000E+00  0.00000000E+00
  0.00000000E+00  0.00000000E+00  0.00000000E+00  3.98940088E-03  3.03177067E-02
  1.29880029E-01  3.27951072E-01  4.53527100E-01  2.52154056E-01 -1.42993147E-02
  3.23572333E-01  7.43507765E-01  1.00000000E+00  1.00000000E+00  0.00000000E+00
  0.00000000E+00  0.00000000E+00  0.00000000E+00  0.00000000E+00  0.00000000E+00
  0.00000000E+00  0.00000000E+00  0.00000000E+00  0.00000000E+00  0.00000000E+00
  0.00000000E+00  0.00000000E+00  0.00000000E+00  0.00000000E+00  0.00000000E+00
  0.00000000E+00  0.00000000E+00  0.00000000E+00  0.00000000E+00  0.00000000E+00
  0.00000000E+00  0.00000000E+00  0.00000000E+00  0.00000000E+00  6.89990666E-02
  3.16423961E-01  7.44308291E-01  1.00000000E+00  1.00000000E+00  0.00000000E+00
  0.00000000E+00  0.00000000E+00  0.00000000E+00  0.00000000E+00  0.00000000E+00
  0.00000000E+00  6.75797439E-02  3.23907296E-01  7.40895140E-01  1.00000000E+00
  1.00000000E+00  0.00000000E+00
Coordinates of each shell                  R   N=          99
  1.32119257E+00  9.44863062E-06  7.06757571E-04  1.32119257E+00  9.44863062E-06
  7.06757571E-04  1.32119257E+00  9.44863062E-06  7.06757571E-04  1.32119257E+00
  9.44863062E-06  7.06757571E-04  1.32119257E+00  9.44863062E-06  7.06757571E-04
 -4.40400484E+00 -1.88972612E-06 -7.55890450E-05 -4.40400484E+00 -1.88972612E-06
 -7.55890450E-05 -4.40400484E+00 -1.88972612E-06 -7.55890450E-05 -4.40400484E+00
 -1.88972612E-06 -7.55890450E-05 -4.40400484E+00 -1.88972612E-06 -7.55890450E-05
 -4.40400484E+00 -1.88972612E-06 -7.55890450E-05  5.94808305E-01  4.55423996E-03
 -1.93015304E+00  5.94808305E-01  4.55423996E-03 -1.93015304E+00  5.94808305E-01
  4.55423996E-03 -1.93015304E+00  5.94808305E-01  4.55423996E-03 -1.93015304E+00
  5.98198474E-01  1.67105269E+00  9.70586014E-01  5.98198474E-01  1.67105269E+00
  9.70586014E-01  5.98198474E-01  1.67105269E+00  9.70586014E-01  5.98198474E-01
  1.67105269E+00  9.70586014E-01  5.98436579E-01 -1.67561826E+00  9.62709636E-01
  5.98436579E-01 -1.67561826E+00  9.62709636E-01  5.98436579E-01 -1.67561826E+00
  9.62709636E-01  5.98436579E-01 -1.67561826E+00  9.62709636E-01  4.06122931E+00
  9.44863062E-06 -5.97153455E-04  4.06122931E+00  9.44863062E-06 -5.97153455E-04
  4.06122931E+00  9.44863062E-06 -5.97153455E-04  4.06122931E+00  9.44863062E-06
 -5.97153455E-04  4.06122931E+00  9.44863062E-06 -5.97153455E-04  6.25637675E+00
 -1.32280829E-05 -1.32280829E-04  6.25637675E+00 -1.32280829E-05 -1.32280829E-04
  6.25637675E+00 -1.32280829E-05 -1.32280829E-04  6.25637675E+00 -1.32280829E-05
 -1.32280829E-04  6.25637675E+00 -1.32280829E-05 -1.32280829E-04
Num ILSW                                   I              100
ILSW                                       I   N=         100
           0           1           0           0           2           0
           0           0           0           0         402          -1
           5           0           0           0           2           0
           0           0           0           0           1           0
           1           1           0           0           0           0
           0           0      100000           0          -1           0
           0           0           0           0           0           0
           0           0           0           1           0           0
           0 -2000000000           1           0           0           0
           0           0           4          52           0           0
           0           0           5           0           0           0
           0           0           0           7           0           1
           0           0           0           0           0           0
           0           0           0           0           0           0
           0           0           0           0           0           0
           0           0           0           0           0           0
           0           0           0           0
Num RLSW                                   I               52
RLSW                                       R   N=          52
  8.00000000E-01  7.20000000E-01  1.00000000E+00  8.10000000E-01  2.00000000E-01
  0.00000000E+00  0.00000000E+00  1.00000000E+00  0.00000000E+00  0.00000000E+00
  0.00000000E+00  0.00000000E+00  1.00000000E+00  0.00000000E+00  0.00000000E+00
  0.00000000E+00  0.00000000E+00  1.00000000E+00  0.00000000E+00  0.00000000E+00
  0.00000000E+00  0.00000000E+00  1.00000000E+00  0.00000000E+00  0.00000000E+00
  0.00000000E+00  0.00000000E+00  1.00000000E+00  0.00000000E+00  0.00000000E+00
  0.00000000E+00  0.00000000E+00  1.00000000E+00  0.00000000E+00  0.00000000E+00
  0.00000000E+00  0.00000000E+00  0.00000000E+00  1.00000000E+00  1.00000000E+00
  0.00000000E+00  1.00000000E+00  0.00000000E+00  0.00000000E+00  0.00000000E+00
  0.00000000E+00  0.00000000E+00  0.00000000E+00  0.00000000E+00  0.00000000E+00
  0.00000000E+00  0.00000000E+00
MxBond                                     I                4
NBond                                      I   N=           7
           4           0           1           1           1           2
           1
IBond                                      I   N=          28
           3           4           5           6           0           0
           0           0           1           0           0           0
           1           0           0           0           1           0
           0           0           1           7           0           0
           6           0           0           0
RBond                                      R   N=          28
  1.00000000E+00  1.00000000E+00  1.00000000E+00  1.00000000E+00  0.00000000E+00
  0.00000000E+00  0.00000000E+00  0.00000000E+00  1.00000000E+00  0.00000000E+00
  0.00000000E+00  0.00000000E+00  1.00000000E+00  0.00000000E+00  0.00000000E+00
  0.00000000E+00  1.00000000E+00  0.00000000E+00  0.00000000E+00  0.00000000E+00
  1.00000000E+00  3.00000000E+00  0.00000000E+00  0.00000000E+00  3.00000000E+00
  0.00000000E+00  0.00000000E+00  0.00000000E+00
Virial Ratio                               R      2.004607856262560E+00
SCF Energy                                 R     -5.930582750305816E+02
Total Energy                               R     -5.930582750305816E+02
RMS Force                                  R      2.812302427864739E-03
RMS Density                                R      1.651751464015857E-09
NImag                                      I                2
Job Status                                 I                1
Nuclear derivative order                   I                2
External E-field                           R   N=          35
  0.00000000E+00  0.00000000E+00  0.00000000E+00  0.00000000E+00  0.00000000E+00
  0.00000000E+00  0.00000000E+00  0.00000000E+00  0.00000000E+00  0.00000000E+00
  0.00000000E+00  0.00000000E+00  0.00000000E+00  0.00000000E+00  0.00000000E+00
  0.00000000E+00  0.00000000E+00  0.00000000E+00  0.00000000E+00  0.00000000E+00
  0.00000000E+00  0.00000000E+00  0.00000000E+00  0.00000000E+00  0.00000000E+00
  0.00000000E+00  0.00000000E+00  0.00000000E+00  0.00000000E+00  0.00000000E+00
  0.00000000E+00  0.00000000E+00  0.00000000E+00  0.00000000E+00  0.00000000E+00
IOpCl                                      I                0
IROHF                                      I                0
Alpha Orbital Energies                     R   N=          98
 -1.01255031E+02 -1.42216201E+01 -1.01181946E+01 -1.00866939E+01 -9.16885135E+00
 -6.92672178E+00 -6.92672151E+00 -6.92636446E+00 -7.92378431E-01 -6.36950373E-01
 -5.08942885E-01 -3.73966441E-01 -3.19754308E-01 -3.19616780E-01 -2.53197177E-01
 -2.10564429E-01 -2.10542013E-01 -5.44676960E-02 -5.44674135E-02 -5.38174599E-02
  1.04103059E-01  1.40276811E-01  1.40298698E-01  1.45022468E-01  1.52397523E-01
  1.52412198E-01  2.00983853E-01  2.08554232E-01  2.08562418E-01  2.19299259E-01
  2.35666644E-01  2.35684166E-01  2.56969523E-01  2.60750410E-01  2.60767359E-01
  3.01513637E-01  3.30977907E-01  3.40608022E-01  3.40614218E-01  3.50182116E-01
  3.50196857E-01  3.64545435E-01  3.95151758E-01  4.17277080E-01  4.88750873E-01
  6.91610868E-01  7.92064205E-01  7.92088864E-01  8.47357775E-01  8.47411050E-01
  8.57106889E-01  8.57113630E-01  8.63496275E-01  9.04416329E-01  9.83149873E-01
  1.02804275E+00  1.02821176E+00  1.04155440E+00  1.09988016E+00  1.12638454E+00
  1.12641644E+00  1.15261401E+00  1.15262113E+00  1.16293424E+00  1.16301451E+00
  1.22829546E+00  1.27725241E+00  1.30839404E+00  1.46101939E+00  1.46119003E+00
  1.54759707E+00  1.63193588E+00  1.63194189E+00  1.87161174E+00  1.87175847E+00
  1.92770159E+00  2.05929203E+00  2.05935929E+00  2.15656822E+00  2.24617857E+00
  2.24631678E+00  2.33600305E+00  2.40503614E+00  2.40504259E+00  2.80964170E+00
  2.80970982E+00  2.81050566E+00  3.06935582E+00  3.10103815E+00  3.10153176E+00
  3.29339444E+00  3.46515937E+00  3.56091440E+00  3.56115687E+00  4.26730514E+00
  4.45949768E+00  4.58904411E+00  4.82064201E+00
Alpha MO coefficients                      R   N=        9604
  9.48926835E-07  2.71097453E-05  2.71885901E-06 -1.17651268E-09  2.28711100E-08
 -1.79051694E-04 -1.40494521E-04  2.22944303E-10  9.06116981E-08  1.69971051E-03
  6.75362937E-04 -3.65404879E-09 -1.64069476E-07 -2.92377881E-05  4.61260116E-07
  4.34945796E-07 -5.76929298E-10  2.47135467E-08 -6.02473120E-10  9.95997843E-01
  1.51415170E-02  2.86524558E-06  2.92438266E-10 -3.84989185E-09 -2.10653684E-02
 -7.38360589E-06 -4.45641819E-10  8.03626566E-09  1.96967133E-03  1.50543236E-05
  8.63017303E-10 -1.60987112E-08 -2.53698102E-04  7.90490134E-07 -4.87472046E-10
  3.94917928E-08  7.50432493E-03  7.50779805E-03  7.50779811E-03  6.42803100E-11
 -1.04700892E-09  1.80181481E-12  4.87066878E-07 -3.64064074E-05  7.70349912E-05
  1.35953854E-05  1.67904996E-08 -7.21269174E-06  5.76745429E-07 -3.65138004E-05
  7.69861808E-05  1.35256807E-05  6.24620581E-06  3.62759889E-06  5.82239044E-07
 -3.65194113E-05  7.69802918E-05  1.35210780E-05 -6.26373475E-06  3.59816210E-06
 -9.67349364E-07 -1.11122507E-05  1.75160998E-06  2.47394685E-10  1.60858443E-09
 -7.74098485E-05 -3.13789938E-04 -2.52027992E-10  4.92867926E-08 -2.11635685E-03
  5.14690879E-04  3.00422460E-09 -4.74073008E-07  1.08524272E-05 -4.33595230E-07
 -4.36604918E-07 -1.17111711E-11 -1.09504533E-08 -8.88644830E-11 -3.65602127E-06
 -1.76460532E-05  3.49335389E-06 -2.92682410E-10  1.27709272E-08  2.55643996E-04
 -1.00784795E-04  2.80711212E-09 -9.12610615E-08  2.62413342E-04 -1.08651146E-04
 -9.80324531E-11  1.12874780E-07 -4.17320619E-06 -6.70104228E-06 -6.70087269E-06
 -3.39681272E-10  7.12636839E-09  6.01016015E-13  9.73603060E-06 -1.86561912E-04
  2.76566953E-04  4.12720361E-09 -1.94643320E-07  1.07868677E-03  7.20991732E-04
  4.25631244E-09 -7.61882665E-07  1.17237730E-02  3.46332300E-03  3.72056635E-09
 -1.61054825E-06  4.82376323E-04  2.64244392E-05  2.65020981E-05 -3.81154787E-10
 -3.97456838E-07  2.35268229E-09 -3.73477236E-08 -3.96586908E-06  4.72052357E-06
  8.55565257E-11  2.50552094E-09 -1.80921577E-06 -3.01388633E-05 -4.89354932E-10
 -1.35014712E-08 -2.36208979E-07  9.96538774E-05  1.39684655E-09  2.39165141E-08
  5.62616238E-04  1.53867434E-04 -2.25046012E-10  1.97240910E-07  2.84942735E-06
 -1.52772825E-05 -1.52747695E-05  1.85803402E-10  1.11065083E-08  2.30434003E-11
 -2.29920866E-07 -5.31692104E-05 -1.68983502E-04 -4.56978162E-06  3.19975597E-09
 -1.38958302E-06 -1.70049959E-07 -5.27989995E-05 -1.68934187E-04 -4.52706507E-06
  1.12847030E-06  6.82499464E-07 -1.67324212E-07 -5.27960667E-05 -1.68953934E-04
 -4.52515657E-06 -1.12370974E-06  6.72516931E-07  7.92616316E-05  3.35188353E-04
 -5.55978567E-04  6.37711167E-09 -1.37644524E-07 -4.85121272E-05  1.47348086E-03
 -5.40063609E-09 -4.24970366E-07 -9.71111618E-03  4.74399188E-03 -1.81801958E-08
 -1.95446202E-06 -1.45356293E-03  2.19828644E-05  2.19825528E-05  1.37408265E-08
 -9.03252181E-08 -2.54146352E-10  9.92763789E-01  3.47362490E-02 -2.14214392E-03
  1.96058961E-08 -5.85360541E-07  3.46707887E-03  8.56305446E-04 -8.94842192E-09
  3.42952269E-07 -3.26872444E-03 -4.95342118E-04 -1.26525788E-09  6.35262844E-07
 -7.31193771E-03 -8.36439893E-03 -8.36440088E-03 -1.32599641E-08  2.83868510E-07
 -1.94833940E-10  5.51704380E-03  6.49000956E-05 -4.52560864E-04  1.16032081E-08
  2.77466919E-07  7.61661708E-03  2.96900759E-03  1.38710269E-08 -3.03543244E-06
  9.47141134E-02  3.59972199E-02  2.83151868E-08 -1.23869688E-05 -1.00020841E-03
 -1.96750983E-04 -1.96484491E-04  1.69390163E-09  5.63100761E-07  1.31318496E-08
 -3.31003976E-07 -9.75371843E-06  2.67783920E-05  7.16397226E-10  1.58589039E-08
 -1.80118335E-05 -1.68782547E-04 -4.25370801E-09 -8.61885105E-08 -1.69764758E-04
  6.73654252E-04  1.20646235E-08  1.69462915E-07  6.85430649E-03  2.38331146E-03
  1.98670873E-09  1.75081299E-06  3.10036703E-05 -4.58318574E-05 -4.58075656E-05
  1.82240374E-09  6.99057013E-08  2.71710790E-10 -1.23615690E-04 -6.48161050E-04
  5.81115984E-04  3.36272764E-05 -4.27822090E-08  1.87786198E-05 -1.23219256E-04
 -6.47058954E-04  5.86300393E-04  3.41474822E-05 -1.63818241E-05 -9.43181650E-06
 -1.23192287E-04 -6.47057908E-04  5.86294871E-04  3.42307210E-05  1.64294822E-05
 -9.35478617E-06  9.92783591E-01  5.05233917E-02  2.79295657E-04 -3.28874002E-08
  9.51365177E-07 -1.08453229E-02  8.20671232E-03 -2.77568355E-08 -2.67532032E-06
 -1.07341592E-01  2.96251331E-02  1.98799679E-08 -2.36851691E-05 -7.79338299E-03
 -9.88372895E-03 -9.88375573E-03 -1.19044378E-08 -5.19716592E-08 -1.95103440E-09
 -4.65577692E-04  3.77693244E-04  3.46245142E-04 -4.50693494E-09  2.41489117E-07
 -8.36140483E-03  3.42216403E-03 -4.39066950E-08  1.19054342E-06  8.96037004E-03
 -7.00702550E-03  1.61839005E-08  6.09459776E-06 -4.46863281E-05  3.52488972E-04
  3.52495391E-04  8.83081897E-09 -5.45450952E-07  1.11879349E-10  9.93012535E-01
  5.06859406E-02  7.81832043E-04 -4.68346645E-08 -3.61347433E-08 -2.46184308E-02
 -4.59874350E-03  1.13386000E-07  4.14020034E-06  5.22531785E-02  2.30240824E-02
 -1.53995937E-07 -3.01359454E-06 -8.93448624E-03 -8.88268035E-03 -8.88335473E-03
 -1.53140048E-08  3.02753670E-07 -2.26862043E-08  1.57510532E-06  1.87026360E-05
  3.71568255E-06 -2.28579035E-09  4.57193808E-08  7.74665645E-05 -2.45233199E-05
  1.36020040E-08 -2.76319125E-07 -4.24320187E-04  1.62395733E-04 -3.43008044E-08
  7.65074838E-07  5.27213307E-03  1.90570936E-03  2.04000731E-09  9.67180571E-07
  1.57122164E-05  3.00573510E-05  2.99922005E-05 -7.11939812E-09  1.72781123E-07
 -1.56956441E-09  4.63848813E-06  3.20009635E-03  3.85473153E-04  2.76101425E-05
  2.66654504E-07 -1.19846077E-04  4.55144728E-06  3.19743355E-03  3.84904004E-04
  2.69569145E-05  1.03771605E-04  6.02748205E-05  4.55783436E-06  3.19759510E-03
  3.84694235E-04  2.68998437E-05 -1.04051079E-04  5.97648006E-05 -5.81923421E-03
 -4.16476067E-04  2.82635229E-04 -1.59258180E-08  1.62724433E-07  3.54395524E-03
 -9.45654260E-03  1.20808956E-07  4.79919544E-07 -6.19807528E-02  1.56117829E-02
  1.93177491E-07 -1.72000804E-05 -8.40029468E-04  2.38718153E-06  2.55369575E-06
 -5.38282451E-09  4.61944213E-07  8.72654641E-09 -1.71036850E-05 -4.31731013E-05
 -2.49776044E-04  5.75195167E-09  2.52881687E-08  5.30408791E-03 -1.73940364E-03
  1.67774283E-08 -2.00621097E-06  5.24527809E-03 -2.73791269E-03 -8.48446153E-08
  5.12509798E-06  1.47590598E-04 -7.34899334E-05 -7.34917874E-05 -3.49851527E-09
  3.59279950E-07 -3.77572991E-10  5.56656902E-05  3.30161775E-04  2.28194975E-04
  9.08318588E-09 -1.75570104E-07 -5.60037570E-03 -4.73943111E-03 -9.04718227E-08
  3.99128819E-06  9.69251413E-03  7.58727518E-03  1.70174774E-07 -2.76325536E-06
 -1.39971298E-04  9.27448711E-05  9.26475626E-05  6.23935805E-09  1.90394116E-07
 -1.43896615E-09 -2.84637207E-01  1.02268163E+00  1.12861040E-04  3.18087287E-08
 -4.21959951E-07  7.51800833E-02  4.84027831E-04  7.00669196E-09  3.19619576E-09
 -2.15447880E-02 -1.48882795E-03 -1.62483762E-08  4.01198059E-08  1.32361131E-02
  4.40598942E-03  5.86682077E-08 -7.71902606E-07 -1.56406341E-02 -1.55714877E-02
 -1.55714378E-02  2.01117103E-09 -5.05267457E-08  1.38444383E-09 -4.90698667E-05
 -5.53008615E-04 -2.76422334E-03  1.04052550E-04  9.34208247E-08 -3.77525138E-05
 -4.85194858E-05 -5.56433201E-04 -2.75063933E-03  1.04747139E-04  3.30016885E-05
  1.89553363E-05 -4.84751201E-05 -5.56586478E-04 -2.75018472E-03  1.04773461E-04
 -3.31028774E-05  1.88117244E-05 -5.12610375E-05 -3.11355399E-04 -2.91276970E-05
  4.54176708E-09 -1.10222141E-07  5.95412160E-04 -7.14487951E-03  1.54122173E-08
  1.95058228E-06 -5.72169150E-03  6.74041734E-04 -1.05769513E-07 -2.52003115E-06
  9.25024099E-05 -5.16944658E-05 -5.17643410E-05  1.55031216E-09 -1.48097650E-07
 -1.92063444E-09 -1.22404094E-04 -4.95286371E-04  2.42093164E-05 -2.33709333E-09
  1.85785643E-07  6.54033476E-03 -1.96255519E-03  3.92936172E-08 -1.86780963E-06
 -2.05729178E-03  1.05930525E-03  2.64043960E-08  5.99677743E-07 -1.92723407E-04
 -2.39399083E-04 -2.39390142E-04 -3.77354525E-09  2.12464179E-07  9.50137798E-11
 -1.84209553E-07 -8.64680279E-07 -7.78871310E-08 -6.15670818E-07 -2.01615348E-05
  7.67650434E-06 -1.78039426E-06 -1.91201320E-05 -6.28430447E-04  2.68060679E-05
  5.04155036E-06  1.07901313E-05  3.54309957E-04 -1.89003347E-07 -3.93370184E-05
  3.89579918E-05  1.00619382E-06  3.31486394E-05 -1.69453881E-06 -1.86107584E-07
  5.65852720E-07 -9.03213484E-04  3.01680761E-02  9.90357466E-01 -3.17948284E-07
 -2.73684358E-05  9.03071208E-04  2.96461616E-02  1.55644102E-06  1.10135255E-05
 -3.49450280E-04 -1.14721920E-02 -3.98268066E-06 -5.61458771E-06  1.51797415E-04
  4.98436357E-03 -1.84426150E-07  2.46638194E-06 -2.84355241E-06  1.17985130E-06
  3.87425707E-05  1.16139937E-07  1.62481950E-04 -1.19930004E-03  4.48248492E-03
  4.40326097E-05  9.98370852E-07 -1.26834556E-04 -8.56173382E-05  6.25729392E-04
 -2.36982234E-03 -2.29463914E-05 -6.65900360E-05 -1.78320761E-05 -7.63834510E-05
  5.57908351E-04 -2.11529943E-03 -2.04580462E-05  6.07823887E-05 -1.33426356E-05
  3.24020332E-08  1.22808325E-07  5.21237035E-09  1.48958826E-06  4.89261632E-05
 -5.26274047E-06 -1.89042203E-06 -2.92207952E-06 -9.60976163E-05 -1.55690925E-05
  4.39726595E-06  3.58556869E-05  1.18026583E-03 -7.20196156E-08 -6.85401945E-06
  7.06061662E-06 -5.51398671E-07 -1.81188599E-05 -3.00139614E-07 -1.13241802E-07
 -4.32742808E-07  1.93912830E-08 -4.04645777E-07 -1.33592884E-05  4.56333463E-06
 -1.92079548E-06  2.57810236E-06  8.50332343E-05 -8.63857090E-07  5.13215940E-07
 -1.23467761E-05 -4.07141788E-04 -6.04462584E-08  3.27417095E-06 -3.83584743E-06
 -3.31331422E-07 -1.08828377E-05  1.54185014E-07  1.75288149E-08  9.16774451E-08
  2.97283908E-09 -2.05003642E-05  6.22947023E-07 -1.07114063E-06 -1.48822828E-07
 -6.25347220E-04  1.90725943E-05 -1.03064478E-05 -3.42224660E-06  3.53184437E-04
 -1.07601354E-05  7.21940731E-09  1.47985378E-06 -1.44951714E-06  3.28181690E-05
 -1.00326877E-06 -4.49872877E-05  1.99069276E-08 -5.87042281E-08  8.73294870E-05
  9.90357955E-01 -3.01680097E-02  3.97777817E-08  2.66816496E-06  2.96457823E-02
 -9.03065979E-04 -1.65260556E-07 -1.14078652E-06 -1.14711628E-02  3.49444753E-04
 -1.91431403E-07  3.42770411E-07  4.98221684E-03 -1.51802358E-04  1.63884101E-08
 -7.12417231E-08  1.23880873E-07  3.87646695E-05 -1.18116273E-06  3.02913978E-06
 -5.34737080E-06  3.95570907E-05 -1.47000033E-04 -1.44704465E-06  2.11706329E-05
  4.22196095E-06 -1.38152142E-04  1.01206693E-03 -3.80055115E-03 -3.71047734E-05
 -8.72023763E-05 -6.34737968E-05  1.43455165E-04 -1.05029705E-03  3.94761239E-03
  3.85145147E-05 -9.16495750E-05  6.40590308E-05 -1.41506076E-08 -6.33749105E-08
  8.44534047E-10  4.89831586E-05 -1.49294275E-06  4.60455537E-07 -5.35000189E-07
 -9.70641909E-05  2.96217752E-06  1.00781759E-05 -3.02628435E-06  1.17730500E-03
 -3.59578130E-05 -1.01388289E-08  2.38400843E-07 -2.84349966E-07 -1.80410011E-05
  5.50078335E-07 -8.00106623E-06  3.00773747E-11 -6.91724209E-09  1.19513510E-09
 -1.33300227E-05  4.08349294E-07  2.36083528E-07 -9.70152006E-08  8.50501727E-05
 -2.60299905E-06 -6.15011448E-08  3.43354799E-07 -4.05046344E-04  1.23932456E-05
  5.58298925E-09 -1.29387293E-07  1.37553570E-07 -1.09547514E-05  3.33901763E-07
  4.10758743E-06 -1.04650304E-05  6.23735210E-05  2.16460812E-04  6.71089068E-09
 -2.24042261E-07 -5.63194137E-03 -5.58786322E-03  2.88072938E-08  3.15831012E-06
 -1.26244676E-01 -5.12257434E-02 -5.75462696E-08  1.39182650E-05 -1.73462788E-04
 -7.76630548E-05 -7.75014002E-05  8.17205852E-09  9.61440641E-08  9.01174143E-09
  7.47331183E-05 -1.04901647E-04  9.90695730E-01 -5.97976670E-05  9.05483656E-04
  4.29828351E-04  3.03402139E-02 -1.78490383E-06  2.72917036E-05 -1.80049561E-03
 -1.36000951E-02  6.82213372E-07 -1.09133759E-05 -8.14813161E-03  1.77123442E-03
 -2.96681426E-07  1.95826179E-06  1.65672097E-04  3.27674589E-04  3.27672235E-04
 -4.77469020E-10 -1.23118963E-07  1.06258142E-10 -1.65973098E-04  1.36355311E-04
 -2.61894292E-03  9.97814847E-05 -5.46504660E-08  2.32686067E-05 -1.66066235E-04
  1.35201492E-04 -2.62649544E-03  1.01114537E-04 -1.98805907E-05 -1.17536263E-05
 -1.66049914E-04  1.35292698E-04 -2.62703951E-03  1.01167491E-04  1.99403126E-05
 -1.16621220E-05 -1.56935254E-04 -7.44890580E-04  7.89373988E-06 -1.96221410E-09