RxCoord=-5.39748 DE=3.28                                                
Freq      RB3LYP                                                      6-31++G(d,p)        
Number of atoms                            I                7
Info1-9                                    I   N=           9
          16          16           0           0           0         100
           6          18        -502
Full Title                                 C   N=           2
RxCoord=-5.39748 DE=3.28
Route                                      C   N=           6
#p b3lyp 6-31++g(d,p) scf=verytight NoSymm freq=noraman int=
ultrafine   
Charge                                     I               -1
Multiplicity                               I                1
Number of electrons                        I               40
Number of alpha electrons                  I               20
Number of beta electrons                   I               20
Number of basis functions                  I               98
Number of independent functions            I               98
Number of point charges in /Mol/           I                0
Number of translation vectors              I                0
Atomic numbers                             I   N=           7
           6          17           1           1           1           6
           7
Nuclear charges                            R   N=           7
  6.00000000E+00  1.70000000E+01  1.00000000E+00  1.00000000E+00  1.00000000E+00
  6.00000000E+00  7.00000000E+00
Current cartesian coordinates              R   N=          21
  1.30666058E+00 -1.88972612E-06  7.29434284E-04 -4.39250964E+00  0.00000000E+00
 -1.17163020E-04  5.97822418E-01  4.55423996E-03 -1.92670618E+00  6.00917790E-01
  1.66810660E+00  9.68838018E-01  6.01401560E-01 -1.67252667E+00  9.60944632E-01
  4.05237217E+00 -1.88972612E-06 -5.40461672E-04  6.24708497E+00 -5.66917837E-06
 -9.25965801E-05
Number of symbols in /Mol/                 I                0
Force Field                                I                0
Atom Types                                 C   N=           7
                                                            
                        
Int Atom Types                             I   N=           7
           0           0           0           0           0           0
           0
MM charges                                 R   N=           7
  0.00000000E+00  0.00000000E+00  0.00000000E+00  0.00000000E+00  0.00000000E+00
  0.00000000E+00  0.00000000E+00
Integer atomic weights                     I   N=           7
          12          35           1           1           1          12
          14
Real atomic weights                        R   N=           7
  1.20000000E+01  3.49688527E+01  1.00782504E+00  1.00782504E+00  1.00782504E+00
  1.20000000E+01  1.40030740E+01
Atom fragment info                         I   N=           7
           0           0           0           0           0           0
           0
Atom residue num                           I   N=           7
           0           0           0           0           0           0
           0
Nuclear spins                              I   N=           7
           0           3           1           1           1           0
           2
Nuclear ZEff                               R   N=           7
 -3.60000000E+00 -1.42400000E+01 -1.00000000E+00 -1.00000000E+00 -1.00000000E+00
 -3.60000000E+00 -4.55000000E+00
Nuclear ZNuc                               R   N=           7
  6.00000000E+00  1.70000000E+01  1.00000000E+00  1.00000000E+00  1.00000000E+00
  6.00000000E+00  7.00000000E+00
Nuclear QMom                               R   N=           7
  0.00000000E+00 -8.16500000E+00  0.00000000E+00  0.00000000E+00  0.00000000E+00
  0.00000000E+00  2.04400000E+00
Nuclear GFac                               R   N=           7
  0.00000000E+00  8.21874000E-01  2.79284600E+00  2.79284600E+00  2.79284600E+00
  0.00000000E+00  4.03761000E-01
MicOpt                                     I   N=           7
          -1          -1          -1          -1          -1          -1
          -1
Number of residues                         I                0
Number of secondary structures             I                0
Number of contracted shells                I               33
Number of primitive shells                 I               72
Pure/Cartesian d shells                    I                1
Pure/Cartesian f shells                    I                0
Highest angular momentum                   I                2
Largest degree of contraction              I                6
Shell types                                I   N=          33
           0          -1          -1          -1           2           0
          -1          -1          -1          -1           2           0
           0           0           1           0           0           0
           1           0           0           0           1           0
          -1          -1          -1           2           0          -1
          -1          -1           2
Number of primitives per shell             I   N=          33
           6           3           1           1           1           6
           6           3           1           1           1           3
           1           1           1           3           1           1
           1           3           1           1           1           6
           3           1           1           1           6           3
           1           1           1
Shell to atom map                          I   N=          33
           1           1           1           1           1           2
           2           2           2           2           2           3
           3           3           3           4           4           4
           4           5           5           5           5           6
           6           6           6           6           7           7
           7           7           7
Primitive exponents                        R   N=          72
  3.04752488E+03  4.57369518E+02  1.03948685E+02  2.92101553E+01  9.28666296E+00
  3.16392696E+00  7.86827235E+00  1.88128854E+00  5.44249258E-01  1.68714478E-01
  4.38000000E-02  8.00000000E-01  2.51801000E+04  3.78035000E+03  8.60474000E+02
  2.42145000E+02  7.73349000E+01  2.62470000E+01  4.91765000E+02  1.16984000E+02
  3.74153000E+01  1.37834000E+01  5.45215000E+00  2.22588000E+00  3.18649000E+00
  1.14427000E+00  4.20377000E-01  1.42657000E-01  4.83000000E-02  7.50000000E-01
  1.87311370E+01  2.82539436E+00  6.40121692E-01  1.61277759E-01  3.60000000E-02
  1.10000000E+00  1.87311370E+01  2.82539436E+00  6.40121692E-01  1.61277759E-01
  3.60000000E-02  1.10000000E+00  1.87311370E+01  2.82539436E+00  6.40121692E-01
  1.61277759E-01  3.60000000E-02  1.10000000E+00  3.04752488E+03  4.57369518E+02
  1.03948685E+02  2.92101553E+01  9.28666296E+00  3.16392696E+00  7.86827235E+00
  1.88128854E+00  5.44249258E-01  1.68714478E-01  4.38000000E-02  8.00000000E-01
  4.17351146E+03  6.27457911E+02  1.42902093E+02  4.02343293E+01  1.28202129E+01
  4.39043701E+00  1.16263619E+01  2.71627981E+00  7.72218397E-01  2.12031498E-01
  6.39000000E-02  8.00000000E-01
Contraction coefficients                   R   N=          72
  1.83473713E-03  1.40373228E-02  6.88426223E-02  2.32184443E-01  4.67941348E-01
  3.62311985E-01 -1.19332420E-01 -1.60854152E-01  1.14345644E+00  1.00000000E+00
  1.00000000E+00  1.00000000E+00  1.83295985E-03  1.40341988E-02  6.90973943E-02
  2.37451980E-01  4.83033960E-01  3.39855972E-01 -2.29739142E-03 -3.07137189E-02
 -1.12528069E-01  4.50163278E-02  5.89353363E-01  4.65206287E-01 -2.51828028E-01
  6.15892514E-02  1.06018433E+00  1.00000000E+00  1.00000000E+00  1.00000000E+00
  3.34946043E-02  2.34726953E-01  8.13757326E-01  1.00000000E+00  1.00000000E+00
  1.00000000E+00  3.34946043E-02  2.34726953E-01  8.13757326E-01  1.00000000E+00
  1.00000000E+00  1.00000000E+00  3.34946043E-02  2.34726953E-01  8.13757326E-01
  1.00000000E+00  1.00000000E+00  1.00000000E+00  1.83473713E-03  1.40373228E-02
  6.88426223E-02  2.32184443E-01  4.67941348E-01  3.62311985E-01 -1.19332420E-01
 -1.60854152E-01  1.14345644E+00  1.00000000E+00  1.00000000E+00  1.00000000E+00
  1.83477216E-03  1.39946270E-02  6.85865518E-02  2.32240873E-01  4.69069948E-01
  3.60455199E-01 -1.14961182E-01 -1.69117479E-01  1.14585195E+00  1.00000000E+00
  1.00000000E+00  1.00000000E+00
P(S=P) Contraction coefficients            R   N=          72
  0.00000000E+00  0.00000000E+00  0.00000000E+00  0.00000000E+00  0.00000000E+00
  0.00000000E+00  6.89990666E-02  3.16423961E-01  7.44308291E-01  1.00000000E+00
  1.00000000E+00  0.00000000E+00  0.00000000E+00  0.00000000E+00  0.00000000E+00
  0.00000000E+00  0.00000000E+00  0.00000000E+00  3.98940088E-03  3.03177067E-02
  1.29880029E-01  3.27951072E-01  4.53527100E-01  2.52154056E-01 -1.42993147E-02
  3.23572333E-01  7.43507765E-01  1.00000000E+00  1.00000000E+00  0.00000000E+00
  0.00000000E+00  0.00000000E+00  0.00000000E+00  0.00000000E+00  0.00000000E+00
  0.00000000E+00  0.00000000E+00  0.00000000E+00  0.00000000E+00  0.00000000E+00
  0.00000000E+00  0.00000000E+00  0.00000000E+00  0.00000000E+00  0.00000000E+00
  0.00000000E+00  0.00000000E+00  0.00000000E+00  0.00000000E+00  0.00000000E+00
  0.00000000E+00  0.00000000E+00  0.00000000E+00  0.00000000E+00  6.89990666E-02
  3.16423961E-01  7.44308291E-01  1.00000000E+00  1.00000000E+00  0.00000000E+00
  0.00000000E+00  0.00000000E+00  0.00000000E+00  0.00000000E+00  0.00000000E+00
  0.00000000E+00  6.75797439E-02  3.23907296E-01  7.40895140E-01  1.00000000E+00
  1.00000000E+00  0.00000000E+00
Coordinates of each shell                  R   N=          99
  1.30666058E+00 -1.88972612E-06  7.29434284E-04  1.30666058E+00 -1.88972612E-06
  7.29434284E-04  1.30666058E+00 -1.88972612E-06  7.29434284E-04  1.30666058E+00
 -1.88972612E-06  7.29434284E-04  1.30666058E+00 -1.88972612E-06  7.29434284E-04
 -4.39250964E+00  0.00000000E+00 -1.17163020E-04 -4.39250964E+00  0.00000000E+00
 -1.17163020E-04 -4.39250964E+00  0.00000000E+00 -1.17163020E-04 -4.39250964E+00
  0.00000000E+00 -1.17163020E-04 -4.39250964E+00  0.00000000E+00 -1.17163020E-04
 -4.39250964E+00  0.00000000E+00 -1.17163020E-04  5.97822418E-01  4.55423996E-03
 -1.92670618E+00  5.97822418E-01  4.55423996E-03 -1.92670618E+00  5.97822418E-01
  4.55423996E-03 -1.92670618E+00  5.97822418E-01  4.55423996E-03 -1.92670618E+00
  6.00917790E-01  1.66810660E+00  9.68838018E-01  6.00917790E-01  1.66810660E+00
  9.68838018E-01  6.00917790E-01  1.66810660E+00  9.68838018E-01  6.00917790E-01
  1.66810660E+00  9.68838018E-01  6.01401560E-01 -1.67252667E+00  9.60944632E-01
  6.01401560E-01 -1.67252667E+00  9.60944632E-01  6.01401560E-01 -1.67252667E+00
  9.60944632E-01  6.01401560E-01 -1.67252667E+00  9.60944632E-01  4.05237217E+00
 -1.88972612E-06 -5.40461672E-04  4.05237217E+00 -1.88972612E-06 -5.40461672E-04
  4.05237217E+00 -1.88972612E-06 -5.40461672E-04  4.05237217E+00 -1.88972612E-06
 -5.40461672E-04  4.05237217E+00 -1.88972612E-06 -5.40461672E-04  6.24708497E+00
 -5.66917837E-06 -9.25965801E-05  6.24708497E+00 -5.66917837E-06 -9.25965801E-05
  6.24708497E+00 -5.66917837E-06 -9.25965801E-05  6.24708497E+00 -5.66917837E-06
 -9.25965801E-05  6.24708497E+00 -5.66917837E-06 -9.25965801E-05
Num ILSW                                   I              100
ILSW                                       I   N=         100
           0           1           0           0           2           0
           0           0           0           0         402          -1
           5           0           0           0           2           0
           0           0           0           0           1           0
           1           1           0           0           0           0
           0           0      100000           0          -1           0
           0           0           0           0           0           0
           0           0           0           1           0           0
           0 -2000000000           1           0           0           0
           0           0           4          52           0           0
           0           0           5           0           0           0
           0           0           0           7           0           1
           0           0           0           0           0           0
           0           0           0           0           0           0
           0           0           0           0           0           0
           0           0           0           0           0           0
           0           0           0           0
Num RLSW                                   I               52
RLSW                                       R   N=          52
  8.00000000E-01  7.20000000E-01  1.00000000E+00  8.10000000E-01  2.00000000E-01
  0.00000000E+00  0.00000000E+00  1.00000000E+00  0.00000000E+00  0.00000000E+00
  0.00000000E+00  0.00000000E+00  1.00000000E+00  0.00000000E+00  0.00000000E+00
  0.00000000E+00  0.00000000E+00  1.00000000E+00  0.00000000E+00  0.00000000E+00
  0.00000000E+00  0.00000000E+00  1.00000000E+00  0.00000000E+00  0.00000000E+00
  0.00000000E+00  0.00000000E+00  1.00000000E+00  0.00000000E+00  0.00000000E+00
  0.00000000E+00  0.00000000E+00  1.00000000E+00  0.00000000E+00  0.00000000E+00
  0.00000000E+00  0.00000000E+00  0.00000000E+00  1.00000000E+00  1.00000000E+00
  0.00000000E+00  1.00000000E+00  0.00000000E+00  0.00000000E+00  0.00000000E+00
  0.00000000E+00  0.00000000E+00  0.00000000E+00  0.00000000E+00  0.00000000E+00
  0.00000000E+00  0.00000000E+00
MxBond                                     I                4
NBond                                      I   N=           7
           4           0           1           1           1           2
           1
IBond                                      I   N=          28
           3           4           5           6           0           0
           0           0           1           0           0           0
           1           0           0           0           1           0
           0           0           1           7           0           0
           6           0           0           0
RBond                                      R   N=          28
  1.00000000E+00  1.00000000E+00  1.00000000E+00  1.00000000E+00  0.00000000E+00
  0.00000000E+00  0.00000000E+00  0.00000000E+00  1.00000000E+00  0.00000000E+00
  0.00000000E+00  0.00000000E+00  1.00000000E+00  0.00000000E+00  0.00000000E+00
  0.00000000E+00  1.00000000E+00  0.00000000E+00  0.00000000E+00  0.00000000E+00
  1.00000000E+00  3.00000000E+00  0.00000000E+00  0.00000000E+00  3.00000000E+00
  0.00000000E+00  0.00000000E+00  0.00000000E+00
Virial Ratio                               R      2.004573974962850E+00
SCF Energy                                 R     -5.930579695028296E+02
Total Energy                               R     -5.930579695028296E+02
RMS Force                                  R      3.629474254661600E-03
RMS Density                                R      1.496145576426859E-09
NImag                                      I                2
Job Status                                 I                1
Nuclear derivative order                   I                2
External E-field                           R   N=          35
  0.00000000E+00  0.00000000E+00  0.00000000E+00  0.00000000E+00  0.00000000E+00
  0.00000000E+00  0.00000000E+00  0.00000000E+00  0.00000000E+00  0.00000000E+00
  0.00000000E+00  0.00000000E+00  0.00000000E+00  0.00000000E+00  0.00000000E+00
  0.00000000E+00  0.00000000E+00  0.00000000E+00  0.00000000E+00  0.00000000E+00
  0.00000000E+00  0.00000000E+00  0.00000000E+00  0.00000000E+00  0.00000000E+00
  0.00000000E+00  0.00000000E+00  0.00000000E+00  0.00000000E+00  0.00000000E+00
  0.00000000E+00  0.00000000E+00  0.00000000E+00  0.00000000E+00  0.00000000E+00
IOpCl                                      I                0
IROHF                                      I                0
Alpha Orbital Energies                     R   N=          98
 -1.01254853E+02 -1.42212187E+01 -1.01176790E+01 -1.00855157E+01 -9.16869813E+00
 -6.92656935E+00 -6.92656910E+00 -6.92620299E+00 -7.92080975E-01 -6.37266836E-01
 -5.08884263E-01 -3.72657661E-01 -3.20777542E-01 -3.20639360E-01 -2.52754522E-01
 -2.10674695E-01 -2.10652763E-01 -5.44031010E-02 -5.44029249E-02 -5.36466424E-02
  1.04250567E-01  1.40843313E-01  1.40867069E-01  1.45172308E-01  1.52790381E-01
  1.52805171E-01  2.01156028E-01  2.08693224E-01  2.08701241E-01  2.19260868E-01
  2.35814612E-01  2.35834746E-01  2.57359156E-01  2.60891322E-01  2.60908059E-01
  3.01630145E-01  3.30923738E-01  3.40944264E-01  3.40948298E-01  3.50867593E-01
  3.50885722E-01  3.64874634E-01  3.95143822E-01  4.17123178E-01  4.90081959E-01
  6.92476567E-01  7.92154162E-01  7.92178780E-01  8.46425742E-01  8.46478013E-01
  8.57275862E-01  8.57289063E-01  8.64049883E-01  9.05465061E-01  9.82684782E-01
  1.02997509E+00  1.03014674E+00  1.04164321E+00  1.09974057E+00  1.12644786E+00
  1.12648191E+00  1.15271493E+00  1.15272227E+00  1.16322300E+00  1.16330186E+00
  1.23089126E+00  1.27910293E+00  1.31120572E+00  1.46102525E+00  1.46119100E+00
  1.54888551E+00  1.63251835E+00  1.63252488E+00  1.87321603E+00  1.87334850E+00
  1.92807260E+00  2.06039662E+00  2.06046037E+00  2.15641466E+00  2.25019715E+00
  2.25039579E+00  2.33650985E+00  2.40925818E+00  2.40930597E+00  2.80718525E+00
  2.81770473E+00  2.81780759E+00  3.06992895E+00  3.10744383E+00  3.10793225E+00
  3.29977023E+00  3.47470501E+00  3.56639062E+00  3.56666734E+00  4.26775607E+00
  4.45872253E+00  4.58953814E+00  4.82120321E+00
Alpha MO coefficients                      R   N=        9604
  9.16048533E-07  2.80285487E-05  3.24818654E-06 -2.45657965E-09  2.25288476E-08
 -1.85555603E-04 -1.47981234E-04  1.27354801E-09  8.87628516E-08  1.70445799E-03
  6.85164942E-04 -5.29898046E-09 -1.58864843E-07 -3.05085720E-05  2.73169577E-07
  2.48179420E-07 -1.96571137E-10  2.55135446E-08 -9.37574320E-10  9.95997836E-01
  1.51416942E-02  2.74874799E-06  5.61570431E-10 -3.67295563E-09 -2.10652677E-02
 -7.07838360E-06 -8.85700484E-10  8.06926173E-09  1.96786192E-03  1.37872113E-05
  1.72974903E-09 -1.64113718E-08 -2.48670043E-04  2.99621389E-06 -1.61433902E-09
  4.04828736E-08  7.50439233E-03  7.50820593E-03  7.50820601E-03  1.12424529E-10
 -1.18769882E-09  8.22104920E-12  3.31878934E-07 -3.73130680E-05  7.79955105E-05
  1.38603052E-05  1.70052103E-08 -7.36447488E-06  4.17621213E-07 -3.74124363E-05
  7.79475353E-05  1.37963880E-05  6.37730498E-06  3.70390878E-06  4.27581191E-07
 -3.74253493E-05  7.79441245E-05  1.37873389E-05 -6.39559681E-06  3.67406954E-06
 -1.07214486E-06 -1.18751462E-05  1.83752411E-06  5.99867120E-10  1.50132511E-09
 -7.84078527E-05 -3.26681246E-04 -3.98966079E-09  5.17438971E-08 -2.13151040E-03
  5.16396730E-04  2.41036883E-09 -4.66003612E-07  1.12632080E-05 -5.58777047E-07
 -5.61769863E-07  1.22429710E-12 -1.11423940E-08 -2.06326263E-10 -3.82117910E-06
 -1.84199969E-05  3.64787971E-06 -3.06111684E-10  1.28156458E-08  2.66308925E-04
 -1.04679762E-04  2.33510675E-09 -9.18830488E-08  2.67534528E-04 -1.09447925E-04
  2.43327139E-10  1.11167559E-07 -4.39990187E-06 -6.99658530E-06 -6.99641508E-06
 -4.57451126E-10  7.24212175E-09  4.05874354E-12  9.20055254E-06 -1.89423012E-04
  2.72713655E-04  5.68591476E-09 -1.85668048E-07  1.08100814E-03  7.22847094E-04
 -1.23443729E-09 -7.42682564E-07  1.16942669E-02  3.47517239E-03 -4.97611937E-09
 -1.55526768E-06  4.78899763E-04  2.56502790E-05  2.57248413E-05 -3.95160598E-09
 -3.84540085E-07  3.46977276E-09 -3.86063623E-08 -4.10804558E-06  4.65963486E-06
  1.17060370E-10  2.65610850E-09 -2.12413463E-06 -2.99857067E-05 -6.64111200E-10
 -1.44432030E-08  1.58453503E-06  1.01024857E-04  1.74332442E-09  2.72407361E-08
  5.70761593E-04  1.55268041E-04  7.36975494E-11  1.98349629E-07  3.09008845E-06
 -1.55937493E-05 -1.55912671E-05  2.96020075E-10  1.16060401E-08  4.48772401E-11
 -1.26920191E-07 -5.47070025E-05 -1.68371907E-04 -4.60771112E-06  2.09475683E-09
 -7.14060756E-07 -6.77652971E-08 -5.43414961E-05 -1.68299431E-04 -4.57096320E-06
  5.51409515E-07  3.46783521E-07 -6.62031522E-08 -5.43453029E-05 -1.68356157E-04
 -4.56557921E-06 -5.40100992E-07  3.37243852E-07  7.97951612E-05  3.34182911E-04
 -5.57881690E-04  1.42281381E-09 -1.31081170E-07 -4.62963279E-05  1.47313565E-03
 -3.54819268E-09 -4.15816913E-07 -9.69042400E-03  4.74217153E-03 -1.22746051E-08
 -1.92035265E-06 -1.44749923E-03  2.24093961E-05  2.24092338E-05  3.03656367E-09
 -8.68740782E-08 -5.90306378E-10  9.92763344E-01  3.47369148E-02 -2.13997538E-03
 -6.22240895E-09 -5.64040954E-07  3.46796703E-03  8.56380344E-04  4.56539453E-09
  3.31474730E-07 -3.26975212E-03 -4.95449292E-04  4.78468920E-10  6.25734318E-07
 -7.31384168E-03 -8.36503371E-03 -8.36503550E-03 -2.66015868E-09  2.72403885E-07
 -2.12948995E-10  5.28869788E-03  5.90304435E-05 -4.45619845E-04  3.05028760E-08
  2.68227158E-07  7.58235448E-03  2.97038353E-03  1.33383957E-08 -2.97095669E-06
  9.48916514E-02  3.63370611E-02  1.48808341E-08 -1.19218955E-05 -9.91390365E-04
 -1.97180080E-04 -1.96923074E-04  3.71981082E-09  5.37076968E-07  3.15916563E-08
 -3.36389115E-07 -9.82425073E-06  2.67580844E-05  1.19944658E-09  1.69443842E-08
 -1.85490303E-05 -1.68943535E-04 -7.03795907E-09 -9.28403127E-08 -1.69414738E-04
  6.80825519E-04  1.89327973E-08  1.91754268E-07  7.02273394E-03  2.43226018E-03
 -1.94382722E-08  1.80718373E-06  3.16533923E-05 -4.58400482E-05 -4.58163559E-05
  2.47102841E-09  7.32223076E-08  5.05189749E-10 -1.21857858E-04 -6.47742426E-04
  6.07370821E-04  3.75519108E-05 -4.40506825E-08  1.96426758E-05 -1.21486933E-04
 -6.46640808E-04  6.12477782E-04  3.79850656E-05 -1.71179760E-05 -9.86234270E-06
 -1.21411592E-04 -6.46698074E-04  6.12452525E-04  3.81569460E-05  1.71973513E-05
 -9.79844235E-06  9.92785111E-01  5.05223183E-02  2.91916700E-04 -3.87096331E-08
  9.24483881E-07 -1.08376544E-02  8.17658990E-03 -3.05917111E-08 -2.62028878E-06
 -1.07805482E-01  2.97705735E-02 -2.87053480E-08 -2.33693335E-05 -7.80524827E-03
 -9.88214989E-03 -9.88217530E-03  9.61028622E-09 -4.75844479E-08 -4.94581084E-09
 -4.66518984E-04  3.79827886E-04  3.43168121E-04 -1.13801840E-09  2.35739449E-07
 -8.35243459E-03  3.41790559E-03  6.88752944E-09  1.13129294E-06  9.02138724E-03
 -7.03930440E-03  2.08374301E-08  6.05932445E-06 -4.21382946E-05  3.52148025E-04
  3.52154361E-04 -2.95443941E-09 -5.26671759E-07  2.09761924E-10  9.93009570E-01
  5.07523466E-02  7.77670564E-04 -1.31588404E-07 -4.64539433E-08 -2.47534547E-02
 -4.63904984E-03  3.84684379E-07  4.25486088E-06  5.11601714E-02  2.27394956E-02
 -3.95166736E-07 -2.64173189E-06 -8.96667281E-03 -8.88786247E-03 -8.88855690E-03
  4.99958399E-09  3.06738921E-07 -8.98431054E-08  1.56563485E-06  1.83124921E-05
  3.59592000E-06 -3.43402942E-09  4.44248301E-08  7.68542162E-05 -2.44927742E-05
  2.05015677E-08 -2.69029094E-07 -4.17604570E-04  1.61505030E-04 -4.94868559E-08
  7.51132278E-07  5.27970695E-03  1.90027304E-03 -2.09652455E-08  9.76547424E-07
  1.56707089E-05  2.90635185E-05  2.89989908E-05 -1.16783561E-08  1.69139064E-07
 -2.92990169E-09  2.96045633E-06  3.25013686E-03  3.99291087E-04  2.67143503E-05
  2.37515813E-07 -1.16147242E-04  2.86861046E-06  3.24699743E-03  3.98857439E-04
  2.60900506E-05  1.00627049E-04  5.84504387E-05  2.78232851E-06  3.24786208E-03
  3.98308813E-04  2.59938778E-05 -1.00844139E-04  5.79031537E-05 -5.58818962E-03
 -4.03875243E-04  2.72485770E-04 -3.20047569E-08  1.61363641E-07  3.52286616E-03
 -9.51965916E-03  1.74361310E-07  4.42270060E-07 -6.09594541E-02  1.53594590E-02
  3.39100658E-07 -1.66522221E-05 -8.34325879E-04 -4.51434282E-07 -2.90555322E-07
 -1.14319057E-08  4.49550069E-07  2.40345950E-08 -1.82352971E-05 -4.80199137E-05
 -2.48161664E-04  8.25572729E-09  2.49683250E-08  5.36706664E-03 -1.76194056E-03
 -4.84726284E-08 -1.94315483E-06  5.23680287E-03 -2.71671301E-03 -1.52341413E-07
  4.98431367E-06  1.45302765E-04 -7.49945179E-05 -7.49961660E-05  9.56009600E-09
  3.47630888E-07 -1.34750786E-09  5.49659916E-05  3.23994852E-04  2.30106064E-04
  9.38257603E-09 -1.63165933E-07 -5.53137654E-03 -4.74098131E-03 -1.55529337E-07
  3.80269604E-06  1.00260942E-02  7.84952340E-03  2.83473461E-07 -2.63424948E-06
 -1.34843424E-04  9.16303382E-05  9.15416446E-05  2.20685635E-08  1.88703724E-07
 -3.99536231E-09 -2.84636928E-01  1.02268305E+00  1.02481802E-04  5.97662070E-08
 -3.98101463E-07  7.51892854E-02  4.85859238E-04  1.26970724E-08  1.41050375E-08
 -2.15851503E-02 -1.50173694E-03 -2.78720849E-08  7.63439426E-09  1.33893122E-02
  4.46719819E-03  9.39132891E-08 -6.65170706E-07 -1.56406726E-02 -1.55676783E-02
 -1.55676306E-02  4.10330193E-09 -5.07314322E-08  2.51138539E-09 -4.74899732E-05
 -5.55989223E-04 -2.76196063E-03  1.03478266E-04  9.60896719E-08 -3.73042271E-05
 -4.69851956E-05 -5.59172682E-04 -2.74871666E-03  1.04148447E-04  3.25893742E-05
  1.87220313E-05 -4.68990697E-05 -5.59522211E-04 -2.74817590E-03  1.04201860E-04
 -3.27060333E-05  1.85949420E-05 -5.09264836E-05 -3.09686178E-04 -2.85143166E-05
  7.63249979E-09 -1.07288183E-07  5.76616836E-04 -7.10489726E-03 -2.23967476E-08
  1.91855891E-06 -6.19419847E-03  8.16885736E-04 -1.60116366E-07 -2.71133096E-06
  9.19549991E-05 -5.10762880E-05 -5.11439529E-05  2.77523307E-09 -1.43416801E-07
 -4.38281635E-09 -1.21921486E-04 -4.93002636E-04  2.35161556E-05 -1.29292421E-09
  1.83252734E-07  6.51176768E-03 -1.94928054E-03  1.23743161E-08 -1.82524653E-06
 -2.06431073E-03  1.04350589E-03  4.31756304E-08  6.62472594E-07 -1.92456574E-04
 -2.38433834E-04 -2.38425073E-04 -1.57737308E-09  2.07441534E-07  2.13768571E-10
 -1.73311645E-07 -7.90187674E-07 -7.13898169E-08 -1.58911113E-06 -2.27557355E-05
  6.55669274E-06 -2.28545795E-06 -4.25369646E-05 -6.13531743E-04  1.39616110E-05
  3.88045484E-07  2.44793406E-05  3.53533388E-04 -2.13613243E-07 -3.84389226E-05
  3.80737291E-05  2.13965695E-06  3.09775637E-05 -3.37576472E-06 -1.68043761E-07
  5.18143197E-07 -8.15818607E-04  6.87312053E-02  9.88429563E-01 -2.59814908E-07
 -2.46821615E-05  2.05758783E-03  2.95905431E-02  1.34298656E-06  9.79591988E-06
 -7.96270346E-04 -1.14517990E-02 -4.51621860E-06 -5.38127949E-06  3.46053044E-04
  4.97800793E-03 -1.71350433E-07  2.49384525E-06 -2.80830314E-06  2.66896257E-06
  3.83893799E-05  2.36440388E-07  1.62334563E-04 -1.19375337E-03  4.49265764E-03
  4.62028232E-05  1.77217979E-06 -1.26238576E-04 -9.10691206E-05  6.63269270E-04
 -2.52704286E-03 -2.56416841E-05 -6.94910995E-05 -2.07277129E-05 -7.08314716E-05
  5.15468249E-04 -1.96867084E-03 -1.99169938E-05  5.67252206E-05 -1.13429564E-05
  1.17615275E-08  2.52862835E-08  9.75455874E-09  3.48668255E-06  5.01698028E-05
 -4.97243925E-06 -3.11392041E-06 -7.50399746E-06 -1.07883112E-04 -1.87238822E-06
  3.21688324E-07  8.18614401E-05  1.18052873E-03 -8.67094630E-08 -6.98210833E-06
  7.12971376E-06 -1.23297881E-06 -1.77706987E-05 -6.21489802E-07 -1.25092303E-07
 -4.91172330E-07  2.32368540E-08 -9.62413171E-07 -1.39094976E-05  5.49167910E-06
 -2.28176517E-06  6.20732446E-06  8.96032863E-05 -1.02008278E-06  1.03212360E-06
 -2.79573861E-05 -4.04033612E-04 -6.19687477E-08  3.26824488E-06 -3.87102348E-06
 -8.18177038E-07 -1.17564604E-05  3.15982153E-07  3.21799619E-08  1.75979167E-07
 -4.47015696E-10 -2.30760513E-05  1.59780162E-06 -1.78983313E-06 -1.62870526E-07
 -6.10546135E-04  4.25808735E-05 -1.73163028E-05 -5.48466491E-06  3.52528263E-04
 -2.46151226E-05  1.92400255E-08  2.94826393E-06 -2.90159005E-06  3.06561565E-05
 -2.14608639E-06 -4.39567125E-05  3.75866829E-08 -1.13014810E-07  1.60383110E-04
  9.88429971E-01 -6.87310962E-02  7.18410949E-08  4.89359898E-06  2.95901760E-02
 -2.05758458E-03 -2.92042441E-07 -2.06358815E-06 -1.14508030E-02  7.96277955E-04
 -1.90586991E-07  6.88126522E-07  4.97592015E-03 -3.46100526E-04  3.03539225E-08
 -1.54703059E-07  2.43719932E-07  3.84095469E-05 -2.67131371E-06  3.02599841E-06
 -1.16946412E-05  8.62208373E-05 -3.22935907E-04 -3.32624745E-06  2.03884611E-05
  9.14482198E-06 -1.34898913E-04  9.84807060E-04 -3.72157206E-03 -3.80639107E-05
 -8.45320014E-05 -6.22520315E-05  1.46481486E-04 -1.06847532E-03  4.04502276E-03
  4.12986319E-05 -9.38454238E-05  6.41074538E-05 -2.33229979E-08 -1.03051680E-07
  1.42434671E-10  5.02233216E-05 -3.49428653E-06  8.47533910E-07 -7.58703848E-07
 -1.08803477E-04  7.56384537E-06  1.61866281E-05 -4.90697258E-06  1.17759128E-03
 -8.21082510E-05 -1.76963657E-08  5.02314035E-07 -5.79702171E-07 -1.76952667E-05
  1.23314539E-06 -8.11567372E-06  3.30607361E-09  2.03943451E-09  1.22719270E-09
 -1.38792597E-05  9.69881751E-07  2.30897525E-07 -1.04310103E-07  8.96078103E-05
 -6.25431286E-06 -4.75898362E-08  5.31199849E-07 -4.01978282E-04  2.80880964E-05
  1.30692727E-08 -2.60110105E-07  2.86952903E-07 -1.18247611E-05  8.21591469E-07
  4.12368169E-06 -1.25839237E-05  4.19776399E-05  2.12769052E-04  1.26630200E-08
 -2.13679182E-07 -5.41249254E-03 -5.48633715E-03  6.65112007E-08  2.99180553E-06
 -1.27112683E-01 -5.19797467E-02 -7.49285334E-08  1.33208997E-05 -1.56232410E-04
 -8.11748009E-05 -8.10193480E-05  2.08863180E-08  8.15185877E-08  1.95068199E-08
  7.19212035E-05 -9.40503373E-05  9.90694698E-01 -1.03420873E-04  8.24994124E-04
  4.31238829E-04  3.03459960E-02 -3.08833409E-06  2.48970366E-05 -1.79783684E-03
 -1.36243406E-02  1.18495929E-06 -1.00207378E-05 -8.47514893E-03  1.66847753E-03
 -4.80847411E-07  1.48156696E-06  1.64018528E-04  3.29641598E-04  3.29639798E-04
  1.47248962E-09 -1.29743238E-07 -1.22967227E-11 -1.63958334E-04  1.50881678E-04
 -2.65480103E-03  9.67275793E-05 -6.17422794E-08  2.63463162E-05 -1.64078111E-04
  1.49691593E-04 -2.66146337E-03  9.80012438E-05 -2.25404449E-05 -1.32884475E-05
 -1.64028666E-04  1.49836250E-04 -2.66273190E-03  9.81149365E-05  2.26169960E-05
 -1.31902188E-05 -1.56041294E-04 -7.37628890E-04  7.31852140E-06 -1.02466828E-08