 Entering Gaussian System, Link 0=g16
 Initial command:
 /usr/local/g16_AVX//g16/l1.exe "/scratch/alanqf/0048-54490.ixchel.mda.cinvestav.mx/Gau-18588.inp" -scrdir="/scratch/alanqf/0048-54490.ixchel.mda.cinvestav.mx/"
 Entering Link 1 = /usr/local/g16_AVX//g16/l1.exe PID=     18589.
  
 Copyright (c) 1988-2017, Gaussian, Inc.  All Rights Reserved.
  
 This is part of the Gaussian(R) 16 program.  It is based on
 the Gaussian(R) 09 system (copyright 2009, Gaussian, Inc.),
 the Gaussian(R) 03 system (copyright 2003, Gaussian, Inc.),
 the Gaussian(R) 98 system (copyright 1998, Gaussian, Inc.),
 the Gaussian(R) 94 system (copyright 1995, Gaussian, Inc.),
 the Gaussian 92(TM) system (copyright 1992, Gaussian, Inc.),
 the Gaussian 90(TM) system (copyright 1990, Gaussian, Inc.),
 the Gaussian 88(TM) system (copyright 1988, Gaussian, Inc.),
 the Gaussian 86(TM) system (copyright 1986, Carnegie Mellon
 University), and the Gaussian 82(TM) system (copyright 1983,
 Carnegie Mellon University). Gaussian is a federally registered
 trademark of Gaussian, Inc.
  
 This software contains proprietary and confidential information,
 including trade secrets, belonging to Gaussian, Inc.
  
 This software is provided under written license and may be
 used, copied, transmitted, or stored only in accord with that
 written license.
  
 The following legend is applicable only to US Government
 contracts under FAR:
  
                    RESTRICTED RIGHTS LEGEND
  
 Use, reproduction and disclosure by the US Government is
 subject to restrictions as set forth in subparagraphs (a)
 and (c) of the Commercial Computer Software - Restricted
 Rights clause in FAR 52.227-19.
  
 Gaussian, Inc.
 340 Quinnipiac St., Bldg. 40, Wallingford CT 06492
  
  
 ---------------------------------------------------------------
 Warning -- This program may not be used in any manner that
 competes with the business of Gaussian, Inc. or will provide
 assistance to any competitor of Gaussian, Inc.  The licensee
 of this program is prohibited from giving any competitor of
 Gaussian, Inc. access to this program.  By using this program,
 the user acknowledges that Gaussian, Inc. is engaged in the
 business of creating and licensing software in the field of
 computational chemistry and represents and warrants to the
 licensee that it is not a competitor of Gaussian, Inc. and that
 it will not use this program in any manner prohibited above.
 ---------------------------------------------------------------
  

 Cite this work as:
 Gaussian 16, Revision B.01,
 M. J. Frisch, G. W. Trucks, H. B. Schlegel, G. E. Scuseria, 
 M. A. Robb, J. R. Cheeseman, G. Scalmani, V. Barone, 
 G. A. Petersson, H. Nakatsuji, X. Li, M. Caricato, A. V. Marenich, 
 J. Bloino, B. G. Janesko, R. Gomperts, B. Mennucci, H. P. Hratchian, 
 J. V. Ortiz, A. F. Izmaylov, J. L. Sonnenberg, D. Williams-Young, 
 F. Ding, F. Lipparini, F. Egidi, J. Goings, B. Peng, A. Petrone, 
 T. Henderson, D. Ranasinghe, V. G. Zakrzewski, J. Gao, N. Rega, 
 G. Zheng, W. Liang, M. Hada, M. Ehara, K. Toyota, R. Fukuda, 
 J. Hasegawa, M. Ishida, T. Nakajima, Y. Honda, O. Kitao, H. Nakai, 
 T. Vreven, K. Throssell, J. A. Montgomery, Jr., J. E. Peralta, 
 F. Ogliaro, M. J. Bearpark, J. J. Heyd, E. N. Brothers, K. N. Kudin, 
 V. N. Staroverov, T. A. Keith, R. Kobayashi, J. Normand, 
 K. Raghavachari, A. P. Rendell, J. C. Burant, S. S. Iyengar, 
 J. Tomasi, M. Cossi, J. M. Millam, M. Klene, C. Adamo, R. Cammi, 
 J. W. Ochterski, R. L. Martin, K. Morokuma, O. Farkas, 
 J. B. Foresman, and D. J. Fox, Gaussian, Inc., Wallingford CT, 2016.
 
 ******************************************
 Gaussian 16:  ES64L-G16RevB.01 20-Dec-2017
                13-Oct-2024 
 ******************************************
 %NProcShared=26
 Will use up to   26 processors via shared memory.
 %MEM=20GB
 %chk=CHKfiles/0048.chk
 ---------------------------------------------------------------------
 #p b3lyp 6-31++g(d,p) scf=verytight NoSymm freq=noraman int=ultrafine
 ---------------------------------------------------------------------
 1/10=4,30=1,38=1/1,3;
 2/12=2,15=1,17=6,18=5,40=1/2;
 3/5=1,6=6,7=1111,11=2,25=1,30=1,71=2,74=-5,75=-5,140=1/1,2,3;
 4//1;
 5/5=2,17=3,38=5,98=1/2;
 8/6=4,10=90,11=11/1;
 11/6=1,8=1,9=11,15=111,16=1,31=1/1,2,10;
 10/6=1,31=1/2;
 6/7=2,8=2,9=2,10=2,28=1/1;
 7/8=1,10=1,25=1,30=1/1,2,3,16;
 1/10=4,30=1/3;
 99//99;
 Leave Link    1 at Sun Oct 13 09:48:42 2024, MaxMem=  2684354560 cpu:               1.5 elap:               0.1
 (Enter /usr/local/g16_AVX//g16/l101.exe)
 ------------------------
 RxCoord=-5.29766 DE=3.42
 ------------------------
 Symbolic Z-matrix:
 Charge = -1 Multiplicity = 1
 C                     0.6881    0.        0.00039 
 Cl                   -2.31811   0.       -0.00008 
 H                     0.30387   0.00238  -1.02047 
 H                     0.30535   0.88344   0.5132 
 H                     0.30529  -0.88588   0.50905 
 C                     2.13887   0.00001  -0.00028 
 N                     3.30045  0.        -0.00003 
 
 ITRead=  0  0  0  0  0  0  0
 MicOpt= -1 -1 -1 -1 -1 -1 -1
 NAtoms=      7 NQM=        7 NQMF=       0 NMMI=      0 NMMIF=      0
                NMic=       0 NMicF=      0.
                    Isotopes and Nuclear Properties:
 (Nuclear quadrupole moments (NQMom) in fm**2, nuclear magnetic moments (NMagM)
  in nuclear magnetons)

  Atom         1           2           3           4           5           6           7
 IAtWgt=          12          35           1           1           1          12          14
 AtmWgt=  12.0000000  34.9688527   1.0078250   1.0078250   1.0078250  12.0000000  14.0030740
 NucSpn=           0           3           1           1           1           0           2
 AtZEff=  -0.0000000  -0.0000000  -0.0000000  -0.0000000  -0.0000000  -0.0000000  -0.0000000
 NQMom=    0.0000000  -8.1650000   0.0000000   0.0000000   0.0000000   0.0000000   2.0440000
 NMagM=    0.0000000   0.8218740   2.7928460   2.7928460   2.7928460   0.0000000   0.4037610
 AtZNuc=   6.0000000  17.0000000   1.0000000   1.0000000   1.0000000   6.0000000   7.0000000
 Leave Link  101 at Sun Oct 13 09:48:42 2024, MaxMem=  2684354560 cpu:               2.9 elap:               0.1
 (Enter /usr/local/g16_AVX//g16/l103.exe)

 GradGradGradGradGradGradGradGradGradGradGradGradGradGradGradGradGradGrad
 Berny optimization.
 Initialization pass.
 Trust Radius=3.00D-01 FncErr=1.00D-07 GrdErr=1.00D-07 EigMax=2.50D+02 EigMin=1.00D-04
 Number of steps in this run=      2 maximum allowed number of steps=      2.
 GradGradGradGradGradGradGradGradGradGradGradGradGradGradGradGradGradGrad

 Leave Link  103 at Sun Oct 13 09:48:42 2024, MaxMem=  2684354560 cpu:               0.5 elap:               0.0
 (Enter /usr/local/g16_AVX//g16/l202.exe)
                          Input orientation:                          
 ---------------------------------------------------------------------
 Center     Atomic      Atomic             Coordinates (Angstroms)
 Number     Number       Type             X           Y           Z
 ---------------------------------------------------------------------
      1          6           0        0.688096    0.000000    0.000389
      2         17           0       -2.318109    0.000000   -0.000077
      3          1           0        0.303865    0.002376   -1.020467
      4          1           0        0.305349    0.883442    0.513204
      5          1           0        0.305287   -0.885883    0.509052
      6          6           0        2.138869    0.000009   -0.000283
      7          7           0        3.300446   -0.000003   -0.000027
 ---------------------------------------------------------------------
                    Distance matrix (angstroms):
                    1          2          3          4          5
     1  C    0.000000
     2  Cl   3.006205   0.000000
     3  H    1.090773   2.813530   0.000000
     4  H    1.090846   2.815397   1.768736   0.000000
     5  H    1.090903   2.815352   1.768738   1.769330   0.000000
     6  C    1.450773   4.456978   2.099529   2.099028   2.099107
     7  N    2.612350   5.618555   3.165565   3.164567   3.164636
                    6          7
     6  C    0.000000
     7  N    1.161577   0.000000
 Symmetry turned off by external request.
 Stoichiometry    C2H3ClN(1-)
 Framework group  C1[X(C2H3ClN)]
 Deg. of freedom    15
 Full point group                 C1      NOp   1
 Rotational constants (GHZ):         160.2537275           1.2544149           1.2544106
 Leave Link  202 at Sun Oct 13 09:48:42 2024, MaxMem=  2684354560 cpu:               0.2 elap:               0.0
 (Enter /usr/local/g16_AVX//g16/l301.exe)
 Standard basis: 6-31++G(d,p) (6D, 7F)
 Ernie: Thresh=  0.10000D-02 Tol=  0.10000D-05 Strict=F.
    98 basis functions,   176 primitive gaussians,    98 cartesian basis functions
    20 alpha electrons       20 beta electrons
       nuclear repulsion energy       109.3122799213 Hartrees.
 IExCor=  402 DFT=T Ex+Corr=B3LYP ExCW=0 ScaHFX=  0.200000
 ScaDFX=  0.800000  0.720000  1.000000  0.810000 ScalE2=  1.000000  1.000000
 IRadAn=      5 IRanWt=     -1 IRanGd=            0 ICorTp=0 IEmpDi=  4
 NAtoms=    7 NActive=    7 NUniq=    7 SFac= 1.00D+00 NAtFMM=   60 NAOKFM=F Big=F
 Integral buffers will be    131072 words long.
 Raffenetti 2 integral format.
 Two-electron integral symmetry is turned off.
 Leave Link  301 at Sun Oct 13 09:48:43 2024, MaxMem=  2684354560 cpu:               1.3 elap:               0.1
 (Enter /usr/local/g16_AVX//g16/l302.exe)
 NPDir=0 NMtPBC=     1 NCelOv=     1 NCel=       1 NClECP=     1 NCelD=      1
         NCelK=      1 NCelE2=     1 NClLst=     1 CellRange=     0.0.
 One-electron integrals computed using PRISM.
 NBasis=    98 RedAO= T EigKep=  1.23D-05  NBF=    98
 NBsUse=    98 1.00D-06 EigRej= -1.00D+00 NBFU=    98
 Precomputing XC quadrature grid using
 IXCGrd= 4 IRadAn=           5 IRanWt=          -1 IRanGd=           0 AccXCQ= 0.00D+00.
 Generated NRdTot=       0 NPtTot=           0 NUsed=           0 NTot=          32
 NSgBfM=    98    98    98    98    98 MxSgAt=     7 MxSgA2=     7.
 Leave Link  302 at Sun Oct 13 09:48:43 2024, MaxMem=  2684354560 cpu:               3.9 elap:               0.2
 (Enter /usr/local/g16_AVX//g16/l303.exe)
 DipDrv:  MaxL=1.
 Leave Link  303 at Sun Oct 13 09:48:43 2024, MaxMem=  2684354560 cpu:               0.8 elap:               0.1
 (Enter /usr/local/g16_AVX//g16/l401.exe)
 ExpMin= 3.60D-02 ExpMax= 2.52D+04 ExpMxC= 3.78D+03 IAcc=3 IRadAn=         5 AccDes= 0.00D+00
 Harris functional with IExCor=  402 and IRadAn=       5 diagonalized for initial guess.
 HarFok:  IExCor=  402 AccDes= 0.00D+00 IRadAn=         5 IDoV= 1 UseB2=F ITyADJ=14
 ICtDFT=  3500011 ScaDFX=  1.000000  1.000000  1.000000  1.000000
 FoFCou: FMM=F IPFlag=           0 FMFlag=      100000 FMFlg1=           0
         NFxFlg=           0 DoJE=T BraDBF=F KetDBF=T FulRan=T
         wScrn=  0.000000 ICntrl=       500 IOpCl=  0 I1Cent=   200000004 NGrid=           0
         NMat0=    1 NMatS0=      1 NMatT0=    0 NMatD0=    1 NMtDS0=    0 NMtDT0=    0
 Symmetry not used in FoFCou.
 Harris En= -593.112248541648    
 JPrj=0 DoOrth=F DoCkMO=F.
 Leave Link  401 at Sun Oct 13 09:48:43 2024, MaxMem=  2684354560 cpu:               5.9 elap:               0.3
 (Enter /usr/local/g16_AVX//g16/l502.exe)
 Keep R1 ints in memory in canonical form, NReq=35752935.
 FoFCou: FMM=F IPFlag=           0 FMFlag=           0 FMFlg1=           0
         NFxFlg=           0 DoJE=F BraDBF=F KetDBF=F FulRan=T
         wScrn=  0.000000 ICntrl=       600 IOpCl=  0 I1Cent=           0 NGrid=           0
         NMat0=    1 NMatS0=   4851 NMatT0=    0 NMatD0=    1 NMtDS0=    0 NMtDT0=    0
 Symmetry not used in FoFCou.
 Two-electron integral symmetry not used.
 Closed shell SCF:
 Using DIIS extrapolation, IDIIS=  1040.
 NGot=  2684354560 LenX=  2672563405 LenY=  2672553360
 Requested convergence on RMS density matrix=1.00D-08 within 128 cycles.
 Requested convergence on MAX density matrix=1.00D-06.
 Requested convergence on             energy=1.00D-06.
 No special actions if energy rises.

 Cycle   1  Pass 1  IDiag  1:
 E= -592.947386858316    
 DIIS: error= 2.85D-02 at cycle   1 NSaved=   1.
 NSaved= 1 IEnMin= 1 EnMin= -592.947386858316     IErMin= 1 ErrMin= 2.85D-02
 ErrMax= 2.85D-02  0.00D+00 EMaxC= 1.00D-01 BMatC= 1.05D-01 BMatP= 1.05D-01
 IDIUse=3 WtCom= 7.15D-01 WtEn= 2.85D-01
 Coeff-Com:  0.100D+01
 Coeff-En:   0.100D+01
 Coeff:      0.100D+01
 Gap=     0.178 Goal=   None    Shift=    0.000
 GapD=    0.178 DampG=1.000 DampE=0.500 DampFc=0.5000 IDamp=-1.
 Damping current iteration by 5.00D-01
 RMSDP=1.29D-02 MaxDP=3.05D-01              OVMax= 1.70D-01

 Cycle   2  Pass 1  IDiag  1:
 E= -592.989414616309     Delta-E=       -0.042027757993 Rises=F Damp=T
 DIIS: error= 1.27D-02 at cycle   2 NSaved=   2.
 NSaved= 2 IEnMin= 2 EnMin= -592.989414616309     IErMin= 2 ErrMin= 1.27D-02
 ErrMax= 1.27D-02  0.00D+00 EMaxC= 1.00D-01 BMatC= 1.33D-02 BMatP= 1.05D-01
 IDIUse=3 WtCom= 8.73D-01 WtEn= 1.27D-01
 Coeff-Com:  0.142D+00 0.858D+00
 Coeff-En:   0.215D+00 0.785D+00
 Coeff:      0.151D+00 0.849D+00
 Gap=     0.152 Goal=   None    Shift=    0.000
 RMSDP=5.36D-03 MaxDP=1.69D-01 DE=-4.20D-02 OVMax= 1.36D-01

 Cycle   3  Pass 1  IDiag  1:
 E= -593.040284651511     Delta-E=       -0.050870035202 Rises=F Damp=F
 DIIS: error= 1.33D-02 at cycle   3 NSaved=   3.
 NSaved= 3 IEnMin= 3 EnMin= -593.040284651511     IErMin= 2 ErrMin= 1.27D-02
 ErrMax= 1.33D-02  0.00D+00 EMaxC= 1.00D-01 BMatC= 1.93D-02 BMatP= 1.33D-02
 IDIUse=2 WtCom= 0.00D+00 WtEn= 1.00D+00
 Coeff-En:   0.000D+00 0.000D+00 0.100D+01
 Coeff:      0.000D+00 0.000D+00 0.100D+01
 Gap=     0.162 Goal=   None    Shift=    0.000
 RMSDP=7.84D-03 MaxDP=2.85D-01 DE=-5.09D-02 OVMax= 1.63D-01

 Cycle   4  Pass 1  IDiag  1:
 E= -592.945725947993     Delta-E=        0.094558703517 Rises=F Damp=F
 DIIS: error= 2.93D-02 at cycle   4 NSaved=   4.
 NSaved= 4 IEnMin= 3 EnMin= -593.040284651511     IErMin= 2 ErrMin= 1.27D-02
 ErrMax= 2.93D-02  0.00D+00 EMaxC= 1.00D-01 BMatC= 1.25D-01 BMatP= 1.33D-02
 IDIUse=2 WtCom= 0.00D+00 WtEn= 1.00D+00
 Coeff-En:   0.000D+00 0.000D+00 0.804D+00 0.196D+00
 Coeff:      0.000D+00 0.000D+00 0.804D+00 0.196D+00
 Gap=     0.159 Goal=   None    Shift=    0.000
 RMSDP=3.84D-03 MaxDP=1.40D-01 DE= 9.46D-02 OVMax= 8.27D-02

 Cycle   5  Pass 1  IDiag  1:
 E= -593.048371923185     Delta-E=       -0.102645975191 Rises=F Damp=F
 DIIS: error= 8.93D-03 at cycle   5 NSaved=   5.
 NSaved= 5 IEnMin= 5 EnMin= -593.048371923185     IErMin= 5 ErrMin= 8.93D-03
 ErrMax= 8.93D-03  0.00D+00 EMaxC= 1.00D-01 BMatC= 1.07D-02 BMatP= 1.33D-02
 IDIUse=3 WtCom= 9.11D-01 WtEn= 8.93D-02
 Coeff-Com: -0.677D-03 0.179D-01 0.321D+00-0.104D+00 0.766D+00
 Coeff-En:   0.000D+00 0.000D+00 0.392D+00 0.000D+00 0.608D+00
 Coeff:     -0.617D-03 0.163D-01 0.327D+00-0.943D-01 0.751D+00
 Gap=     0.159 Goal=   None    Shift=    0.000
 RMSDP=1.61D-03 MaxDP=5.68D-02 DE=-1.03D-01 OVMax= 3.30D-02

 Cycle   6  Pass 1  IDiag  1:
 E= -593.057953239840     Delta-E=       -0.009581316655 Rises=F Damp=F
 DIIS: error= 1.42D-04 at cycle   6 NSaved=   6.
 NSaved= 6 IEnMin= 6 EnMin= -593.057953239840     IErMin= 6 ErrMin= 1.42D-04
 ErrMax= 1.42D-04  0.00D+00 EMaxC= 1.00D-01 BMatC= 4.19D-06 BMatP= 1.07D-02
 IDIUse=3 WtCom= 9.99D-01 WtEn= 1.42D-03
 Coeff-Com: -0.135D-02 0.691D-02 0.119D+00-0.497D-01 0.324D+00 0.601D+00
 Coeff-En:   0.000D+00 0.000D+00 0.000D+00 0.000D+00 0.000D+00 0.100D+01
 Coeff:     -0.135D-02 0.690D-02 0.119D+00-0.497D-01 0.324D+00 0.602D+00
 Gap=     0.158 Goal=   None    Shift=    0.000
 RMSDP=4.24D-05 MaxDP=8.18D-04 DE=-9.58D-03 OVMax= 6.49D-04

 Cycle   7  Pass 1  IDiag  1:
 E= -593.057957129072     Delta-E=       -0.000003889232 Rises=F Damp=F
 DIIS: error= 6.48D-05 at cycle   7 NSaved=   7.
 NSaved= 7 IEnMin= 7 EnMin= -593.057957129072     IErMin= 7 ErrMin= 6.48D-05
 ErrMax= 6.48D-05  0.00D+00 EMaxC= 1.00D-01 BMatC= 5.17D-07 BMatP= 4.19D-06
 IDIUse=1 WtCom= 1.00D+00 WtEn= 0.00D+00
 Coeff-Com: -0.148D-03 0.621D-03 0.179D-01-0.929D-02 0.513D-01 0.190D+00
 Coeff-Com:  0.749D+00
 Coeff:     -0.148D-03 0.621D-03 0.179D-01-0.929D-02 0.513D-01 0.190D+00
 Coeff:      0.749D+00
 Gap=     0.158 Goal=   None    Shift=    0.000
 RMSDP=1.09D-05 MaxDP=2.79D-04 DE=-3.89D-06 OVMax= 2.45D-04

 Cycle   8  Pass 1  IDiag  1:
 E= -593.057957625445     Delta-E=       -0.000000496373 Rises=F Damp=F
 DIIS: error= 1.05D-05 at cycle   8 NSaved=   8.
 NSaved= 8 IEnMin= 8 EnMin= -593.057957625445     IErMin= 8 ErrMin= 1.05D-05
 ErrMax= 1.05D-05  0.00D+00 EMaxC= 1.00D-01 BMatC= 1.10D-08 BMatP= 5.17D-07
 IDIUse=1 WtCom= 1.00D+00 WtEn= 0.00D+00
 Coeff-Com:  0.513D-04-0.161D-03 0.399D-02-0.193D-02 0.105D-01 0.512D-01
 Coeff-Com:  0.257D+00 0.679D+00
 Coeff:      0.513D-04-0.161D-03 0.399D-02-0.193D-02 0.105D-01 0.512D-01
 Coeff:      0.257D+00 0.679D+00
 Gap=     0.158 Goal=   None    Shift=    0.000
 RMSDP=4.13D-06 MaxDP=1.22D-04 DE=-4.96D-07 OVMax= 3.33D-05

 Cycle   9  Pass 1  IDiag  1:
 E= -593.057957637376     Delta-E=       -0.000000011931 Rises=F Damp=F
 DIIS: error= 2.51D-06 at cycle   9 NSaved=   9.
 NSaved= 9 IEnMin= 9 EnMin= -593.057957637376     IErMin= 9 ErrMin= 2.51D-06
 ErrMax= 2.51D-06  0.00D+00 EMaxC= 1.00D-01 BMatC= 7.54D-10 BMatP= 1.10D-08
 IDIUse=1 WtCom= 1.00D+00 WtEn= 0.00D+00
 Coeff-Com:  0.312D-04-0.710D-04-0.680D-03 0.116D-03-0.151D-02-0.456D-03
 Coeff-Com:  0.184D-01 0.224D+00 0.761D+00
 Coeff:      0.312D-04-0.710D-04-0.680D-03 0.116D-03-0.151D-02-0.456D-03
 Coeff:      0.184D-01 0.224D+00 0.761D+00
 Gap=     0.158 Goal=   None    Shift=    0.000
 RMSDP=1.51D-06 MaxDP=5.59D-05 DE=-1.19D-08 OVMax= 7.69D-06

 Cycle  10  Pass 1  IDiag  1:
 E= -593.057957638176     Delta-E=       -0.000000000800 Rises=F Damp=F
 DIIS: error= 2.69D-07 at cycle  10 NSaved=  10.
 NSaved=10 IEnMin=10 EnMin= -593.057957638176     IErMin=10 ErrMin= 2.69D-07
 ErrMax= 2.69D-07  0.00D+00 EMaxC= 1.00D-01 BMatC= 1.57D-11 BMatP= 7.54D-10
 IDIUse=1 WtCom= 1.00D+00 WtEn= 0.00D+00
 Coeff-Com:  0.637D-05-0.176D-04-0.130D-03 0.587D-04-0.347D-03-0.352D-03
 Coeff-Com: -0.254D-02 0.296D-01 0.150D+00 0.824D+00
 Coeff:      0.637D-05-0.176D-04-0.130D-03 0.587D-04-0.347D-03-0.352D-03
 Coeff:     -0.254D-02 0.296D-01 0.150D+00 0.824D+00
 Gap=     0.158 Goal=   None    Shift=    0.000
 RMSDP=8.46D-08 MaxDP=2.02D-06 DE=-8.00D-10 OVMax= 1.27D-06

 Cycle  11  Pass 1  IDiag  1:
 E= -593.057957638190     Delta-E=       -0.000000000015 Rises=F Damp=F
 DIIS: error= 6.40D-08 at cycle  11 NSaved=  11.
 NSaved=11 IEnMin=11 EnMin= -593.057957638190     IErMin=11 ErrMin= 6.40D-08
 ErrMax= 6.40D-08  0.00D+00 EMaxC= 1.00D-01 BMatC= 5.82D-13 BMatP= 1.57D-11
 IDIUse=1 WtCom= 1.00D+00 WtEn= 0.00D+00
 Coeff-Com: -0.506D-06 0.607D-06-0.176D-04 0.908D-05-0.392D-04-0.100D-03
 Coeff-Com: -0.133D-02-0.132D-02 0.663D-02 0.121D+00 0.875D+00
 Coeff:     -0.506D-06 0.607D-06-0.176D-04 0.908D-05-0.392D-04-0.100D-03
 Coeff:     -0.133D-02-0.132D-02 0.663D-02 0.121D+00 0.875D+00
 Gap=     0.158 Goal=   None    Shift=    0.000
 RMSDP=1.03D-07 MaxDP=3.89D-06 DE=-1.49D-11 OVMax= 2.11D-07

 Cycle  12  Pass 1  IDiag  1:
 E= -593.057957638190     Delta-E=        0.000000000001 Rises=F Damp=F
 DIIS: error= 2.21D-08 at cycle  12 NSaved=  12.
 NSaved=12 IEnMin=11 EnMin= -593.057957638190     IErMin=12 ErrMin= 2.21D-08
 ErrMax= 2.21D-08  0.00D+00 EMaxC= 1.00D-01 BMatC= 1.70D-14 BMatP= 5.82D-13
 IDIUse=1 WtCom= 1.00D+00 WtEn= 0.00D+00
 Coeff-Com: -0.510D-06 0.107D-05-0.879D-06-0.167D-07 0.213D-05-0.152D-04
 Coeff-Com: -0.242D-03-0.130D-02-0.330D-02 0.396D-02 0.264D+00 0.736D+00
 Coeff:     -0.510D-06 0.107D-05-0.879D-06-0.167D-07 0.213D-05-0.152D-04
 Coeff:     -0.242D-03-0.130D-02-0.330D-02 0.396D-02 0.264D+00 0.736D+00
 Gap=     0.158 Goal=   None    Shift=    0.000
 RMSDP=1.89D-08 MaxDP=7.32D-07 DE= 9.09D-13 OVMax= 4.86D-08

 Cycle  13  Pass 1  IDiag  1:
 E= -593.057957638191     Delta-E=       -0.000000000001 Rises=F Damp=F
 DIIS: error= 1.05D-09 at cycle  13 NSaved=  13.
 NSaved=13 IEnMin=13 EnMin= -593.057957638191     IErMin=13 ErrMin= 1.05D-09
 ErrMax= 1.05D-09  0.00D+00 EMaxC= 1.00D-01 BMatC= 1.96D-16 BMatP= 1.70D-14
 IDIUse=1 WtCom= 1.00D+00 WtEn= 0.00D+00
 Coeff-Com: -0.761D-08 0.765D-08 0.334D-06-0.748D-07 0.504D-06-0.249D-05
 Coeff-Com:  0.147D-04-0.118D-04-0.283D-03 0.309D-03-0.129D-01 0.197D-02
 Coeff-Com:  0.101D+01
 Coeff:     -0.761D-08 0.765D-08 0.334D-06-0.748D-07 0.504D-06-0.249D-05
 Coeff:      0.147D-04-0.118D-04-0.283D-03 0.309D-03-0.129D-01 0.197D-02
 Coeff:      0.101D+01
 Gap=     0.158 Goal=   None    Shift=    0.000
 RMSDP=1.59D-09 MaxDP=5.01D-08 DE=-1.25D-12 OVMax= 8.27D-09

 SCF Done:  E(RB3LYP) =  -593.057957638     A.U. after   13 cycles
            NFock= 13  Conv=0.16D-08     -V/T= 2.0046
 KE= 5.903450618351D+02 PE=-1.629043586814D+03 EE= 3.363282874192D+02
 Leave Link  502 at Sun Oct 13 09:48:45 2024, MaxMem=  2684354560 cpu:              38.6 elap:               1.8
 (Enter /usr/local/g16_AVX//g16/l801.exe)
 DoSCS=F DFT=T ScalE2(SS,OS)=  1.000000  1.000000
 Range of M.O.s used for correlation:     1    98
 NBasis=    98 NAE=    20 NBE=    20 NFC=     0 NFV=     0
 NROrb=     98 NOA=    20 NOB=    20 NVA=    78 NVB=    78

 **** Warning!!: The largest alpha MO coefficient is  0.14156177D+03

 Leave Link  801 at Sun Oct 13 09:48:45 2024, MaxMem=  2684354560 cpu:               0.7 elap:               0.1
 (Enter /usr/local/g16_AVX//g16/l1101.exe)
 Using compressed storage, NAtomX=     7.
 Will process      8 centers per pass.
 Leave Link 1101 at Sun Oct 13 09:48:45 2024, MaxMem=  2684354560 cpu:               3.5 elap:               0.2
 (Enter /usr/local/g16_AVX//g16/l1102.exe)
 Symmetrizing basis deriv contribution to polar:
 IMax=3 JMax=2 DiffMx= 0.00D+00
 Leave Link 1102 at Sun Oct 13 09:48:45 2024, MaxMem=  2684354560 cpu:               0.7 elap:               0.1
 (Enter /usr/local/g16_AVX//g16/l1110.exe)
 Forming Gx(P) for the SCF density, NAtomX=     7.
 Integral derivatives from FoFJK, PRISM(SPDF).
 Do as many integral derivatives as possible in FoFJK.
 G2DrvN: MDV=    2684353864.
 G2DrvN: will do     8 centers at a time, making    1 passes.
 Calling FoFCou, ICntrl=  3107 FMM=F I1Cent=   0 AccDes= 0.00D+00.
 FoFJK:  IHMeth= 1 ICntrl=    3107 DoSepK=F KAlg= 0 I1Cent=           0 FoldK=F
 IRaf=         0 NMat=       1 IRICut=       1 DoRegI=T DoRafI=F ISym2E= 0 IDoP0=0 IntGTp=1.
 FoFCou: FMM=F IPFlag=           0 FMFlag=      100000 FMFlg1=           0
         NFxFlg=           0 DoJE=F BraDBF=F KetDBF=F FulRan=T
         wScrn=  0.000000 ICntrl=      3107 IOpCl=  0 I1Cent=           0 NGrid=           0
         NMat0=    1 NMatS0=      1 NMatT0=    0 NMatD0=    1 NMtDS0=    0 NMtDT0=    0
 Symmetry not used in FoFCou.
 End of G2Drv F.D. properties file   721 does not exist.
 End of G2Drv F.D. properties file   722 does not exist.
 End of G2Drv F.D. properties file   788 does not exist.
 Leave Link 1110 at Sun Oct 13 09:48:47 2024, MaxMem=  2684354560 cpu:              40.2 elap:               1.6
 (Enter /usr/local/g16_AVX//g16/l1002.exe)
 Minotr:  Closed shell wavefunction.
          IDoAtm=1111111
          Direct CPHF calculation.
          Differentiating once with respect to electric field.
                with respect to dipole field.
          Differentiating once with respect to nuclear coordinates.
          Requested convergence is 1.0D-08 RMS, and 1.0D-07 maximum.
          Secondary convergence is 1.0D-12 RMS, and 1.0D-12 maximum.
          NewPWx=T KeepS1=F KeepF1=F KeepIn=T MapXYZ=F SortEE=F KeepMc=T.
         2136 words used for storage of precomputed grid.
 Keep R1 ints in memory in canonical form, NReq=35668397.
 FoFCou: FMM=F IPFlag=           0 FMFlag=           0 FMFlg1=           0
         NFxFlg=           0 DoJE=F BraDBF=F KetDBF=F FulRan=T
         wScrn=  0.000000 ICntrl=       600 IOpCl=  0 I1Cent=           0 NGrid=           0
         NMat0=    1 NMatS0=   4851 NMatT0=    0 NMatD0=    1 NMtDS0=    0 NMtDT0=    0
 Symmetry not used in FoFCou.
 Two-electron integral symmetry not used.
          MDV=    2684354560 using IRadAn=       1.
          Solving linear equations simultaneously, MaxMat=       0.
          There are    24 degrees of freedom in the 1st order CPHF.  IDoFFX=6 NUNeed=     3.
     21 vectors produced by pass  0 Test12= 6.50D-15 4.17D-09 XBig12= 6.97D+01 3.18D+00.
 AX will form    21 AO Fock derivatives at one time.
     21 vectors produced by pass  1 Test12= 6.50D-15 4.17D-09 XBig12= 4.71D+01 2.43D+00.
     21 vectors produced by pass  2 Test12= 6.50D-15 4.17D-09 XBig12= 1.44D+00 2.93D-01.
     21 vectors produced by pass  3 Test12= 6.50D-15 4.17D-09 XBig12= 1.08D-02 2.21D-02.
     21 vectors produced by pass  4 Test12= 6.50D-15 4.17D-09 XBig12= 1.65D-05 9.59D-04.
     19 vectors produced by pass  5 Test12= 6.50D-15 4.17D-09 XBig12= 1.71D-08 2.39D-05.
      5 vectors produced by pass  6 Test12= 6.50D-15 4.17D-09 XBig12= 2.70D-11 9.72D-07.
      3 vectors produced by pass  7 Test12= 6.50D-15 4.17D-09 XBig12= 4.69D-14 7.34D-08.
 InvSVY:  IOpt=1 It=  1 EMax= 1.07D-14
 Solved reduced A of dimension   132 with    24 vectors.
 FullF1:  Do perturbations      1 to       3.
 Isotropic polarizability for W=    0.000000       54.10 Bohr**3.
 End of Minotr F.D. properties file   721 does not exist.
 End of Minotr F.D. properties file   722 does not exist.
 End of Minotr F.D. properties file   788 does not exist.
 Leave Link 1002 at Sun Oct 13 09:48:49 2024, MaxMem=  2684354560 cpu:              58.2 elap:               2.3
 (Enter /usr/local/g16_AVX//g16/l601.exe)
 Copying SCF densities to generalized density rwf, IOpCl= 0 IROHF=0.

 **********************************************************************

            Population analysis using the SCF Density.

 **********************************************************************

 Alpha  occ. eigenvalues -- -101.25503 -14.22095 -10.11748 -10.08556  -9.16890
 Alpha  occ. eigenvalues --   -6.92677  -6.92677  -6.92639  -0.79173  -0.63609
 Alpha  occ. eigenvalues --   -0.50924  -0.37323  -0.31892  -0.31883  -0.25260
 Alpha  occ. eigenvalues --   -0.20998  -0.20996  -0.05469  -0.05469  -0.05384
 Alpha virt. eigenvalues --    0.10446   0.14078   0.14081   0.14522   0.15291
 Alpha virt. eigenvalues --    0.15291   0.20121   0.20885   0.20886   0.21925
 Alpha virt. eigenvalues --    0.23616   0.23619   0.25741   0.26088   0.26090
 Alpha virt. eigenvalues --    0.30226   0.33120   0.34111   0.34112   0.35104
 Alpha virt. eigenvalues --    0.35107   0.36584   0.39517   0.41801   0.48943
 Alpha virt. eigenvalues --    0.69228   0.79251   0.79253   0.84730   0.84734
 Alpha virt. eigenvalues --    0.85812   0.85814   0.86433   0.90659   0.98233
 Alpha virt. eigenvalues --    1.02837   1.02848   1.04145   1.10048   1.12682
 Alpha virt. eigenvalues --    1.12685   1.15245   1.15245   1.16386   1.16394
 Alpha virt. eigenvalues --    1.22990   1.27899   1.31499   1.46197   1.46210
 Alpha virt. eigenvalues --    1.54826   1.63262   1.63263   1.87200   1.87208
 Alpha virt. eigenvalues --    1.92964   2.06015   2.06022   2.15792   2.24848
 Alpha virt. eigenvalues --    2.24872   2.33754   2.40610   2.40615   2.81101
 Alpha virt. eigenvalues --    2.81113   2.81622   3.07090   3.10253   3.10285
 Alpha virt. eigenvalues --    3.29536   3.46715   3.56346   3.56378   4.26863
 Alpha virt. eigenvalues --    4.46048   4.58983   4.82149
          Condensed to atoms (all electrons):
               1          2          3          4          5          6
     1  C    6.121582  -0.151711   0.424837   0.425125   0.425151  -1.199782
     2  Cl  -0.151711  17.954637  -0.011634  -0.011676  -0.011672   0.137840
     3  H    0.424837  -0.011634   0.485848  -0.024334  -0.024341  -0.064479
     4  H    0.425125  -0.011676  -0.024334   0.486190  -0.024266  -0.064922
     5  H    0.425151  -0.011672  -0.024341  -0.024266   0.486188  -0.064944
     6  C   -1.199782   0.137840  -0.064479  -0.064922  -0.064944   6.986790
     7  N   -0.082892   0.002340  -0.005567  -0.005595  -0.005597   0.465795
               7
     1  C   -0.082892
     2  Cl   0.002340
     3  H   -0.005567
     4  H   -0.005595
     5  H   -0.005597
     6  C    0.465795
     7  N    7.223411
 Mulliken charges:
               1
     1  C    0.037690
     2  Cl  -0.908123
     3  H    0.219670
     4  H    0.219477
     5  H    0.219479
     6  C   -0.196298
     7  N   -0.591895
 Sum of Mulliken charges =  -1.00000
 Mulliken charges with hydrogens summed into heavy atoms:
               1
     1  C    0.696317
     2  Cl  -0.908123
     6  C   -0.196298
     7  N   -0.591895
 APT charges:
               1
     1  C   -0.006755
     2  Cl  -0.978965
     3  H    0.089163
     4  H    0.088783
     5  H    0.088798
     6  C    0.230131
     7  N   -0.511155
 Sum of APT charges =  -1.00000
 APT charges with hydrogens summed into heavy atoms:
               1
     1  C    0.259989
     2  Cl  -0.978965
     6  C    0.230131
     7  N   -0.511155
 Electronic spatial extent (au):  <R**2>=            834.3740
 Charge=             -1.0000 electrons
 Dipole moment (field-independent basis, Debye):
    X=              5.2933    Y=             -0.0000    Z=              0.0007  Tot=              5.2933
 Quadrupole moment (field-independent basis, Debye-Ang):
   XX=            -84.6365   YY=            -35.3700   ZZ=            -35.3720
   XY=              0.0001   XZ=              0.0007   YZ=              0.0000
 Traceless Quadrupole moment (field-independent basis, Debye-Ang):
   XX=            -32.8437   YY=             16.4228   ZZ=             16.4208
   XY=              0.0001   XZ=              0.0007   YZ=              0.0000
 Octapole moment (field-independent basis, Debye-Ang**2):
  XXX=            -16.1384  YYY=             -0.0058  ZZZ=             -0.8432  XYY=              3.7856
  XXY=              0.0002  XXZ=              0.0046  XZZ=              3.7829  YZZ=              0.0060
  YYZ=              0.8455  XYZ=              0.0001
 Hexadecapole moment (field-independent basis, Debye-Ang**3):
 XXXX=          -1642.2304 YYYY=            -57.6889 ZZZZ=            -57.6902 XXXY=             -0.0002
 XXXZ=             -0.0039 YYYX=             -0.0015 YYYZ=              0.0000 ZZZX=             -0.1942
 ZZZY=              0.0002 XXYY=           -210.3712 XXZZ=           -210.3712 YYZZ=            -19.2285
 XXYZ=              0.0001 YYXZ=              0.1886 ZZXY=              0.0013
 N-N= 1.093122799213D+02 E-N=-1.629043586566D+03  KE= 5.903450618351D+02
  Exact polarizability:  79.721   0.000  41.297  -0.000  -0.000  41.296
 Approx polarizability:  98.758   0.000  50.262   0.006  -0.000  50.258
 No NMR shielding tensors so no spin-rotation constants.
 Leave Link  601 at Sun Oct 13 09:48:49 2024, MaxMem=  2684354560 cpu:               2.6 elap:               0.1
 (Enter /usr/local/g16_AVX//g16/l701.exe)
 ... and contract with generalized density number  0.
 Compute integral second derivatives.
 Leave Link  701 at Sun Oct 13 09:48:50 2024, MaxMem=  2684354560 cpu:               4.7 elap:               0.2
 (Enter /usr/local/g16_AVX//g16/l702.exe)
 L702 exits ... SP integral derivatives will be done elsewhere.
 Leave Link  702 at Sun Oct 13 09:48:50 2024, MaxMem=  2684354560 cpu:               0.5 elap:               0.0
 (Enter /usr/local/g16_AVX//g16/l703.exe)
 Integral derivatives from FoFJK, PRISM(SPDF).
 Compute integral second derivatives, UseDBF=F ICtDFT=           0.
 Calling FoFJK, ICntrl=    100127 FMM=F ISym2X=0 I1Cent= 0 IOpClX= 0 NMat=1 NMatS=1 NMatT=0.
 FoFJK:  IHMeth= 1 ICntrl=  100127 DoSepK=F KAlg= 0 I1Cent=           0 FoldK=F
 IRaf=         0 NMat=       1 IRICut=       1 DoRegI=T DoRafI=F ISym2E= 0 IDoP0=0 IntGTp=1.
 FoFCou: FMM=F IPFlag=           0 FMFlag=      100000 FMFlg1=         800
         NFxFlg=           0 DoJE=F BraDBF=F KetDBF=F FulRan=T
         wScrn=  0.000000 ICntrl=    100127 IOpCl=  0 I1Cent=           0 NGrid=           0
         NMat0=    1 NMatS0=      1 NMatT0=    0 NMatD0=    1 NMtDS0=    0 NMtDT0=    0
 Symmetry not used in FoFCou.
 Leave Link  703 at Sun Oct 13 09:48:52 2024, MaxMem=  2684354560 cpu:              67.5 elap:               2.6
 (Enter /usr/local/g16_AVX//g16/l716.exe)
 Dipole        = 2.08252951D+00-5.42457214D-06 2.83689119D-04
 Polarizability= 7.97211796D+01 2.31747233D-04 4.12968019D+01
                -2.08803831D-04-1.59456922D-04 4.12962526D+01
 Full mass-weighted force constant matrix:
 Low frequencies ---  -72.3899  -71.9395  -39.5463  -39.4553   -0.0016    0.0046
 Low frequencies ---    0.0054  140.3176  175.4312
 ******    2 imaginary frequencies (negative Signs) ****** 
 Diagonal vibrational polarizability:
       18.7095557     119.1216730     117.6329532
 Harmonic frequencies (cm**-1), IR intensities (KM/Mole), Raman scattering
 activities (A**4/AMU), depolarization ratios for plane and unpolarized
 incident light, reduced masses (AMU), force constants (mDyne/A),
 and normal coordinates:
                      1                      2                      3
                      A                      A                      A
 Frequencies --    -70.9824               -70.5275               175.4311
 Red. masses --      3.7651                 3.7702                12.6091
 Frc consts  --      0.0112                 0.0110                 0.2286
 IR Inten    --     21.9492                21.9454                19.7723
  Atom  AN      X      Y      Z        X      Y      Z        X      Y      Z
     1   6     0.00   0.02   0.39    -0.00   0.39  -0.02    -0.36  -0.00   0.00
     2  17    -0.00  -0.00  -0.09     0.00  -0.09   0.00     0.44   0.00  -0.00
     3   1    -0.26   0.02   0.48     0.01   0.47  -0.02    -0.36  -0.00   0.00
     4   1     0.14   0.03   0.47     0.22   0.48  -0.01    -0.36  -0.00  -0.00
     5   1     0.12   0.01   0.47    -0.23   0.48  -0.03    -0.36   0.00  -0.00
     6   6     0.00   0.00   0.05    -0.00   0.05  -0.00    -0.38  -0.00   0.00
     7   7     0.00  -0.01  -0.25    -0.00  -0.25   0.01    -0.39   0.00  -0.00
                      4                      5                      6
                      A                      A                      A
 Frequencies --    377.4080               377.7081               937.5485
 Red. masses --      3.4185                 3.4195                 4.8457
 Frc consts  --      0.2869                 0.2874                 2.5095
 IR Inten    --      1.0374                 1.0353                13.4827
  Atom  AN      X      Y      Z        X      Y      Z        X      Y      Z
     1   6    -0.00  -0.01  -0.07     0.00  -0.07   0.01     0.45   0.00  -0.00
     2  17    -0.00   0.00   0.00     0.00   0.00  -0.00    -0.01   0.00   0.00
     3   1     0.59  -0.02  -0.30    -0.05  -0.29   0.02     0.47  -0.00  -0.01
     4   1    -0.34  -0.03  -0.29    -0.49  -0.30   0.02     0.47   0.01   0.00
     5   1    -0.25  -0.02  -0.29     0.53  -0.30   0.03     0.47  -0.01   0.00
     6   6     0.00   0.03   0.40    -0.00   0.40  -0.03    -0.20  -0.00   0.00
     7   7     0.00  -0.02  -0.22    -0.00  -0.22   0.02    -0.30   0.00  -0.00
                      7                      8                      9
                      A                      A                      A
 Frequencies --   1019.4133              1019.8219              1347.7980
 Red. masses --      1.4977                 1.4967                 1.2109
 Frc consts  --      0.9170                 0.9172                 1.2960
 IR Inten    --      1.6860                 1.6815                48.1568
  Atom  AN      X      Y      Z        X      Y      Z        X      Y      Z
     1   6    -0.00   0.00   0.16    -0.00   0.16  -0.00    -0.14   0.00  -0.00
     2  17    -0.00  -0.00  -0.00     0.00  -0.00   0.00    -0.00   0.00   0.00
     3   1     0.72  -0.00  -0.12    -0.01  -0.33   0.00     0.52   0.00  -0.23
     4   1    -0.37   0.09  -0.28    -0.62  -0.17   0.09     0.52   0.20   0.12
     5   1    -0.35  -0.09  -0.28     0.62  -0.17  -0.09     0.52  -0.20   0.12
     6   6     0.00  -0.00  -0.13     0.00  -0.13   0.00     0.00  -0.00   0.00
     7   7     0.00   0.00   0.02     0.00   0.02  -0.00     0.00  -0.00  -0.00
                     10                     11                     12
                      A                      A                      A
 Frequencies --   1439.7489              1439.7976              2354.3157
 Red. masses --      1.0401                 1.0401                12.4868
 Frc consts  --      1.2703                 1.2704                40.7786
 IR Inten    --     11.9752                11.9787                58.7861
  Atom  AN      X      Y      Z        X      Y      Z        X      Y      Z
     1   6     0.00   0.03  -0.04     0.00  -0.04  -0.03    -0.09  -0.00   0.00
     2  17     0.00   0.00  -0.00     0.00  -0.00  -0.00     0.00  -0.00  -0.00
     3   1     0.27  -0.47  -0.12     0.23   0.54  -0.11    -0.07  -0.00   0.02
     4   1     0.07  -0.33   0.62    -0.35  -0.21   0.04    -0.07  -0.02  -0.01
     5   1    -0.34   0.25   0.12     0.11   0.29   0.61    -0.07   0.02  -0.01
     6   6     0.00   0.02  -0.02     0.00  -0.02  -0.02     0.79  -0.00   0.00
     7   7    -0.00  -0.00   0.00    -0.00   0.00   0.00    -0.58   0.00  -0.00
                     13                     14                     15
                      A                      A                      A
 Frequencies --   3089.0729              3171.4223              3171.9804
 Red. masses --      1.0337                 1.1030                 1.1030
 Frc consts  --      5.8115                 6.5366                 6.5387
 IR Inten    --      3.0794                 0.3520                 0.3537
  Atom  AN      X      Y      Z        X      Y      Z        X      Y      Z
     1   6    -0.05  -0.00   0.00     0.00  -0.09   0.03    -0.00  -0.03  -0.09
     2  17    -0.00   0.00  -0.00     0.00   0.00  -0.00    -0.00   0.00   0.00
     3   1     0.19  -0.00   0.54    -0.09  -0.02  -0.23     0.28  -0.01   0.73
     4   1     0.19  -0.47  -0.27    -0.19   0.44   0.27    -0.21   0.49   0.27
     5   1     0.19   0.47  -0.27     0.28   0.64  -0.37    -0.06  -0.15   0.06
     6   6    -0.00   0.00   0.00     0.00   0.00  -0.00    -0.00   0.00   0.00
     7   7     0.00  -0.00   0.00    -0.00  -0.00   0.00     0.00  -0.00  -0.00

 -------------------
 - Thermochemistry -
 -------------------
 Temperature   298.150 Kelvin.  Pressure   1.00000 Atm.
 Atom     1 has atomic number  6 and mass  12.00000
 Atom     2 has atomic number 17 and mass  34.96885
 Atom     3 has atomic number  1 and mass   1.00783
 Atom     4 has atomic number  1 and mass   1.00783
 Atom     5 has atomic number  1 and mass   1.00783
 Atom     6 has atomic number  6 and mass  12.00000
 Atom     7 has atomic number  7 and mass  14.00307
 Molecular mass:    75.99540 amu.
 Principal axes and moments of inertia in atomic units:
                           1         2         3
     Eigenvalues --    11.261771438.711491438.71652
           X            1.00000  -0.00000  -0.00001
           Y            0.00000   1.00000  -0.00057
           Z            0.00001   0.00057   1.00000
 This molecule is an asymmetric top.
 Rotational symmetry number  1.
 Rotational temperatures (Kelvin)      7.69097     0.06020     0.06020
 Rotational constants (GHZ):         160.25373     1.25441     1.25441
    2 imaginary frequencies ignored.
 Zero-point vibrational energy     119156.8 (Joules/Mol)
                                   28.47917 (Kcal/Mol)
 Warning -- explicit consideration of   3 degrees of freedom as
           vibrations may cause significant error
 Vibrational temperatures:    252.41   543.01   543.44  1348.92  1466.71
          (Kelvin)           1467.30  1939.18  2071.48  2071.55  3387.34
                             4444.49  4562.97  4563.77
 
 Zero-point correction=                           0.045384 (Hartree/Particle)
 Thermal correction to Energy=                    0.049618
 Thermal correction to Enthalpy=                  0.050562
 Thermal correction to Gibbs Free Energy=         0.018073
 Sum of electronic and zero-point Energies=           -593.012573
 Sum of electronic and thermal Energies=              -593.008340
 Sum of electronic and thermal Enthalpies=            -593.007395
 Sum of electronic and thermal Free Energies=         -593.039885
 
                     E (Thermal)             CV                S
                      KCal/Mol        Cal/Mol-Kelvin    Cal/Mol-Kelvin
 Total                   31.136             12.348             68.379
 Electronic               0.000              0.000              0.000
 Translational            0.889              2.981             38.900
 Rotational               0.889              2.981             24.659
 Vibrational             29.358              6.386              4.820
 Vibration     1          0.627              1.873              2.376
 Vibration     2          0.748              1.518              1.050
 Vibration     3          0.748              1.518              1.048
                       Q            Log10(Q)             Ln(Q)
 Total Bot       0.486352D-08         -8.313049        -19.141503
 Total V=0       0.365028D+13         12.562326         28.925824
 Vib (Bot)       0.341737D-20        -20.466307        -47.125415
 Vib (Bot)    1  0.114668D+01          0.059442          0.136871
 Vib (Bot)    2  0.479938D+00         -0.318815         -0.734099
 Vib (Bot)    3  0.479456D+00         -0.319251         -0.735103
 Vib (V=0)       0.256488D+01          0.409068          0.941913
 Vib (V=0)    1  0.175095D+01          0.243274          0.560158
 Vib (V=0)    2  0.119307D+01          0.076664          0.176526
 Vib (V=0)    3  0.119273D+01          0.076543          0.176247
 Electronic      0.100000D+01          0.000000          0.000000
 Translational   0.260396D+08          7.415635         17.075130
 Rotational      0.546542D+05          4.737623         10.908781
 
                                                       RxCoord=-5.29766 DE=3.42
                                                             IR Spectrum
 
      3  3                            2                                    1   1            1                                        
      1  0                            3                                    4   3            0  9                     3       1       
      7  8                            5                                    4   4            1  3                     7       7       
      1  9                            4                                    0   8            9  8                     7       5       
 
      X  X                            X                                    X   X            X  X                     X       X       
                                      X                                    X   X               X                             X       
                                      X                                    X   X               X                             X       
                                      X                                    X   X               X                             X       
                                      X                                    X   X               X                             X       
                                      X                                    X   X                                             X       
                                      X                                    X   X                                             X       
                                      X                                    X   X                                                     
                                      X                                        X                                                     
                                      X                                        X                                                     
                                      X                                        X                                                     
                                      X                                        X                                                     
                                      X                                        X                                                     
                                      X                                        X                                                     
                                      X                                        X                                                     
                                      X                                        X                                                     
                                      X                                                                                              
                                      X                                                                                              
                                      X                                                                                              
                                      X                                                                                              
 
 -------------------------------------------------------------------
 Center     Atomic                   Forces (Hartrees/Bohr)
 Number     Number              X              Y              Z
 -------------------------------------------------------------------
      1        6           0.004470968   -0.000028700    0.000028642
      2       17          -0.008261977   -0.000000174    0.000000355
      3        1          -0.002509900   -0.000000503    0.001391168
      4        1          -0.002551700   -0.001279364   -0.000699649
      5        1          -0.002533050    0.001312482   -0.000707569
      6        6           0.003917596   -0.000004817    0.000009402
      7        7           0.007468062    0.000001076   -0.000022349
 -------------------------------------------------------------------
 Cartesian Forces:  Max     0.008261977 RMS     0.002967150
 Z-matrix is all fixed cartesians, so copy forces.
 Force constants in Cartesian coordinates: 
                1             2             3             4             5 
      1  0.490840D+00
      2 -0.322851D-04  0.556563D+00
      3  0.276973D-03  0.614655D-04  0.556552D+00
      4 -0.117739D-01  0.000000D+00  0.364968D-05  0.223123D-01
      5  0.000000D+00  0.715148D-04  0.000000D+00  0.000000D+00 -0.110110D-02
      6  0.559009D-05  0.000000D+00  0.707730D-04 -0.201342D-04  0.000000D+00
      7 -0.692077D-01  0.214079D-03 -0.915154D-01 -0.202452D-02  0.190892D-05
      8  0.211165D-03 -0.400320D-01  0.591803D-03  0.349828D-05 -0.116572D-02
      9 -0.899892D-01  0.590205D-03 -0.293982D+00 -0.145020D-02 -0.426609D-05
     10 -0.689884D-01  0.788393D-01  0.457775D-01 -0.201928D-02  0.703628D-03
     11  0.775116D-01 -0.230081D+00 -0.110305D+00  0.125238D-02  0.242801D-03
     12  0.450105D-01 -0.110301D+00 -0.104094D+00  0.738880D-03  0.821209D-03
     13 -0.689900D-01 -0.790223D-01  0.453885D-01 -0.201894D-02 -0.706319D-03
     14 -0.776894D-01 -0.231040D+00  0.109652D+00 -0.125606D-02  0.250752D-03
     15  0.446278D-01  0.109650D+00 -0.103040D+00  0.732929D-03 -0.816773D-03
     16 -0.260195D+00  0.000000D+00  0.897681D-04 -0.127703D-02  0.000000D+00
     17 -0.101898D-05 -0.779508D-01  0.000000D+00  0.000000D+00  0.208625D-02
     18  0.291342D-04  0.000000D+00 -0.779876D-01 -0.659355D-05  0.000000D+00
     19 -0.116853D-01  0.000000D+00 -0.209067D-04 -0.319872D-02  0.000000D+00
     20  0.000000D+00  0.224695D-01  0.000000D+00  0.000000D+00 -0.384498D-03
     21  0.392651D-04  0.000000D+00  0.224808D-01  0.147192D-05  0.000000D+00
                6             7             8             9            10 
      6 -0.110864D-02
      7 -0.811975D-03  0.837450D-01
      8 -0.426738D-05 -0.233182D-03  0.427321D-01
      9  0.701657D-03  0.100125D+00 -0.630202D-03  0.312834D+00
     10  0.416152D-03  0.421228D-02 -0.923880D-02 -0.463498D-02  0.835190D-01
     11  0.821098D-03 -0.649137D-03  0.396100D-03  0.124724D-02 -0.862947D-01
     12 -0.680014D-03  0.102875D-01 -0.240104D-01 -0.128977D-01 -0.501115D-01
     13  0.412778D-03  0.421201D-02  0.925859D-02 -0.459095D-02  0.419956D-02
     14 -0.816654D-03  0.599898D-03  0.287043D-03 -0.118336D-02 -0.858316D-02
     15 -0.687871D-03  0.102897D-01  0.240723D-01 -0.127917D-01 -0.572334D-02
     16 -0.261011D-05 -0.215310D-01  0.645951D-05 -0.288954D-02 -0.215075D-01
     17  0.000000D+00  0.757509D-04 -0.339675D-02 -0.263273D-04  0.280088D-01
     18  0.208980D-02 -0.323375D-01 -0.258234D-04  0.784868D-02  0.162714D-01
     19  0.000000D+00  0.593880D-03 -0.772859D-05  0.342970D-02  0.584278D-03
     20  0.000000D+00 -0.931750D-05  0.117923D-02  0.670944D-05 -0.343507D-02
     21 -0.385706D-03  0.396256D-02  0.664203D-05 -0.171276D-02 -0.199520D-02
               11            12            13            14            15 
     11  0.244839D+00
     12  0.117332D+00  0.110855D+00
     13  0.860871D-02 -0.568271D-02  0.835173D-01
     14 -0.193955D-01  0.125753D-01  0.864985D-01  0.245865D+00
     15 -0.126974D-01  0.694345D-02 -0.496862D-01 -0.116644D+00  0.109737D+00
     16  0.253694D-02  0.147570D-02 -0.215056D-01 -0.254375D-02  0.146332D-02
     17  0.497557D-02  0.483055D-02 -0.280810D-01  0.502137D-02 -0.480449D-02
     18  0.485259D-02 -0.579511D-03  0.161373D-01 -0.482700D-02 -0.625709D-03
     19 -0.296577D-02 -0.171836D-02  0.585628D-03  0.297396D-02 -0.170413D-02
     20 -0.977037D-03 -0.124741D-02  0.344378D-02 -0.988853D-03  0.124054D-02
     21 -0.125105D-02  0.452293D-03 -0.197870D-02  0.124425D-02  0.464066D-03
               16            17            18            19            20 
     16  0.156689D+01
     17 -0.123401D-04  0.107271D+00
     18  0.135148D-03  0.116190D-05  0.107261D+00
     19 -0.124087D+01  0.101086D-04 -0.228894D-03  0.125399D+01
     20  0.122887D-04 -0.380069D-01  0.000000D+00 -0.113211D-04  0.167086D-01
     21 -0.271784D-03  0.000000D+00 -0.380066D-01  0.242392D-03  0.000000D+00
               21 
     21  0.167079D-01
 Leave Link  716 at Sun Oct 13 09:48:52 2024, MaxMem=  2684354560 cpu:               0.9 elap:               0.1
 (Enter /usr/local/g16_AVX//g16/l103.exe)

 GradGradGradGradGradGradGradGradGradGradGradGradGradGradGradGradGradGrad
 Berny optimization.
 Search for a local minimum.
 Step number   1 out of a maximum of    2
 All quantities printed in internal units (Hartrees-Bohrs-Radians)
 Second derivative matrix not updated -- analytic derivatives used.
 ITU=  0
     Eigenvalues ---   -0.00095  -0.00094   0.02187   0.02393   0.02396
     Eigenvalues ---    0.09510   0.09512   0.09711   0.16119   0.16120
     Eigenvalues ---    0.28254   0.65311   0.82276   0.82296   2.67663
 Eigenvalue     1 is  -9.46D-04 should be greater than     0.000000 Eigenvector:
                          Z3        Z4        Z5        Z7        Z1
   1                    0.44653   0.42814   0.42709  -0.36211   0.34667
                          Z2        X3        X4        X5        Y4
   1                   -0.27938  -0.26200   0.14166   0.12133   0.02944
 Eigenvalue     2 is  -9.35D-04 should be greater than     0.000000 Eigenvector:
                          Y5        Y4        Y3        Y7        Y1
   1                    0.44039   0.43938   0.42190  -0.36234   0.34685
                          Y2        X5        X4        Z5        Z3
   1                   -0.27943  -0.23278   0.22107  -0.02915  -0.01896
 Quadratic step=3.586D-01 exceeds max=3.000D-01 adjusted using Lamda=-4.698D-03.
 Angle between NR and scaled steps=   2.75 degrees.
 Angle between quadratic step and forces=  36.51 degrees.
 Linear search not attempted -- first point.
 B after Tr=    -0.031635    0.000002   -0.000111
         Rot=    1.000000   -0.000000   -0.000003    0.000001 Ang=  -0.00 deg.
 Variable       Old X    -DE/DX   Delta X   Delta X   Delta X     New X
                                 (Linear)    (Quad)   (Total)
    X1        1.30031   0.00447   0.00000   0.09121   0.05958   1.35989
    Y1        0.00000  -0.00003   0.00000  -0.00003  -0.00003  -0.00003
    Z1        0.00074   0.00003   0.00000   0.00037   0.00025   0.00099
    X2       -4.38059  -0.00826   0.00000  -0.22422  -0.25585  -4.63645
    Y2        0.00000  -0.00000   0.00000   0.00001   0.00002   0.00002
    Z2       -0.00015   0.00000   0.00000  -0.00025  -0.00033  -0.00048
    X3        0.57422  -0.00251   0.00000   0.04445   0.01280   0.58703
    Y3        0.00449  -0.00000   0.00000  -0.00003  -0.00003   0.00446
    Z3       -1.92840   0.00139   0.00000   0.01604   0.01592  -1.91248
    X4        0.57703  -0.00255   0.00000   0.04310   0.01147   0.58850
    Y4        1.66946  -0.00128   0.00000  -0.01424  -0.01424   1.65523
    Z4        0.96982  -0.00070   0.00000  -0.00755  -0.00766   0.96215
    X5        0.57691  -0.00253   0.00000   0.04324   0.01160   0.58851
    Y5       -1.67408   0.00131   0.00000   0.01429   0.01429  -1.65978
    Z5        0.96197  -0.00071   0.00000  -0.00748  -0.00760   0.95437
    X6        4.04188   0.00392   0.00000   0.10952   0.07789   4.11977
    Y6        0.00002  -0.00000   0.00000  -0.00002  -0.00003  -0.00001
    Z6       -0.00053   0.00001   0.00000   0.00051   0.00038  -0.00016
    X7        6.23694   0.00747   0.00000   0.11414   0.08251   6.31944
    Y7       -0.00001   0.00000   0.00000   0.00002   0.00001  -0.00000
    Z7       -0.00005  -0.00002   0.00000  -0.00081  -0.00096  -0.00101
         Item               Value     Threshold  Converged?
 Maximum Force            0.008262     0.000450     NO 
 RMS     Force            0.002967     0.000300     NO 
 Maximum Displacement     0.255855     0.001800     NO 
 RMS     Displacement     0.062903     0.001200     NO 
 Predicted change in Energy=-1.851941D-03
 GradGradGradGradGradGradGradGradGradGradGradGradGradGradGradGradGradGrad

 Leave Link  103 at Sun Oct 13 09:48:53 2024, MaxMem=  2684354560 cpu:               0.7 elap:               0.1
 (Enter /usr/local/g16_AVX//g16/l9999.exe)

 ----------------------------------------------------------------------

 Electric dipole moment (input orientation):
 (Debye = 10**-18 statcoulomb cm , SI units = C m)
                  (au)            (Debye)         (10**-30 SI)
   Tot        0.208253D+01      0.529326D+01      0.176564D+02
   x          0.208253D+01      0.529326D+01      0.176564D+02
   y          0.000000D+00      0.000000D+00      0.000000D+00
   z          0.283689D-03      0.721066D-03      0.240522D-02

 Dipole polarizability, Alpha (input orientation).
 (esu units = cm**3 , SI units = C**2 m**2 J**-1)
 Alpha(0;0):
               (au)            (10**-24 esu)      (10**-40 SI)
   iso        0.541047D+02      0.801750D+01      0.892067D+01
   aniso      0.384247D+02      0.569395D+01      0.633537D+01
   xx         0.797212D+02      0.118135D+02      0.131442D+02
   yx         0.231747D-03      0.343414D-04      0.382100D-04
   yy         0.412968D+02      0.611955D+01      0.680892D+01
   zx        -0.208804D-03     -0.309415D-04     -0.344271D-04
   zy        -0.159457D-03     -0.236291D-04     -0.262909D-04
   zz         0.412963D+02      0.611947D+01      0.680883D+01

 ----------------------------------------------------------------------

 Dipole orientation:
     6         -0.00055797          0.00000339          1.30031308
    17         -0.00045123         -0.00001141         -4.38059112
     1          1.92848137          0.00448646          0.57395892
     1         -0.96973204          1.66946746          0.57715374
     1         -0.96189463         -1.67407224          0.57704422
     6          0.00108539          0.00002753          4.04187652
     7          0.00090064          0.00001057          6.23693896

 Electric dipole moment (dipole orientation):
 (Debye = 10**-18 statcoulomb cm , SI units = C m)
                  (au)            (Debye)         (10**-30 SI)
   Tot        0.208253D+01      0.529326D+01      0.176564D+02
   x          0.000000D+00      0.000000D+00      0.000000D+00
   y          0.000000D+00      0.000000D+00      0.000000D+00
   z          0.208253D+01      0.529326D+01      0.176564D+02

 Dipole polarizability, Alpha (dipole orientation).
 (esu units = cm**3 , SI units = C**2 m**2 J**-1)
 Alpha(0;0):
               (au)            (10**-24 esu)      (10**-40 SI)
   iso        0.541047D+02      0.801750D+01      0.892067D+01
   aniso      0.384247D+02      0.569395D+01      0.633537D+01
   xx         0.412963D+02      0.611947D+01      0.680883D+01
   yx         0.159504D-03      0.236361D-04      0.262987D-04
   yy         0.412968D+02      0.611955D+01      0.680892D+01
   zx         0.544318D-02      0.806595D-03      0.897458D-03
   zy         0.331799D-03      0.491676D-04      0.547063D-04
   zz         0.797212D+02      0.118135D+02      0.131442D+02

 ----------------------------------------------------------------------
 1\1\GINC-NODO7\Freq\RB3LYP\6-31++G(d,p)\C2H3Cl1N1(1-)\ALANQF\13-Oct-20
 24\0\\#p b3lyp 6-31++g(d,p) scf=verytight NoSymm freq=noraman int=ultr
 afine\\RxCoord=-5.29766 DE=3.42\\-1,1\C,0.688096,0.,0.000389\Cl,-2.318
 109,0.,-0.000077\H,0.303865,0.002376,-1.020467\H,0.305349,0.883442,0.5
 13204\H,0.305287,-0.885883,0.509052\C,2.138869,0.000009,-0.000283\N,3.
 300446,-0.000003,-0.000027\\Version=ES64L-G16RevB.01\HF=-593.0579576\R
 MSD=1.595e-09\RMSF=2.967e-03\ZeroPoint=0.0453844\Thermal=0.049618\Dipo
 le=2.1586787,-0.000007,0.0003286\DipoleDeriv=-0.1360219,0.0000102,-0.0
 000329,-0.0000096,0.0579335,-0.0000112,-0.0001345,-0.0000111,0.0578228
 ,-1.091396,0.0000009,0.0000228,0.0000135,-0.922729,-0.0000008,0.000154
 ,-0.0000008,-0.9227701,0.13902,-0.0000295,0.0128577,0.0000453,0.108039
 1,0.0002093,-0.0162135,0.0002087,0.0204296,0.1379613,-0.0112096,-0.006
 4161,0.0139273,0.0424359,-0.0380706,0.0083179,-0.0380254,0.0859526,0.1
 380154,0.0112256,-0.0063545,-0.0139697,0.0420721,0.0378755,0.0082629,0
 .0378308,0.086307,0.5636574,0.000016,-0.0004207,-0.0000124,0.0633747,-
 0.0000027,-0.0004324,-0.0000027,0.0633611,-0.7512362,-0.0000137,0.0003
 438,0.0000055,-0.3911263,0.0000005,0.0000456,0.0000005,-0.3911029\Pola
 r=79.7211796,0.0002317,41.2968019,-0.0002088,-0.0001595,41.2962526\Qua
 drupole=-24.4184715,12.2099753,12.2084962,0.0000523,0.0004852,0.000033
 5\PG=C01 [X(C2H3Cl1N1)]\NImag=2\\0.49083983,-0.00003229,0.55656268,0.0
 0027697,0.00006147,0.55655159,-0.01177385,-0.00000005,0.00000365,0.022
 31235,0.00000041,0.00007151,-0.00000002,0.00000042,-0.00110110,0.00000
 559,-0.00000002,0.00007077,-0.00002013,-0.00000011,-0.00110864,-0.0692
 0773,0.00021408,-0.09151544,-0.00202452,0.00000191,-0.00081197,0.08374
 505,0.00021116,-0.04003199,0.00059180,0.00000350,-0.00116572,-0.000004
 27,-0.00023318,0.04273210,-0.08998921,0.00059020,-0.29398235,-0.001450
 20,-0.00000427,0.00070166,0.10012518,-0.00063020,0.31283418,-0.0689884
 3,0.07883931,0.04577749,-0.00201928,0.00070363,0.00041615,0.00421228,-
 0.00923880,-0.00463498,0.08351903,0.07751157,-0.23008129,-0.11030465,0
 .00125238,0.00024280,0.00082110,-0.00064914,0.00039610,0.00124724,-0.0
 8629469,0.24483939,0.04501047,-0.11030141,-0.10409373,0.00073888,0.000
 82121,-0.00068001,0.01028750,-0.02401044,-0.01289771,-0.05011148,0.117
 33220,0.11085522,-0.06899001,-0.07902226,0.04538846,-0.00201894,-0.000
 70632,0.00041278,0.00421201,0.00925859,-0.00459095,0.00419956,0.008608
 71,-0.00568271,0.08351735,-0.07768940,-0.23103966,0.10965190,-0.001256
 06,0.00025075,-0.00081665,0.00059990,0.00028704,-0.00118336,-0.0085831
 6,-0.01939553,0.01257530,0.08649851,0.24586487,0.04462778,0.10965030,-
 0.10303952,0.00073293,-0.00081677,-0.00068787,0.01028965,0.02407229,-0
 .01279169,-0.00572334,-0.01269744,0.00694345,-0.04968621,-0.11664443,0
 .10973727,-0.26019456,0.00000056,0.00008977,-0.00127703,-0.00000016,-0
 .00000261,-0.02153097,0.00000646,-0.00288954,-0.02150745,0.00253694,0.
 00147570,-0.02150560,-0.00254375,0.00146332,1.56689004,-0.00000102,-0.
 07795077,-0.00000077,-0.00000027,0.00208625,-0.00000006,0.00007575,-0.
 00339675,-0.00002633,0.02800877,0.00497557,0.00483055,-0.02808100,0.00
 502137,-0.00480449,-0.00001234,0.10727128,0.00002913,-0.00000081,-0.07
 798755,-0.00000659,-0.00000006,0.00208980,-0.03233749,-0.00002582,0.00
 784868,0.01627136,0.00485259,-0.00057951,0.01613734,-0.00482700,-0.000
 62571,0.00013515,0.00000116,0.10726092,-0.01168525,0.00000065,-0.00002
 091,-0.00319872,0.00000011,0.00000020,0.00059388,-0.00000773,0.0034297
 0,0.00058428,-0.00296577,-0.00171836,0.00058563,0.00297396,-0.00170413
 ,-1.24087443,0.00001011,-0.00022889,1.25399461,-0.00000045,0.02246951,
 0.00000027,0.00000009,-0.00038450,0.00000002,-0.00000932,0.00117923,0.
 00000671,-0.00343507,-0.00097704,-0.00124741,0.00344378,-0.00098885,0.
 00124054,0.00001229,-0.03800695,-0.00000006,-0.00001132,0.01670859,0.0
 0003927,0.00000027,0.02248080,0.00000147,0.00000002,-0.00038571,0.0039
 6256,0.00000664,-0.00171276,-0.00199520,-0.00125105,0.00045229,-0.0019
 7870,0.00124425,0.00046407,-0.00027178,-0.00000006,-0.03800662,0.00024
 239,-0.00000007,0.01670794\\-0.00447097,0.00002870,-0.00002864,0.00826
 198,0.00000017,-0.00000035,0.00250990,0.00000050,-0.00139117,0.0025517
 0,0.00127936,0.00069965,0.00253305,-0.00131248,0.00070757,-0.00391760,
 0.00000482,-0.00000940,-0.00746806,-0.00000108,0.00002235\\\@


 It takes a long time to grow an old friend.
                            -- John Leonard
 Job cpu time:       0 days  0 hours  3 minutes 57.1 seconds.
 Elapsed time:       0 days  0 hours  0 minutes 10.1 seconds.
 File lengths (MBytes):  RWF=     88 Int=      0 D2E=      0 Chk=      2 Scr=      2
 Normal termination of Gaussian 16 at Sun Oct 13 09:48:53 2024.
