RxCoord=-5.19768 DE=3.60                                                
Freq      RB3LYP                                                      6-31++G(d,p)        
Number of atoms                            I                7
Info1-9                                    I   N=           9
          16          16           0           0           0         100
           6          18        -502
Full Title                                 C   N=           2
RxCoord=-5.19768 DE=3.60
Route                                      C   N=           6
#p b3lyp 6-31++g(d,p) scf=verytight NoSymm freq=noraman int=
ultrafine   
Charge                                     I               -1
Multiplicity                               I                1
Number of electrons                        I               40
Number of alpha electrons                  I               20
Number of beta electrons                   I               20
Number of basis functions                  I               98
Number of independent functions            I               98
Number of point charges in /Mol/           I                0
Number of translation vectors              I                0
Atomic numbers                             I   N=           7
           6          17           1           1           1           6
           7
Nuclear charges                            R   N=           7
  6.00000000E+00  1.70000000E+01  1.00000000E+00  1.00000000E+00  1.00000000E+00
  6.00000000E+00  7.00000000E+00
Current cartesian coordinates              R   N=          21
  1.28910502E+00  3.77945225E-06  6.93529488E-04 -4.36819453E+00  0.00000000E+00
 -1.56847268E-04  5.66951852E-01  4.51266599E-03 -1.92800064E+00  5.69673058E-01
  1.66901934E+00  9.69537216E-01  5.69797780E-01 -1.67354713E+00  9.61696743E-01
  4.03130172E+00  9.44863062E-06 -5.06446601E-04  6.22621105E+00 -7.55890450E-06
  0.00000000E+00
Number of symbols in /Mol/                 I                0
Force Field                                I                0
Atom Types                                 C   N=           7
                                                            
                        
Int Atom Types                             I   N=           7
           0           0           0           0           0           0
           0
MM charges                                 R   N=           7
  0.00000000E+00  0.00000000E+00  0.00000000E+00  0.00000000E+00  0.00000000E+00
  0.00000000E+00  0.00000000E+00
Integer atomic weights                     I   N=           7
          12          35           1           1           1          12
          14
Real atomic weights                        R   N=           7
  1.20000000E+01  3.49688527E+01  1.00782504E+00  1.00782504E+00  1.00782504E+00
  1.20000000E+01  1.40030740E+01
Atom fragment info                         I   N=           7
           0           0           0           0           0           0
           0
Atom residue num                           I   N=           7
           0           0           0           0           0           0
           0
Nuclear spins                              I   N=           7
           0           3           1           1           1           0
           2
Nuclear ZEff                               R   N=           7
 -3.60000000E+00 -1.42400000E+01 -1.00000000E+00 -1.00000000E+00 -1.00000000E+00
 -3.60000000E+00 -4.55000000E+00
Nuclear ZNuc                               R   N=           7
  6.00000000E+00  1.70000000E+01  1.00000000E+00  1.00000000E+00  1.00000000E+00
  6.00000000E+00  7.00000000E+00
Nuclear QMom                               R   N=           7
  0.00000000E+00 -8.16500000E+00  0.00000000E+00  0.00000000E+00  0.00000000E+00
  0.00000000E+00  2.04400000E+00
Nuclear GFac                               R   N=           7
  0.00000000E+00  8.21874000E-01  2.79284600E+00  2.79284600E+00  2.79284600E+00
  0.00000000E+00  4.03761000E-01
MicOpt                                     I   N=           7
          -1          -1          -1          -1          -1          -1
          -1
Number of residues                         I                0
Number of secondary structures             I                0
Number of contracted shells                I               33
Number of primitive shells                 I               72
Pure/Cartesian d shells                    I                1
Pure/Cartesian f shells                    I                0
Highest angular momentum                   I                2
Largest degree of contraction              I                6
Shell types                                I   N=          33
           0          -1          -1          -1           2           0
          -1          -1          -1          -1           2           0
           0           0           1           0           0           0
           1           0           0           0           1           0
          -1          -1          -1           2           0          -1
          -1          -1           2
Number of primitives per shell             I   N=          33
           6           3           1           1           1           6
           6           3           1           1           1           3
           1           1           1           3           1           1
           1           3           1           1           1           6
           3           1           1           1           6           3
           1           1           1
Shell to atom map                          I   N=          33
           1           1           1           1           1           2
           2           2           2           2           2           3
           3           3           3           4           4           4
           4           5           5           5           5           6
           6           6           6           6           7           7
           7           7           7
Primitive exponents                        R   N=          72
  3.04752488E+03  4.57369518E+02  1.03948685E+02  2.92101553E+01  9.28666296E+00
  3.16392696E+00  7.86827235E+00  1.88128854E+00  5.44249258E-01  1.68714478E-01
  4.38000000E-02  8.00000000E-01  2.51801000E+04  3.78035000E+03  8.60474000E+02
  2.42145000E+02  7.73349000E+01  2.62470000E+01  4.91765000E+02  1.16984000E+02
  3.74153000E+01  1.37834000E+01  5.45215000E+00  2.22588000E+00  3.18649000E+00
  1.14427000E+00  4.20377000E-01  1.42657000E-01  4.83000000E-02  7.50000000E-01
  1.87311370E+01  2.82539436E+00  6.40121692E-01  1.61277759E-01  3.60000000E-02
  1.10000000E+00  1.87311370E+01  2.82539436E+00  6.40121692E-01  1.61277759E-01
  3.60000000E-02  1.10000000E+00  1.87311370E+01  2.82539436E+00  6.40121692E-01
  1.61277759E-01  3.60000000E-02  1.10000000E+00  3.04752488E+03  4.57369518E+02
  1.03948685E+02  2.92101553E+01  9.28666296E+00  3.16392696E+00  7.86827235E+00
  1.88128854E+00  5.44249258E-01  1.68714478E-01  4.38000000E-02  8.00000000E-01
  4.17351146E+03  6.27457911E+02  1.42902093E+02  4.02343293E+01  1.28202129E+01
  4.39043701E+00  1.16263619E+01  2.71627981E+00  7.72218397E-01  2.12031498E-01
  6.39000000E-02  8.00000000E-01
Contraction coefficients                   R   N=          72
  1.83473713E-03  1.40373228E-02  6.88426223E-02  2.32184443E-01  4.67941348E-01
  3.62311985E-01 -1.19332420E-01 -1.60854152E-01  1.14345644E+00  1.00000000E+00
  1.00000000E+00  1.00000000E+00  1.83295985E-03  1.40341988E-02  6.90973943E-02
  2.37451980E-01  4.83033960E-01  3.39855972E-01 -2.29739142E-03 -3.07137189E-02
 -1.12528069E-01  4.50163278E-02  5.89353363E-01  4.65206287E-01 -2.51828028E-01
  6.15892514E-02  1.06018433E+00  1.00000000E+00  1.00000000E+00  1.00000000E+00
  3.34946043E-02  2.34726953E-01  8.13757326E-01  1.00000000E+00  1.00000000E+00
  1.00000000E+00  3.34946043E-02  2.34726953E-01  8.13757326E-01  1.00000000E+00
  1.00000000E+00  1.00000000E+00  3.34946043E-02  2.34726953E-01  8.13757326E-01
  1.00000000E+00  1.00000000E+00  1.00000000E+00  1.83473713E-03  1.40373228E-02
  6.88426223E-02  2.32184443E-01  4.67941348E-01  3.62311985E-01 -1.19332420E-01
 -1.60854152E-01  1.14345644E+00  1.00000000E+00  1.00000000E+00  1.00000000E+00
  1.83477216E-03  1.39946270E-02  6.85865518E-02  2.32240873E-01  4.69069948E-01
  3.60455199E-01 -1.14961182E-01 -1.69117479E-01  1.14585195E+00  1.00000000E+00
  1.00000000E+00  1.00000000E+00
P(S=P) Contraction coefficients            R   N=          72
  0.00000000E+00  0.00000000E+00  0.00000000E+00  0.00000000E+00  0.00000000E+00
  0.00000000E+00  6.89990666E-02  3.16423961E-01  7.44308291E-01  1.00000000E+00
  1.00000000E+00  0.00000000E+00  0.00000000E+00  0.00000000E+00  0.00000000E+00
  0.00000000E+00  0.00000000E+00  0.00000000E+00  3.98940088E-03  3.03177067E-02
  1.29880029E-01  3.27951072E-01  4.53527100E-01  2.52154056E-01 -1.42993147E-02
  3.23572333E-01  7.43507765E-01  1.00000000E+00  1.00000000E+00  0.00000000E+00
  0.00000000E+00  0.00000000E+00  0.00000000E+00  0.00000000E+00  0.00000000E+00
  0.00000000E+00  0.00000000E+00  0.00000000E+00  0.00000000E+00  0.00000000E+00
  0.00000000E+00  0.00000000E+00  0.00000000E+00  0.00000000E+00  0.00000000E+00
  0.00000000E+00  0.00000000E+00  0.00000000E+00  0.00000000E+00  0.00000000E+00
  0.00000000E+00  0.00000000E+00  0.00000000E+00  0.00000000E+00  6.89990666E-02
  3.16423961E-01  7.44308291E-01  1.00000000E+00  1.00000000E+00  0.00000000E+00
  0.00000000E+00  0.00000000E+00  0.00000000E+00  0.00000000E+00  0.00000000E+00
  0.00000000E+00  6.75797439E-02  3.23907296E-01  7.40895140E-01  1.00000000E+00
  1.00000000E+00  0.00000000E+00
Coordinates of each shell                  R   N=          99
  1.28910502E+00  3.77945225E-06  6.93529488E-04  1.28910502E+00  3.77945225E-06
  6.93529488E-04  1.28910502E+00  3.77945225E-06  6.93529488E-04  1.28910502E+00
  3.77945225E-06  6.93529488E-04  1.28910502E+00  3.77945225E-06  6.93529488E-04
 -4.36819453E+00  0.00000000E+00 -1.56847268E-04 -4.36819453E+00  0.00000000E+00
 -1.56847268E-04 -4.36819453E+00  0.00000000E+00 -1.56847268E-04 -4.36819453E+00
  0.00000000E+00 -1.56847268E-04 -4.36819453E+00  0.00000000E+00 -1.56847268E-04
 -4.36819453E+00  0.00000000E+00 -1.56847268E-04  5.66951852E-01  4.51266599E-03
 -1.92800064E+00  5.66951852E-01  4.51266599E-03 -1.92800064E+00  5.66951852E-01
  4.51266599E-03 -1.92800064E+00  5.66951852E-01  4.51266599E-03 -1.92800064E+00
  5.69673058E-01  1.66901934E+00  9.69537216E-01  5.69673058E-01  1.66901934E+00
  9.69537216E-01  5.69673058E-01  1.66901934E+00  9.69537216E-01  5.69673058E-01
  1.66901934E+00  9.69537216E-01  5.69797780E-01 -1.67354713E+00  9.61696743E-01
  5.69797780E-01 -1.67354713E+00  9.61696743E-01  5.69797780E-01 -1.67354713E+00
  9.61696743E-01  5.69797780E-01 -1.67354713E+00  9.61696743E-01  4.03130172E+00
  9.44863062E-06 -5.06446601E-04  4.03130172E+00  9.44863062E-06 -5.06446601E-04
  4.03130172E+00  9.44863062E-06 -5.06446601E-04  4.03130172E+00  9.44863062E-06
 -5.06446601E-04  4.03130172E+00  9.44863062E-06 -5.06446601E-04  6.22621105E+00
 -7.55890450E-06  0.00000000E+00  6.22621105E+00 -7.55890450E-06  0.00000000E+00
  6.22621105E+00 -7.55890450E-06  0.00000000E+00  6.22621105E+00 -7.55890450E-06
  0.00000000E+00  6.22621105E+00 -7.55890450E-06  0.00000000E+00
Num ILSW                                   I              100
ILSW                                       I   N=         100
           0           1           0           0           2           0
           0           0           0           0         402          -1
           5           0           0           0           2           0
           0           0           0           0           1           0
           1           1           0           0           0           0
           0           0      100000           0          -1           0
           0           0           0           0           0           0
           0           0           0           1           0           0
           0 -2000000000           1           0           0           0
           0           0           4          52           0           0
           0           0           5           0           0           0
           0           0           0           7           0           1
           0           0           0           0           0           0
           0           0           0           0           0           0
           0           0           0           0           0           0
           0           0           0           0           0           0
           0           0           0           0
Num RLSW                                   I               52
RLSW                                       R   N=          52
  8.00000000E-01  7.20000000E-01  1.00000000E+00  8.10000000E-01  2.00000000E-01
  0.00000000E+00  0.00000000E+00  1.00000000E+00  0.00000000E+00  0.00000000E+00
  0.00000000E+00  0.00000000E+00  1.00000000E+00  0.00000000E+00  0.00000000E+00
  0.00000000E+00  0.00000000E+00  1.00000000E+00  0.00000000E+00  0.00000000E+00
  0.00000000E+00  0.00000000E+00  1.00000000E+00  0.00000000E+00  0.00000000E+00
  0.00000000E+00  0.00000000E+00  1.00000000E+00  0.00000000E+00  0.00000000E+00
  0.00000000E+00  0.00000000E+00  1.00000000E+00  0.00000000E+00  0.00000000E+00
  0.00000000E+00  0.00000000E+00  0.00000000E+00  1.00000000E+00  1.00000000E+00
  0.00000000E+00  1.00000000E+00  0.00000000E+00  0.00000000E+00  0.00000000E+00
  0.00000000E+00  0.00000000E+00  0.00000000E+00  0.00000000E+00  0.00000000E+00
  0.00000000E+00  0.00000000E+00
MxBond                                     I                4
NBond                                      I   N=           7
           4           0           1           1           1           2
           1
IBond                                      I   N=          28
           3           4           5           6           0           0
           0           0           1           0           0           0
           1           0           0           0           1           0
           0           0           1           7           0           0
           6           0           0           0
RBond                                      R   N=          28
  1.00000000E+00  1.00000000E+00  1.00000000E+00  1.00000000E+00  0.00000000E+00
  0.00000000E+00  0.00000000E+00  0.00000000E+00  1.00000000E+00  0.00000000E+00
  0.00000000E+00  0.00000000E+00  1.00000000E+00  0.00000000E+00  0.00000000E+00
  0.00000000E+00  1.00000000E+00  0.00000000E+00  0.00000000E+00  0.00000000E+00
  1.00000000E+00  3.00000000E+00  0.00000000E+00  0.00000000E+00  3.00000000E+00
  0.00000000E+00  0.00000000E+00  0.00000000E+00
Virial Ratio                               R      2.004583348138462E+00
SCF Energy                                 R     -5.930577324203118E+02
Total Energy                               R     -5.930577324203118E+02
RMS Force                                  R      3.185865112972875E-03
RMS Density                                R      1.599219157449810E-09
NImag                                      I                2
Job Status                                 I                1
Nuclear derivative order                   I                2
External E-field                           R   N=          35
  0.00000000E+00  0.00000000E+00  0.00000000E+00  0.00000000E+00  0.00000000E+00
  0.00000000E+00  0.00000000E+00  0.00000000E+00  0.00000000E+00  0.00000000E+00
  0.00000000E+00  0.00000000E+00  0.00000000E+00  0.00000000E+00  0.00000000E+00
  0.00000000E+00  0.00000000E+00  0.00000000E+00  0.00000000E+00  0.00000000E+00
  0.00000000E+00  0.00000000E+00  0.00000000E+00  0.00000000E+00  0.00000000E+00
  0.00000000E+00  0.00000000E+00  0.00000000E+00  0.00000000E+00  0.00000000E+00
  0.00000000E+00  0.00000000E+00  0.00000000E+00  0.00000000E+00  0.00000000E+00
IOpCl                                      I                0
IROHF                                      I                0
Alpha Orbital Energies                     R   N=          98
 -1.01254966E+02 -1.42205424E+01 -1.01170231E+01 -1.00849005E+01 -9.16886919E+00
 -6.92674343E+00 -6.92674317E+00 -6.92635182E+00 -7.91390695E-01 -6.35878081E-01
 -5.09334792E-01 -3.72575939E-01 -3.18835029E-01 -3.18746874E-01 -2.52234510E-01
 -2.09702797E-01 -2.09689770E-01 -5.47543236E-02 -5.47538970E-02 -5.37775219E-02
  1.04615487E-01  1.41073303E-01  1.41097744E-01  1.45332307E-01  1.53247532E-01
  1.53257966E-01  2.01322698E-01  2.09007419E-01  2.09017401E-01  2.19235000E-01
  2.36371379E-01  2.36390241E-01  2.57644306E-01  2.60960521E-01  2.60976329E-01
  3.02657990E-01  3.31346892E-01  3.41396214E-01  3.41396446E-01  3.51455053E-01
  3.51482070E-01  3.66543609E-01  3.95190892E-01  4.18366105E-01  4.89825340E-01
  6.92743711E-01  7.92735631E-01  7.92756583E-01  8.47106844E-01  8.47160550E-01
  8.58556716E-01  8.58572823E-01  8.64801827E-01  9.07898456E-01  9.81845402E-01
  1.02880265E+00  1.02891876E+00  1.04138046E+00  1.10080057E+00  1.12702124E+00
  1.12704799E+00  1.15241304E+00  1.15242181E+00  1.16432158E+00  1.16440247E+00
  1.23103147E+00  1.27987478E+00  1.31849443E+00  1.46234326E+00  1.46247122E+00
  1.54892892E+00  1.63301926E+00  1.63302156E+00  1.87287721E+00  1.87297511E+00
  1.93074638E+00  2.06066889E+00  2.06073347E+00  2.15816694E+00  2.24968758E+00
  2.24985410E+00  2.33903171E+00  2.40739192E+00  2.40743358E+00  2.81317954E+00
  2.81323476E+00  2.81693711E+00  3.07182867E+00  3.10440867E+00  3.10473943E+00
  3.29707686E+00  3.46985701E+00  3.56484696E+00  3.56510494E+00  4.26954532E+00
  4.46111314E+00  4.59024746E+00  4.82212683E+00
Alpha MO coefficients                      R   N=        9604
  8.00003232E-07  2.91455927E-05  4.51831269E-06 -6.37359667E-10  1.99800365E-08
 -2.05821280E-04 -1.69250874E-04 -1.09498755E-09  1.08524579E-07  1.72447593E-03
  7.02020075E-04 -7.40208469E-10 -1.56402452E-07 -3.25704441E-05 -4.09564436E-07
 -4.34077452E-07 -2.35919234E-10  2.25139764E-08 -3.21679386E-10  9.95997816E-01
  1.51421113E-02  2.54562777E-06  1.33780391E-10 -2.84726358E-09 -2.10651229E-02
 -6.39215703E-06 -2.44880277E-10  7.46376000E-09  1.96400091E-03  1.06344104E-05
  4.74023516E-10 -1.54650585E-08 -2.41586683E-04  6.71618255E-06 -2.97168500E-10
  3.71410188E-08  7.50451039E-03  7.50917672E-03  7.50917680E-03  3.24799937E-11
 -1.34869405E-09  1.33438481E-12 -8.24057331E-07 -3.90112211E-05  7.94700365E-05
  1.54772161E-05  1.80395540E-08 -7.73740445E-06 -7.44816009E-07 -3.91187682E-05
  7.94407590E-05  1.54223706E-05  6.70237428E-06  3.89178679E-06 -7.41949411E-07
 -3.91226297E-05  7.94388761E-05  1.54200626E-05 -6.72088858E-06  3.86041507E-06
 -1.33931475E-06 -1.35192600E-05  1.85960425E-06  8.36601619E-11  2.27437081E-09
 -7.43984146E-05 -3.58873330E-04  2.03264839E-10  4.30464186E-08 -2.16709730E-03
  5.19682346E-04  3.84788075E-09 -4.56009667E-07  1.20265182E-05 -9.31336989E-07
 -9.33955919E-07  9.98782859E-11 -1.22168621E-08 -4.59001407E-11 -4.19201426E-06
 -2.01233727E-05  3.91892532E-06 -2.39776234E-10  1.33105607E-08  2.90913663E-04
 -1.13292293E-04  2.20091831E-09 -9.86506911E-08  2.76574342E-04 -1.10569641E-04
 -5.44827435E-10  1.08158192E-07 -4.92233425E-06 -7.65782519E-06 -7.65768615E-06
 -2.02191691E-10  7.24732252E-09 -4.16870917E-13  9.46283924E-06 -1.88328591E-04
  2.74550925E-04  2.71711304E-09 -1.72367716E-07  1.09313999E-03  7.33951616E-04
  5.73448169E-09 -7.21769176E-07  1.18822137E-02  3.56127359E-03  8.57778977E-09
 -1.48621948E-06  4.81529869E-04  2.61350231E-05  2.62010515E-05  2.24167789E-09
 -3.80706586E-07  1.16786341E-09 -4.47399511E-08 -4.45048229E-06  4.60740577E-06
  3.13266419E-11  2.80199830E-09 -2.85203979E-06 -3.00729187E-05 -1.86502143E-10
 -1.53562233E-08  5.90193131E-06  1.05113233E-04  6.66867108E-10  2.98601833E-08
  5.93455040E-04  1.60267163E-04 -1.35953995E-09  2.04709453E-07  3.47807974E-06
 -1.63956074E-05 -1.63931077E-05  3.47359219E-11  1.23794129E-08  1.47294276E-11
 -2.25941617E-07 -5.19816678E-05 -1.61865165E-04 -4.87912889E-06  2.43888296E-09
 -1.10990310E-06 -1.72733980E-07 -5.16290002E-05 -1.61825695E-04 -4.84264841E-06
  9.04783636E-07  5.52301928E-07 -1.71370727E-07 -5.16264263E-05 -1.61839459E-04
 -4.84127272E-06 -9.03832506E-07  5.45841889E-07  7.98370066E-05  3.36099019E-04
 -5.56450866E-04  4.70278882E-09 -1.44876114E-07 -5.26442384E-05  1.49346868E-03
 -1.08124104E-09 -3.93794537E-07 -9.92968705E-03  4.80129646E-03 -1.97819661E-09
 -1.83939397E-06 -1.45052566E-03  2.26186951E-05  2.26200165E-05  9.42270681E-09
 -1.29086579E-07 -1.08228627E-10  9.92763640E-01  3.47384425E-02 -2.14029139E-03
  1.66731137E-08 -6.36982142E-07  3.45144617E-03  8.61592205E-04 -8.36124682E-09
  3.70528585E-07 -3.26165673E-03 -5.02121903E-04 -3.78331250E-09  6.15017815E-07
 -7.31308455E-03 -8.36449811E-03 -8.36449977E-03 -9.87578370E-09  3.03774872E-07
 -1.04178999E-10  5.36508772E-03  5.65878052E-05 -4.50820810E-04  4.89408058E-09
  2.79682640E-07  7.66439144E-03  3.02538811E-03  1.13784669E-08 -2.72794925E-06
  9.67380257E-02  3.72091650E-02  7.12623270E-08 -1.13818063E-05 -9.93067704E-04
 -1.95892488E-04 -1.95690581E-04 -1.50045820E-09  5.15813070E-07  6.96111240E-09
 -3.77385054E-07 -1.08558019E-05  2.69427496E-05  2.31230649E-10  1.91803563E-08
 -2.14437051E-05 -1.70776966E-04 -1.43388925E-09 -1.06010291E-07 -1.54897167E-04
  6.99459389E-04  4.73039962E-09  2.29771029E-07  7.29294589E-03  2.50563347E-03
 -4.98014456E-09  1.78426861E-06  3.19719996E-05 -4.78425485E-05 -4.78195799E-05
  5.40263488E-10  7.64919602E-08  1.49052969E-10 -1.23173297E-04 -6.39937737E-04
  6.50430218E-04  3.28557387E-05 -4.51834034E-08  1.96420118E-05 -1.22871365E-04
 -6.38964150E-04  6.55433394E-04  3.31746450E-05 -1.71082272E-05 -9.85927428E-06
 -1.22857232E-04 -6.38971697E-04  6.55460746E-04  3.32147903E-05  1.71578631E-05
 -9.78008185E-06  9.92786766E-01  5.05343602E-02  2.89063450E-04 -2.11545263E-08
  8.84021470E-07 -1.08835100E-02  8.28675584E-03 -1.81785379E-09 -2.53166027E-06
 -1.10090983E-01  3.03401455E-02  1.26451648E-07 -2.29177571E-05 -7.79550499E-03
 -9.88016932E-03 -9.88018154E-03 -8.93272199E-09  3.30151798E-08 -8.75839720E-10
 -4.65062821E-04  3.83710089E-04  3.45599972E-04 -3.99166278E-09  2.42441833E-07
 -8.43442433E-03  3.45006283E-03 -3.68830978E-08  1.29023886E-06  9.07433881E-03
 -7.09913549E-03 -2.00361962E-08  5.91506651E-06 -4.47998069E-05  3.54576856E-04
  3.54582324E-04  9.11947091E-09 -5.56033822E-07  5.65709186E-11  9.93011366E-01
  5.07111380E-02  7.80670985E-04 -2.99759319E-08 -3.70130225E-08 -2.46623558E-02
 -4.60257154E-03  8.02708451E-08  3.65640275E-06  5.24991506E-02  2.33715291E-02
 -1.79393937E-08 -3.54547372E-06 -8.94558418E-03 -8.88673031E-03 -8.88719075E-03
 -6.37078124E-09  2.66287813E-07 -1.15185473E-08  1.61946927E-06  1.92723109E-05
  3.19595799E-06 -1.11348681E-09  3.76400589E-08  7.94684096E-05 -2.29117312E-05
  6.73105208E-09 -2.30585175E-07 -4.33355676E-04  1.54964974E-04 -1.83147250E-08
  6.81510246E-07  5.48930905E-03  1.96004148E-03 -1.90445599E-09  9.65645262E-07
  1.74950713E-05  3.07830222E-05  3.07238500E-05 -3.91321287E-09  1.53973574E-07
 -7.90396944E-10  3.76910267E-06  3.22011521E-03  4.10766458E-04  2.77557949E-05
  2.68021443E-07 -1.18050847E-04  3.73133105E-06  3.21768416E-03  4.11454804E-04
  2.72655344E-05  1.02260178E-04  5.93677801E-05  3.73076830E-06  3.21782751E-03
  4.11411521E-04  2.72407254E-05 -1.02532902E-04  5.88752461E-05 -5.66604029E-03
 -4.06531185E-04  2.79283482E-04 -7.52171119E-09  1.16172900E-07  3.51250448E-03
 -9.47788021E-03  4.67121705E-08  6.52540688E-07 -6.25469691E-02  1.57363813E-02
  1.51815284E-07 -1.56833616E-05 -8.39544555E-04  1.41356568E-06  1.52415130E-06
 -2.54139421E-09  3.87043543E-07  4.40332034E-09 -1.74934477E-05 -4.45675110E-05
 -2.49733608E-04  2.30519327E-09  3.62320952E-08  5.32866554E-03 -1.74910033E-03
  2.96803877E-08 -2.12967083E-06  5.28166231E-03 -2.75143113E-03 -5.55296399E-08
  4.60624062E-06  1.47205205E-04 -7.40605099E-05 -7.40586536E-05 -5.52179410E-09
  3.79834832E-07 -1.58686217E-10  5.56096156E-05  3.20603706E-04  2.31990022E-04
  5.37456720E-09 -1.61765709E-07 -5.62297561E-03 -4.79371348E-03 -7.05929171E-08
  3.70885526E-06  9.46071314E-03  7.86930054E-03  6.74275294E-08 -1.68000399E-06
 -1.25620696E-04  9.28658131E-05  9.27864897E-05  3.25900982E-09  1.81533646E-07
 -9.30632140E-10 -2.84636281E-01  1.02268568E+00  8.76169293E-05  1.43259496E-08
 -2.94645172E-07  7.52098032E-02  4.90539985E-04  3.13495577E-09  2.96678596E-08
 -2.16710599E-02 -1.52859074E-03 -7.40943828E-09 -4.32276321E-08  1.36331975E-02
  4.56256397E-03  2.93412128E-08 -4.90527476E-07 -1.56404427E-02 -1.55604186E-02
 -1.55603721E-02  8.86305094E-10 -4.84395398E-08  9.26963910E-10 -5.22250951E-05
 -5.16790010E-04 -2.76015594E-03  9.80141740E-05  8.21000311E-08 -3.36541022E-05
 -5.18389052E-05 -5.19962155E-04 -2.74835478E-03  9.86641195E-05  2.94181259E-05
  1.68865977E-05 -5.18190467E-05 -5.20062787E-04 -2.74815337E-03  9.86799171E-05
 -2.95037456E-05  1.67561374E-05 -5.17059690E-05 -3.11897159E-04 -2.99009011E-05
  1.99986299E-09 -8.60346494E-08  6.71117952E-04 -7.13127306E-03  8.74253148E-09
  1.62455608E-06 -5.85074607E-03  6.90378190E-04 -3.68873886E-08 -2.81098595E-06
  8.93708374E-05 -5.25000897E-05 -5.25568521E-05  1.64981835E-09 -1.35568702E-07
 -9.48076868E-10 -1.21540097E-04 -4.91162936E-04  2.27607050E-05 -2.15833661E-09
  1.78097407E-07  6.50255626E-03 -1.94128188E-03  3.19235977E-08 -1.83587631E-06
 -2.10397226E-03  1.07100145E-03  8.48399065E-09  7.17588430E-07 -1.92065859E-04
 -2.37534635E-04 -2.37526221E-04 -2.91556514E-09  2.01990654E-07  5.41044039E-11
 -1.41213473E-07 -6.01126886E-07 -3.71163840E-08 -4.50871843E-07 -2.13805883E-05
  3.71165747E-06 -3.45820563E-06 -1.32166677E-05 -6.30035012E-04 -2.25409113E-05
 -1.33027904E-05  7.44232176E-06  3.54577684E-04 -2.22596601E-07 -3.89350188E-05
  3.85939130E-05  6.59977515E-07  3.15477889E-05 -1.25348118E-06 -1.19208536E-07
  3.78162812E-07 -5.88523317E-04  2.08151512E-02  9.90595631E-01 -1.19657634E-07
 -1.77245242E-05  6.23325602E-04  2.96642963E-02  8.89184216E-07  6.70979427E-06
 -2.41465336E-04 -1.14918439E-02 -6.30526526E-06 -4.92258624E-06  1.05331203E-04
  5.01392875E-03 -1.48683046E-07  2.41726101E-06 -2.61064389E-06  7.96482982E-07
  3.79076400E-05  8.19535202E-08  1.61801574E-04 -1.22695436E-03  4.55847716E-03
  5.30664028E-05  8.51244920E-07 -1.29151362E-04 -8.40358457E-05  6.31758818E-04
 -2.37345222E-03 -2.72637126E-05 -6.78108175E-05 -1.62483278E-05 -7.74872725E-05
  5.82344672E-04 -2.18923760E-03 -2.51280904E-05  6.36371066E-05 -1.28651889E-05
 -3.71413725E-08 -2.00948583E-07  5.91178396E-09  1.07539639E-06  5.11955767E-05
 -3.84236077E-06 -5.53378114E-06 -2.25819837E-06 -1.07510002E-04  3.75517481E-05
 -1.10306764E-05  2.49089084E-05  1.18837860E-03 -1.24024756E-07 -7.23684768E-06
  7.24001368E-06 -3.80885914E-07 -1.81490233E-05 -2.33540541E-07 -1.47020429E-07
 -5.99452254E-07  3.26932898E-08 -2.94732025E-07 -1.40907383E-05  7.21506825E-06
 -2.94028125E-06  1.88672203E-06  9.01111597E-05 -2.00142950E-06  2.52727606E-06
 -8.48333711E-06 -4.05439337E-04 -6.32570103E-08  3.28439063E-06 -3.96204420E-06
 -2.49991146E-07 -1.18937857E-05  1.17384022E-07  8.63629250E-09  4.27057661E-08
 -5.05968827E-10 -2.16936102E-05  4.54227620E-07 -4.12231683E-07  3.36788744E-08
 -6.27160072E-04  1.32006620E-05 -2.96901581E-06 -8.37584175E-07  3.53201099E-04
 -7.42957244E-06  7.69064466E-09  1.09284568E-06 -1.07588702E-06  3.12482467E-05
 -6.59542267E-07 -4.45702437E-05  8.48893683E-09 -2.56382885E-08  3.64551235E-05
  9.90595881E-01 -2.08151335E-02  1.27885131E-08  1.11020814E-06  2.96639297E-02
 -6.23323657E-04 -6.49308616E-08 -4.59041101E-07 -1.14908580E-02  2.41464457E-04
  5.73784057E-08  1.90480630E-07  5.01186893E-03 -1.05338440E-04  8.30514435E-09
 -5.87435725E-08  8.02687232E-08  3.79246133E-05 -7.96963409E-07  2.87633817E-06
 -3.78704015E-06  2.87535164E-05 -1.06371629E-04 -1.24178111E-06  2.33939546E-05
  3.07572917E-06 -1.38423285E-04  1.04227140E-03 -3.88722170E-03 -4.50228708E-05
 -8.89962099E-05 -6.56630158E-05  1.42190872E-04 -1.07032173E-03  3.99377192E-03
  4.62350671E-05 -9.23582470E-05  6.59095770E-05 -3.96777580E-09 -1.67721775E-08
  5.47156819E-10  5.12312563E-05 -1.07688769E-06  2.19646020E-07 -5.79103867E-08
 -1.08292475E-04  2.27644679E-06  2.48785040E-06 -7.78320958E-07  1.18532890E-03
 -2.49684364E-05 -1.93030390E-09  1.95486358E-07 -2.10709497E-07 -1.80740767E-05
  3.80254619E-07 -8.32934414E-06  3.20799603E-09  1.06158285E-08 -3.86547901E-10
 -1.40546120E-05  2.96675742E-07 -7.47364276E-08  2.65393503E-08  9.00610000E-05
 -1.89922081E-06  4.99806382E-08  6.05198959E-08 -4.03352857E-04  8.51137294E-06
  3.99157123E-09 -9.30399564E-08  1.10239896E-07 -1.19532313E-05  2.51108828E-07
  4.18567884E-06 -1.52058862E-05  1.32095760E-05  2.04441844E-04  4.54377411E-09
 -2.09193288E-07 -5.19054760E-03 -5.33510306E-03 -5.04911064E-09  2.92044888E-06
 -1.30378061E-01 -5.35702940E-02 -1.09092072E-07  1.29118983E-05 -1.29820603E-04
 -8.39062454E-05 -8.37830032E-05  4.56331595E-09  6.72830836E-08  4.40875881E-09
  6.81842550E-05 -7.93624430E-05  9.90692927E-01 -2.40867399E-05  5.89143968E-04
  4.35772312E-04  3.03554136E-02 -7.19872703E-07  1.78470028E-05 -1.79707069E-03
 -1.36600070E-02  2.76427286E-07 -7.32802442E-06 -9.00079714E-03  1.50438712E-03
 -1.14139830E-07  3.90959588E-07  1.62359621E-04  3.32115684E-04  3.32116301E-04
  3.04094700E-10 -1.33970057E-07  1.72032676E-10 -1.65758132E-04  2.08499201E-04
 -2.67440939E-03  7.95044719E-05 -7.69825936E-08  3.34367809E-05 -1.65972195E-04
  2.07086360E-04 -2.68023911E-03  8.07351911E-05 -2.86565051E-05 -1.68456527E-05
 -1.65967001E-04  2.07113444E-04 -2.68052734E-03  8.07673260E-05  2.87369446E-05
 -1.67105489E-05 -1.55056650E-04 -7.26939098E-04  5.44387817E-06  2.11711592E-09