 Entering Gaussian System, Link 0=g16
 Initial command:
 /usr/local/g16_AVX//g16/l1.exe "/scratch/alanqf/0050-54492.ixchel.mda.cinvestav.mx/Gau-5277.inp" -scrdir="/scratch/alanqf/0050-54492.ixchel.mda.cinvestav.mx/"
 Entering Link 1 = /usr/local/g16_AVX//g16/l1.exe PID=      5303.
  
 Copyright (c) 1988-2017, Gaussian, Inc.  All Rights Reserved.
  
 This is part of the Gaussian(R) 16 program.  It is based on
 the Gaussian(R) 09 system (copyright 2009, Gaussian, Inc.),
 the Gaussian(R) 03 system (copyright 2003, Gaussian, Inc.),
 the Gaussian(R) 98 system (copyright 1998, Gaussian, Inc.),
 the Gaussian(R) 94 system (copyright 1995, Gaussian, Inc.),
 the Gaussian 92(TM) system (copyright 1992, Gaussian, Inc.),
 the Gaussian 90(TM) system (copyright 1990, Gaussian, Inc.),
 the Gaussian 88(TM) system (copyright 1988, Gaussian, Inc.),
 the Gaussian 86(TM) system (copyright 1986, Carnegie Mellon
 University), and the Gaussian 82(TM) system (copyright 1983,
 Carnegie Mellon University). Gaussian is a federally registered
 trademark of Gaussian, Inc.
  
 This software contains proprietary and confidential information,
 including trade secrets, belonging to Gaussian, Inc.
  
 This software is provided under written license and may be
 used, copied, transmitted, or stored only in accord with that
 written license.
  
 The following legend is applicable only to US Government
 contracts under FAR:
  
                    RESTRICTED RIGHTS LEGEND
  
 Use, reproduction and disclosure by the US Government is
 subject to restrictions as set forth in subparagraphs (a)
 and (c) of the Commercial Computer Software - Restricted
 Rights clause in FAR 52.227-19.
  
 Gaussian, Inc.
 340 Quinnipiac St., Bldg. 40, Wallingford CT 06492
  
  
 ---------------------------------------------------------------
 Warning -- This program may not be used in any manner that
 competes with the business of Gaussian, Inc. or will provide
 assistance to any competitor of Gaussian, Inc.  The licensee
 of this program is prohibited from giving any competitor of
 Gaussian, Inc. access to this program.  By using this program,
 the user acknowledges that Gaussian, Inc. is engaged in the
 business of creating and licensing software in the field of
 computational chemistry and represents and warrants to the
 licensee that it is not a competitor of Gaussian, Inc. and that
 it will not use this program in any manner prohibited above.
 ---------------------------------------------------------------
  

 Cite this work as:
 Gaussian 16, Revision B.01,
 M. J. Frisch, G. W. Trucks, H. B. Schlegel, G. E. Scuseria, 
 M. A. Robb, J. R. Cheeseman, G. Scalmani, V. Barone, 
 G. A. Petersson, H. Nakatsuji, X. Li, M. Caricato, A. V. Marenich, 
 J. Bloino, B. G. Janesko, R. Gomperts, B. Mennucci, H. P. Hratchian, 
 J. V. Ortiz, A. F. Izmaylov, J. L. Sonnenberg, D. Williams-Young, 
 F. Ding, F. Lipparini, F. Egidi, J. Goings, B. Peng, A. Petrone, 
 T. Henderson, D. Ranasinghe, V. G. Zakrzewski, J. Gao, N. Rega, 
 G. Zheng, W. Liang, M. Hada, M. Ehara, K. Toyota, R. Fukuda, 
 J. Hasegawa, M. Ishida, T. Nakajima, Y. Honda, O. Kitao, H. Nakai, 
 T. Vreven, K. Throssell, J. A. Montgomery, Jr., J. E. Peralta, 
 F. Ogliaro, M. J. Bearpark, J. J. Heyd, E. N. Brothers, K. N. Kudin, 
 V. N. Staroverov, T. A. Keith, R. Kobayashi, J. Normand, 
 K. Raghavachari, A. P. Rendell, J. C. Burant, S. S. Iyengar, 
 J. Tomasi, M. Cossi, J. M. Millam, M. Klene, C. Adamo, R. Cammi, 
 J. W. Ochterski, R. L. Martin, K. Morokuma, O. Farkas, 
 J. B. Foresman, and D. J. Fox, Gaussian, Inc., Wallingford CT, 2016.
 
 ******************************************
 Gaussian 16:  ES64L-G16RevB.01 20-Dec-2017
                13-Oct-2024 
 ******************************************
 %NProcShared=26
 Will use up to   26 processors via shared memory.
 %MEM=20GB
 %chk=CHKfiles/0050.chk
 ---------------------------------------------------------------------
 #p b3lyp 6-31++g(d,p) scf=verytight NoSymm freq=noraman int=ultrafine
 ---------------------------------------------------------------------
 1/10=4,30=1,38=1/1,3;
 2/12=2,15=1,17=6,18=5,40=1/2;
 3/5=1,6=6,7=1111,11=2,25=1,30=1,71=2,74=-5,75=-5,140=1/1,2,3;
 4//1;
 5/5=2,17=3,38=5,98=1/2;
 8/6=4,10=90,11=11/1;
 11/6=1,8=1,9=11,15=111,16=1,31=1/1,2,10;
 10/6=1,31=1/2;
 6/7=2,8=2,9=2,10=2,28=1/1;
 7/8=1,10=1,25=1,30=1/1,2,3,16;
 1/10=4,30=1/3;
 99//99;
 Leave Link    1 at Sun Oct 13 09:48:44 2024, MaxMem=  2684354560 cpu:               1.5 elap:               0.1
 (Enter /usr/local/g16_AVX//g16/l101.exe)
 ------------------------
 RxCoord=-5.09771 DE=3.78
 ------------------------
 Symbolic Z-matrix:
 Charge = -1 Multiplicity = 1
 C                     0.6766    0.        0.00033 
 Cl                   -2.30498   0.       -0.00008 
 H                     0.29399   0.00238  -1.02027 
 H                     0.29533   0.88314   0.51304 
 H                     0.29535  -0.88554   0.5089 
 C                     2.12771   0.00001  -0.00026 
 N                     3.28922  0.         0.00003 
 
 ITRead=  0  0  0  0  0  0  0
 MicOpt= -1 -1 -1 -1 -1 -1 -1
 NAtoms=      7 NQM=        7 NQMF=       0 NMMI=      0 NMMIF=      0
                NMic=       0 NMicF=      0.
                    Isotopes and Nuclear Properties:
 (Nuclear quadrupole moments (NQMom) in fm**2, nuclear magnetic moments (NMagM)
  in nuclear magnetons)

  Atom         1           2           3           4           5           6           7
 IAtWgt=          12          35           1           1           1          12          14
 AtmWgt=  12.0000000  34.9688527   1.0078250   1.0078250   1.0078250  12.0000000  14.0030740
 NucSpn=           0           3           1           1           1           0           2
 AtZEff=  -0.0000000  -0.0000000  -0.0000000  -0.0000000  -0.0000000  -0.0000000  -0.0000000
 NQMom=    0.0000000  -8.1650000   0.0000000   0.0000000   0.0000000   0.0000000   2.0440000
 NMagM=    0.0000000   0.8218740   2.7928460   2.7928460   2.7928460   0.0000000   0.4037610
 AtZNuc=   6.0000000  17.0000000   1.0000000   1.0000000   1.0000000   6.0000000   7.0000000
 Leave Link  101 at Sun Oct 13 09:48:44 2024, MaxMem=  2684354560 cpu:               2.0 elap:               0.1
 (Enter /usr/local/g16_AVX//g16/l103.exe)

 GradGradGradGradGradGradGradGradGradGradGradGradGradGradGradGradGradGrad
 Berny optimization.
 Initialization pass.
 Trust Radius=3.00D-01 FncErr=1.00D-07 GrdErr=1.00D-07 EigMax=2.50D+02 EigMin=1.00D-04
 Number of steps in this run=      2 maximum allowed number of steps=      2.
 GradGradGradGradGradGradGradGradGradGradGradGradGradGradGradGradGradGrad

 Leave Link  103 at Sun Oct 13 09:48:44 2024, MaxMem=  2684354560 cpu:               0.4 elap:               0.0
 (Enter /usr/local/g16_AVX//g16/l202.exe)
                          Input orientation:                          
 ---------------------------------------------------------------------
 Center     Atomic      Atomic             Coordinates (Angstroms)
 Number     Number       Type             X           Y           Z
 ---------------------------------------------------------------------
      1          6           0        0.676595    0.000002    0.000329
      2         17           0       -2.304977    0.000000   -0.000081
      3          1           0        0.293990    0.002382   -1.020270
      4          1           0        0.295328    0.883135    0.513043
      5          1           0        0.295346   -0.885537    0.508903
      6          6           0        2.127706    0.000005   -0.000263
      7          7           0        3.289221   -0.000004    0.000025
 ---------------------------------------------------------------------
                    Distance matrix (angstroms):
                    1          2          3          4          5
     1  C    0.000000
     2  Cl   2.981572   0.000000
     3  H    1.089961   2.792028   0.000000
     4  H    1.090029   2.793709   1.768269   0.000000
     5  H    1.090036   2.793729   1.768268   1.768677   0.000000
     6  C    1.451111   4.432683   2.098317   2.097859   2.097851
     7  N    2.612626   5.594198   3.164240   3.163308   3.163291
                    6          7
     6  C    0.000000
     7  N    1.161515   0.000000
 Symmetry turned off by external request.
 Stoichiometry    C2H3ClN(1-)
 Framework group  C1[X(C2H3ClN)]
 Deg. of freedom    15
 Full point group                 C1      NOp   1
 Rotational constants (GHZ):         160.3498014           1.2667955           1.2667924
 Leave Link  202 at Sun Oct 13 09:48:44 2024, MaxMem=  2684354560 cpu:               0.2 elap:               0.0
 (Enter /usr/local/g16_AVX//g16/l301.exe)
 Standard basis: 6-31++G(d,p) (6D, 7F)
 Ernie: Thresh=  0.10000D-02 Tol=  0.10000D-05 Strict=F.
    98 basis functions,   176 primitive gaussians,    98 cartesian basis functions
    20 alpha electrons       20 beta electrons
       nuclear repulsion energy       109.6580281652 Hartrees.
 IExCor=  402 DFT=T Ex+Corr=B3LYP ExCW=0 ScaHFX=  0.200000
 ScaDFX=  0.800000  0.720000  1.000000  0.810000 ScalE2=  1.000000  1.000000
 IRadAn=      5 IRanWt=     -1 IRanGd=            0 ICorTp=0 IEmpDi=  4
 NAtoms=    7 NActive=    7 NUniq=    7 SFac= 1.00D+00 NAtFMM=   60 NAOKFM=F Big=F
 Integral buffers will be    131072 words long.
 Raffenetti 2 integral format.
 Two-electron integral symmetry is turned off.
 Leave Link  301 at Sun Oct 13 09:48:44 2024, MaxMem=  2684354560 cpu:               1.0 elap:               0.1
 (Enter /usr/local/g16_AVX//g16/l302.exe)
 NPDir=0 NMtPBC=     1 NCelOv=     1 NCel=       1 NClECP=     1 NCelD=      1
         NCelK=      1 NCelE2=     1 NClLst=     1 CellRange=     0.0.
 One-electron integrals computed using PRISM.
 NBasis=    98 RedAO= T EigKep=  1.22D-05  NBF=    98
 NBsUse=    98 1.00D-06 EigRej= -1.00D+00 NBFU=    98
 Precomputing XC quadrature grid using
 IXCGrd= 4 IRadAn=           5 IRanWt=          -1 IRanGd=           0 AccXCQ= 0.00D+00.
 Generated NRdTot=       0 NPtTot=           0 NUsed=           0 NTot=          32
 NSgBfM=    98    98    98    98    98 MxSgAt=     7 MxSgA2=     7.
 Leave Link  302 at Sun Oct 13 09:48:44 2024, MaxMem=  2684354560 cpu:               3.4 elap:               0.2
 (Enter /usr/local/g16_AVX//g16/l303.exe)
 DipDrv:  MaxL=1.
 Leave Link  303 at Sun Oct 13 09:48:44 2024, MaxMem=  2684354560 cpu:               0.7 elap:               0.1
 (Enter /usr/local/g16_AVX//g16/l401.exe)
 ExpMin= 3.60D-02 ExpMax= 2.52D+04 ExpMxC= 3.78D+03 IAcc=3 IRadAn=         5 AccDes= 0.00D+00
 Harris functional with IExCor=  402 and IRadAn=       5 diagonalized for initial guess.
 HarFok:  IExCor=  402 AccDes= 0.00D+00 IRadAn=         5 IDoV= 1 UseB2=F ITyADJ=14
 ICtDFT=  3500011 ScaDFX=  1.000000  1.000000  1.000000  1.000000
 FoFCou: FMM=F IPFlag=           0 FMFlag=      100000 FMFlg1=           0
         NFxFlg=           0 DoJE=T BraDBF=F KetDBF=T FulRan=T
         wScrn=  0.000000 ICntrl=       500 IOpCl=  0 I1Cent=   200000004 NGrid=           0
         NMat0=    1 NMatS0=      1 NMatT0=    0 NMatD0=    1 NMtDS0=    0 NMtDT0=    0
 Symmetry not used in FoFCou.
 Harris En= -593.112016445282    
 JPrj=0 DoOrth=F DoCkMO=F.
 Leave Link  401 at Sun Oct 13 09:48:45 2024, MaxMem=  2684354560 cpu:               5.9 elap:               0.3
 (Enter /usr/local/g16_AVX//g16/l502.exe)
 Keep R1 ints in memory in canonical form, NReq=35752935.
 FoFCou: FMM=F IPFlag=           0 FMFlag=           0 FMFlg1=           0
         NFxFlg=           0 DoJE=F BraDBF=F KetDBF=F FulRan=T
         wScrn=  0.000000 ICntrl=       600 IOpCl=  0 I1Cent=           0 NGrid=           0
         NMat0=    1 NMatS0=   4851 NMatT0=    0 NMatD0=    1 NMtDS0=    0 NMtDT0=    0
 Symmetry not used in FoFCou.
 Two-electron integral symmetry not used.
 Closed shell SCF:
 Using DIIS extrapolation, IDIIS=  1040.
 NGot=  2684354560 LenX=  2672563405 LenY=  2672553360
 Requested convergence on RMS density matrix=1.00D-08 within 128 cycles.
 Requested convergence on MAX density matrix=1.00D-06.
 Requested convergence on             energy=1.00D-06.
 No special actions if energy rises.

 Cycle   1  Pass 1  IDiag  1:
 E= -592.946722518633    
 DIIS: error= 2.86D-02 at cycle   1 NSaved=   1.
 NSaved= 1 IEnMin= 1 EnMin= -592.946722518633     IErMin= 1 ErrMin= 2.86D-02
 ErrMax= 2.86D-02  0.00D+00 EMaxC= 1.00D-01 BMatC= 1.05D-01 BMatP= 1.05D-01
 IDIUse=3 WtCom= 7.14D-01 WtEn= 2.86D-01
 Coeff-Com:  0.100D+01
 Coeff-En:   0.100D+01
 Coeff:      0.100D+01
 Gap=     0.179 Goal=   None    Shift=    0.000
 GapD=    0.179 DampG=1.000 DampE=0.500 DampFc=0.5000 IDamp=-1.
 Damping current iteration by 5.00D-01
 RMSDP=1.31D-02 MaxDP=3.18D-01              OVMax= 1.69D-01

 Cycle   2  Pass 1  IDiag  1:
 E= -592.988978627501     Delta-E=       -0.042256108867 Rises=F Damp=T
 DIIS: error= 1.19D-02 at cycle   2 NSaved=   2.
 NSaved= 2 IEnMin= 2 EnMin= -592.988978627501     IErMin= 2 ErrMin= 1.19D-02
 ErrMax= 1.19D-02  0.00D+00 EMaxC= 1.00D-01 BMatC= 1.33D-02 BMatP= 1.05D-01
 IDIUse=3 WtCom= 8.81D-01 WtEn= 1.19D-01
 Coeff-Com:  0.141D+00 0.859D+00
 Coeff-En:   0.213D+00 0.787D+00
 Coeff:      0.149D+00 0.851D+00
 Gap=     0.152 Goal=   None    Shift=    0.000
 RMSDP=5.42D-03 MaxDP=1.70D-01 DE=-4.23D-02 OVMax= 1.36D-01

 Cycle   3  Pass 1  IDiag  1:
 E= -593.039846468420     Delta-E=       -0.050867840919 Rises=F Damp=F
 DIIS: error= 1.32D-02 at cycle   3 NSaved=   3.
 NSaved= 3 IEnMin= 3 EnMin= -593.039846468420     IErMin= 2 ErrMin= 1.19D-02
 ErrMax= 1.32D-02  0.00D+00 EMaxC= 1.00D-01 BMatC= 1.93D-02 BMatP= 1.33D-02
 IDIUse=2 WtCom= 0.00D+00 WtEn= 1.00D+00
 Coeff-En:   0.000D+00 0.000D+00 0.100D+01
 Coeff:      0.000D+00 0.000D+00 0.100D+01
 Gap=     0.162 Goal=   None    Shift=    0.000
 RMSDP=7.90D-03 MaxDP=2.87D-01 DE=-5.09D-02 OVMax= 1.63D-01

 Cycle   4  Pass 1  IDiag  1:
 E= -592.945124654888     Delta-E=        0.094721813532 Rises=F Damp=F
 DIIS: error= 2.91D-02 at cycle   4 NSaved=   4.
 NSaved= 4 IEnMin= 3 EnMin= -593.039846468420     IErMin= 2 ErrMin= 1.19D-02
 ErrMax= 2.91D-02  0.00D+00 EMaxC= 1.00D-01 BMatC= 1.26D-01 BMatP= 1.33D-02
 IDIUse=2 WtCom= 0.00D+00 WtEn= 1.00D+00
 Coeff-En:   0.000D+00 0.000D+00 0.804D+00 0.196D+00
 Coeff:      0.000D+00 0.000D+00 0.804D+00 0.196D+00
 Gap=     0.159 Goal=   None    Shift=    0.000
 RMSDP=3.88D-03 MaxDP=1.42D-01 DE= 9.47D-02 OVMax= 8.27D-02

 Cycle   5  Pass 1  IDiag  1:
 E= -593.047919284061     Delta-E=       -0.102794629173 Rises=F Damp=F
 DIIS: error= 8.92D-03 at cycle   5 NSaved=   5.
 NSaved= 5 IEnMin= 5 EnMin= -593.047919284061     IErMin= 5 ErrMin= 8.92D-03
 ErrMax= 8.92D-03  0.00D+00 EMaxC= 1.00D-01 BMatC= 1.08D-02 BMatP= 1.33D-02
 IDIUse=3 WtCom= 9.11D-01 WtEn= 8.92D-02
 Coeff-Com: -0.620D-03 0.176D-01 0.321D+00-0.104D+00 0.766D+00
 Coeff-En:   0.000D+00 0.000D+00 0.392D+00 0.000D+00 0.608D+00
 Coeff:     -0.565D-03 0.161D-01 0.327D+00-0.947D-01 0.752D+00
 Gap=     0.159 Goal=   None    Shift=    0.000
 RMSDP=1.62D-03 MaxDP=5.72D-02 DE=-1.03D-01 OVMax= 3.30D-02

 Cycle   6  Pass 1  IDiag  1:
 E= -593.057529841939     Delta-E=       -0.009610557878 Rises=F Damp=F
 DIIS: error= 1.41D-04 at cycle   6 NSaved=   6.
 NSaved= 6 IEnMin= 6 EnMin= -593.057529841939     IErMin= 6 ErrMin= 1.41D-04
 ErrMax= 1.41D-04  0.00D+00 EMaxC= 1.00D-01 BMatC= 4.12D-06 BMatP= 1.08D-02
 IDIUse=3 WtCom= 9.99D-01 WtEn= 1.41D-03
 Coeff-Com: -0.129D-02 0.679D-02 0.119D+00-0.498D-01 0.324D+00 0.601D+00
 Coeff-En:   0.000D+00 0.000D+00 0.000D+00 0.000D+00 0.000D+00 0.100D+01
 Coeff:     -0.129D-02 0.678D-02 0.119D+00-0.497D-01 0.324D+00 0.602D+00
 Gap=     0.159 Goal=   None    Shift=    0.000
 RMSDP=4.29D-05 MaxDP=8.43D-04 DE=-9.61D-03 OVMax= 6.51D-04

 Cycle   7  Pass 1  IDiag  1:
 E= -593.057533664553     Delta-E=       -0.000003822614 Rises=F Damp=F
 DIIS: error= 6.45D-05 at cycle   7 NSaved=   7.
 NSaved= 7 IEnMin= 7 EnMin= -593.057533664553     IErMin= 7 ErrMin= 6.45D-05
 ErrMax= 6.45D-05  0.00D+00 EMaxC= 1.00D-01 BMatC= 5.18D-07 BMatP= 4.12D-06
 IDIUse=1 WtCom= 1.00D+00 WtEn= 0.00D+00
 Coeff-Com: -0.137D-03 0.591D-03 0.178D-01-0.924D-02 0.510D-01 0.191D+00
 Coeff-Com:  0.749D+00
 Coeff:     -0.137D-03 0.591D-03 0.178D-01-0.924D-02 0.510D-01 0.191D+00
 Coeff:      0.749D+00
 Gap=     0.159 Goal=   None    Shift=    0.000
 RMSDP=1.17D-05 MaxDP=3.13D-04 DE=-3.82D-06 OVMax= 2.45D-04

 Cycle   8  Pass 1  IDiag  1:
 E= -593.057534162155     Delta-E=       -0.000000497602 Rises=F Damp=F
 DIIS: error= 1.04D-05 at cycle   8 NSaved=   8.
 NSaved= 8 IEnMin= 8 EnMin= -593.057534162155     IErMin= 8 ErrMin= 1.04D-05
 ErrMax= 1.04D-05  0.00D+00 EMaxC= 1.00D-01 BMatC= 1.08D-08 BMatP= 5.18D-07
 IDIUse=1 WtCom= 1.00D+00 WtEn= 0.00D+00
 Coeff-Com:  0.534D-04-0.166D-03 0.398D-02-0.192D-02 0.104D-01 0.514D-01
 Coeff-Com:  0.257D+00 0.679D+00
 Coeff:      0.534D-04-0.166D-03 0.398D-02-0.192D-02 0.104D-01 0.514D-01
 Coeff:      0.257D+00 0.679D+00
 Gap=     0.159 Goal=   None    Shift=    0.000
 RMSDP=4.00D-06 MaxDP=1.16D-04 DE=-4.98D-07 OVMax= 3.33D-05

 Cycle   9  Pass 1  IDiag  1:
 E= -593.057534173928     Delta-E=       -0.000000011772 Rises=F Damp=F
 DIIS: error= 2.52D-06 at cycle   9 NSaved=   9.
 NSaved= 9 IEnMin= 9 EnMin= -593.057534173928     IErMin= 9 ErrMin= 2.52D-06
 ErrMax= 2.52D-06  0.00D+00 EMaxC= 1.00D-01 BMatC= 7.58D-10 BMatP= 1.08D-08
 IDIUse=1 WtCom= 1.00D+00 WtEn= 0.00D+00
 Coeff-Com:  0.311D-04-0.708D-04-0.685D-03 0.120D-03-0.153D-02-0.431D-03
 Coeff-Com:  0.185D-01 0.225D+00 0.759D+00
 Coeff:      0.311D-04-0.708D-04-0.685D-03 0.120D-03-0.153D-02-0.431D-03
 Coeff:      0.185D-01 0.225D+00 0.759D+00
 Gap=     0.159 Goal=   None    Shift=    0.000
 RMSDP=1.56D-06 MaxDP=5.79D-05 DE=-1.18D-08 OVMax= 7.73D-06

 Cycle  10  Pass 1  IDiag  1:
 E= -593.057534174731     Delta-E=       -0.000000000804 Rises=F Damp=F
 DIIS: error= 2.70D-07 at cycle  10 NSaved=  10.
 NSaved=10 IEnMin=10 EnMin= -593.057534174731     IErMin=10 ErrMin= 2.70D-07
 ErrMax= 2.70D-07  0.00D+00 EMaxC= 1.00D-01 BMatC= 1.59D-11 BMatP= 7.58D-10
 IDIUse=1 WtCom= 1.00D+00 WtEn= 0.00D+00
 Coeff-Com:  0.627D-05-0.174D-04-0.131D-03 0.590D-04-0.350D-03-0.354D-03
 Coeff-Com: -0.253D-02 0.301D-01 0.150D+00 0.823D+00
 Coeff:      0.627D-05-0.174D-04-0.131D-03 0.590D-04-0.350D-03-0.354D-03
 Coeff:     -0.253D-02 0.301D-01 0.150D+00 0.823D+00
 Gap=     0.159 Goal=   None    Shift=    0.000
 RMSDP=8.78D-08 MaxDP=2.27D-06 DE=-8.04D-10 OVMax= 1.28D-06

 Cycle  11  Pass 1  IDiag  1:
 E= -593.057534174746     Delta-E=       -0.000000000015 Rises=F Damp=F
 DIIS: error= 6.54D-08 at cycle  11 NSaved=  11.
 NSaved=11 IEnMin=11 EnMin= -593.057534174746     IErMin=11 ErrMin= 6.54D-08
 ErrMax= 6.54D-08  0.00D+00 EMaxC= 1.00D-01 BMatC= 5.98D-13 BMatP= 1.59D-11
 IDIUse=1 WtCom= 1.00D+00 WtEn= 0.00D+00
 Coeff-Com: -0.506D-06 0.579D-06-0.180D-04 0.940D-05-0.405D-04-0.104D-03
 Coeff-Com: -0.136D-02-0.130D-02 0.697D-02 0.125D+00 0.870D+00
 Coeff:     -0.506D-06 0.579D-06-0.180D-04 0.940D-05-0.405D-04-0.104D-03
 Coeff:     -0.136D-02-0.130D-02 0.697D-02 0.125D+00 0.870D+00
 Gap=     0.159 Goal=   None    Shift=    0.000
 RMSDP=1.04D-07 MaxDP=3.88D-06 DE=-1.50D-11 OVMax= 2.18D-07

 Cycle  12  Pass 1  IDiag  1:
 E= -593.057534174746     Delta-E=        0.000000000000 Rises=F Damp=F
 DIIS: error= 2.23D-08 at cycle  12 NSaved=  12.
 NSaved=12 IEnMin=11 EnMin= -593.057534174746     IErMin=12 ErrMin= 2.23D-08
 ErrMax= 2.23D-08  0.00D+00 EMaxC= 1.00D-01 BMatC= 1.78D-14 BMatP= 5.98D-13
 IDIUse=1 WtCom= 1.00D+00 WtEn= 0.00D+00
 Coeff-Com: -0.514D-06 0.108D-05-0.867D-06-0.214D-07 0.218D-05-0.159D-04
 Coeff-Com: -0.243D-03-0.131D-02-0.332D-02 0.424D-02 0.260D+00 0.740D+00
 Coeff:     -0.514D-06 0.108D-05-0.867D-06-0.214D-07 0.218D-05-0.159D-04
 Coeff:     -0.243D-03-0.131D-02-0.332D-02 0.424D-02 0.260D+00 0.740D+00
 Gap=     0.159 Goal=   None    Shift=    0.000
 RMSDP=1.82D-08 MaxDP=7.01D-07 DE= 3.41D-13 OVMax= 5.00D-08

 Cycle  13  Pass 1  IDiag  1:
 E= -593.057534174747     Delta-E=       -0.000000000001 Rises=F Damp=F
 DIIS: error= 1.03D-09 at cycle  13 NSaved=  13.
 NSaved=13 IEnMin=13 EnMin= -593.057534174747     IErMin=13 ErrMin= 1.03D-09
 ErrMax= 1.03D-09  0.00D+00 EMaxC= 1.00D-01 BMatC= 1.97D-16 BMatP= 1.78D-14
 IDIUse=1 WtCom= 1.00D+00 WtEn= 0.00D+00
 Coeff-Com: -0.652D-08 0.554D-08 0.338D-06-0.751D-07 0.502D-06-0.251D-05
 Coeff-Com:  0.152D-04-0.998D-05-0.277D-03 0.266D-03-0.131D-01 0.160D-03
 Coeff-Com:  0.101D+01
 Coeff:     -0.652D-08 0.554D-08 0.338D-06-0.751D-07 0.502D-06-0.251D-05
 Coeff:      0.152D-04-0.998D-05-0.277D-03 0.266D-03-0.131D-01 0.160D-03
 Coeff:      0.101D+01
 Gap=     0.159 Goal=   None    Shift=    0.000
 RMSDP=1.66D-09 MaxDP=5.21D-08 DE=-9.09D-13 OVMax= 8.46D-09

 SCF Done:  E(RB3LYP) =  -593.057534175     A.U. after   13 cycles
            NFock= 13  Conv=0.17D-08     -V/T= 2.0046
 KE= 5.903539930820D+02 PE=-1.629757838188D+03 EE= 3.366882827662D+02
 Leave Link  502 at Sun Oct 13 09:48:46 2024, MaxMem=  2684354560 cpu:              38.9 elap:               1.8
 (Enter /usr/local/g16_AVX//g16/l801.exe)
 DoSCS=F DFT=T ScalE2(SS,OS)=  1.000000  1.000000
 Range of M.O.s used for correlation:     1    98
 NBasis=    98 NAE=    20 NBE=    20 NFC=     0 NFV=     0
 NROrb=     98 NOA=    20 NOB=    20 NVA=    78 NVB=    78

 **** Warning!!: The largest alpha MO coefficient is  0.14186622D+03

 Leave Link  801 at Sun Oct 13 09:48:47 2024, MaxMem=  2684354560 cpu:               0.7 elap:               0.1
 (Enter /usr/local/g16_AVX//g16/l1101.exe)
 Using compressed storage, NAtomX=     7.
 Will process      8 centers per pass.
 Leave Link 1101 at Sun Oct 13 09:48:47 2024, MaxMem=  2684354560 cpu:               3.5 elap:               0.2
 (Enter /usr/local/g16_AVX//g16/l1102.exe)
 Symmetrizing basis deriv contribution to polar:
 IMax=3 JMax=2 DiffMx= 0.00D+00
 Leave Link 1102 at Sun Oct 13 09:48:47 2024, MaxMem=  2684354560 cpu:               0.8 elap:               0.1
 (Enter /usr/local/g16_AVX//g16/l1110.exe)
 Forming Gx(P) for the SCF density, NAtomX=     7.
 Integral derivatives from FoFJK, PRISM(SPDF).
 Do as many integral derivatives as possible in FoFJK.
 G2DrvN: MDV=    2684353864.
 G2DrvN: will do     8 centers at a time, making    1 passes.
 Calling FoFCou, ICntrl=  3107 FMM=F I1Cent=   0 AccDes= 0.00D+00.
 FoFJK:  IHMeth= 1 ICntrl=    3107 DoSepK=F KAlg= 0 I1Cent=           0 FoldK=F
 IRaf=         0 NMat=       1 IRICut=       1 DoRegI=T DoRafI=F ISym2E= 0 IDoP0=0 IntGTp=1.
 FoFCou: FMM=F IPFlag=           0 FMFlag=      100000 FMFlg1=           0
         NFxFlg=           0 DoJE=F BraDBF=F KetDBF=F FulRan=T
         wScrn=  0.000000 ICntrl=      3107 IOpCl=  0 I1Cent=           0 NGrid=           0
         NMat0=    1 NMatS0=      1 NMatT0=    0 NMatD0=    1 NMtDS0=    0 NMtDT0=    0
 Symmetry not used in FoFCou.
 End of G2Drv F.D. properties file   721 does not exist.
 End of G2Drv F.D. properties file   722 does not exist.
 End of G2Drv F.D. properties file   788 does not exist.
 Leave Link 1110 at Sun Oct 13 09:48:48 2024, MaxMem=  2684354560 cpu:              40.2 elap:               1.6
 (Enter /usr/local/g16_AVX//g16/l1002.exe)
 Minotr:  Closed shell wavefunction.
          IDoAtm=1111111
          Direct CPHF calculation.
          Differentiating once with respect to electric field.
                with respect to dipole field.
          Differentiating once with respect to nuclear coordinates.
          Requested convergence is 1.0D-08 RMS, and 1.0D-07 maximum.
          Secondary convergence is 1.0D-12 RMS, and 1.0D-12 maximum.
          NewPWx=T KeepS1=F KeepF1=F KeepIn=T MapXYZ=F SortEE=F KeepMc=T.
         2122 words used for storage of precomputed grid.
 Keep R1 ints in memory in canonical form, NReq=35668383.
 FoFCou: FMM=F IPFlag=           0 FMFlag=           0 FMFlg1=           0
         NFxFlg=           0 DoJE=F BraDBF=F KetDBF=F FulRan=T
         wScrn=  0.000000 ICntrl=       600 IOpCl=  0 I1Cent=           0 NGrid=           0
         NMat0=    1 NMatS0=   4851 NMatT0=    0 NMatD0=    1 NMtDS0=    0 NMtDT0=    0
 Symmetry not used in FoFCou.
 Two-electron integral symmetry not used.
          MDV=    2684354560 using IRadAn=       1.
          Solving linear equations simultaneously, MaxMat=       0.
          There are    24 degrees of freedom in the 1st order CPHF.  IDoFFX=6 NUNeed=     3.
     21 vectors produced by pass  0 Test12= 6.50D-15 4.17D-09 XBig12= 6.97D+01 3.22D+00.
 AX will form    21 AO Fock derivatives at one time.
     21 vectors produced by pass  1 Test12= 6.50D-15 4.17D-09 XBig12= 4.69D+01 2.46D+00.
     21 vectors produced by pass  2 Test12= 6.50D-15 4.17D-09 XBig12= 1.44D+00 2.91D-01.
     21 vectors produced by pass  3 Test12= 6.50D-15 4.17D-09 XBig12= 1.10D-02 2.21D-02.
     21 vectors produced by pass  4 Test12= 6.50D-15 4.17D-09 XBig12= 1.71D-05 1.00D-03.
     19 vectors produced by pass  5 Test12= 6.50D-15 4.17D-09 XBig12= 1.83D-08 2.61D-05.
      5 vectors produced by pass  6 Test12= 6.50D-15 4.17D-09 XBig12= 3.01D-11 1.02D-06.
      3 vectors produced by pass  7 Test12= 6.50D-15 4.17D-09 XBig12= 5.36D-14 7.86D-08.
 InvSVY:  IOpt=1 It=  1 EMax= 6.22D-15
 Solved reduced A of dimension   132 with    24 vectors.
 FullF1:  Do perturbations      1 to       3.
 Isotropic polarizability for W=    0.000000       54.10 Bohr**3.
 End of Minotr F.D. properties file   721 does not exist.
 End of Minotr F.D. properties file   722 does not exist.
 End of Minotr F.D. properties file   788 does not exist.
 Leave Link 1002 at Sun Oct 13 09:48:51 2024, MaxMem=  2684354560 cpu:              58.4 elap:               2.3
 (Enter /usr/local/g16_AVX//g16/l601.exe)
 Copying SCF densities to generalized density rwf, IOpCl= 0 IROHF=0.

 **********************************************************************

            Population analysis using the SCF Density.

 **********************************************************************

 Alpha  occ. eigenvalues -- -101.25496 -14.22018 -10.11664 -10.08441  -9.16889
 Alpha  occ. eigenvalues --   -6.92677  -6.92677  -6.92637  -0.79103  -0.63539
 Alpha  occ. eigenvalues --   -0.50950  -0.37219  -0.31831  -0.31824  -0.25191
 Alpha  occ. eigenvalues --   -0.20933  -0.20932  -0.05488  -0.05488  -0.05378
 Alpha virt. eigenvalues --    0.10479   0.14129   0.14131   0.14543   0.15352
 Alpha virt. eigenvalues --    0.15353   0.20143   0.20916   0.20917   0.21921
 Alpha virt. eigenvalues --    0.23662   0.23664   0.25784   0.26102   0.26104
 Alpha virt. eigenvalues --    0.30309   0.33149   0.34165   0.34165   0.35181
 Alpha virt. eigenvalues --    0.35185   0.36728   0.39521   0.41883   0.48999
 Alpha virt. eigenvalues --    0.69310   0.79298   0.79300   0.84715   0.84721
 Alpha virt. eigenvalues --    0.85911   0.85913   0.86524   0.90916   0.98134
 Alpha virt. eigenvalues --    1.02877   1.02886   1.04120   1.10124   1.12724
 Alpha virt. eigenvalues --    1.12726   1.15232   1.15233   1.16488   1.16496
 Alpha virt. eigenvalues --    1.23166   1.28046   1.32224   1.46287   1.46299
 Alpha virt. eigenvalues --    1.54926   1.63337   1.63338   1.87315   1.87325
 Alpha virt. eigenvalues --    1.93184   2.06102   2.06108   2.15874   2.25024
 Alpha virt. eigenvalues --    2.25039   2.34018   2.40766   2.40773   2.81328
 Alpha virt. eigenvalues --    2.81330   2.81974   3.07263   3.10459   3.10486
 Alpha virt. eigenvalues --    3.29730   3.47021   3.56532   3.56557   4.27036
 Alpha virt. eigenvalues --    4.46186   4.59060   4.82259
          Condensed to atoms (all electrons):
               1          2          3          4          5          6
     1  C    6.129893  -0.155575   0.426456   0.426729   0.426726  -1.210123
     2  Cl  -0.155575  17.958720  -0.012388  -0.012424  -0.012425   0.137901
     3  H    0.426456  -0.012388   0.486130  -0.024285  -0.024286  -0.065671
     4  H    0.426729  -0.012424  -0.024285   0.486438  -0.024238  -0.066074
     5  H    0.426726  -0.012425  -0.024286  -0.024238   0.486444  -0.066072
     6  C   -1.210123   0.137901  -0.065671  -0.066074  -0.066072   7.003350
     7  N   -0.086659   0.002559  -0.005600  -0.005631  -0.005632   0.468048
               7
     1  C   -0.086659
     2  Cl   0.002559
     3  H   -0.005600
     4  H   -0.005631
     5  H   -0.005632
     6  C    0.468048
     7  N    7.226355
 Mulliken charges:
               1
     1  C    0.042554
     2  Cl  -0.906368
     3  H    0.219644
     4  H    0.219485
     5  H    0.219483
     6  C   -0.201359
     7  N   -0.593440
 Sum of Mulliken charges =  -1.00000
 Mulliken charges with hydrogens summed into heavy atoms:
               1
     1  C    0.701167
     2  Cl  -0.906368
     6  C   -0.201359
     7  N   -0.593440
 APT charges:
               1
     1  C   -0.005158
     2  Cl  -0.978870
     3  H    0.089412
     4  H    0.089072
     5  H    0.089066
     6  C    0.230251
     7  N   -0.513774
 Sum of APT charges =  -1.00000
 APT charges with hydrogens summed into heavy atoms:
               1
     1  C    0.262392
     2  Cl  -0.978870
     6  C    0.230251
     7  N   -0.513774
 Electronic spatial extent (au):  <R**2>=            827.1654
 Charge=             -1.0000 electrons
 Dipole moment (field-independent basis, Debye):
    X=              5.2223    Y=              0.0000    Z=              0.0006  Tot=              5.2223
 Quadrupole moment (field-independent basis, Debye-Ang):
   XX=            -84.3242   YY=            -35.3606   ZZ=            -35.3619
   XY=              0.0000   XZ=              0.0001   YZ=              0.0000
 Traceless Quadrupole moment (field-independent basis, Debye-Ang):
   XX=            -32.6420   YY=             16.3216   ZZ=             16.3203
   XY=              0.0000   XZ=              0.0001   YZ=              0.0000
 Octapole moment (field-independent basis, Debye-Ang**2):
  XXX=            -16.5368  YYY=             -0.0059  ZZZ=             -0.8419  XYY=              3.7365
  XXY=              0.0001  XXZ=              0.0029  XZZ=              3.7343  YZZ=              0.0059
  YYZ=              0.8440  XYZ=             -0.0000
 Hexadecapole moment (field-independent basis, Debye-Ang**3):
 XXXX=          -1625.6188 YYYY=            -57.6282 ZZZZ=            -57.6295 XXXY=              0.0005
 XXXZ=             -0.0130 YYYX=             -0.0012 YYYZ=             -0.0000 ZZZX=             -0.1888
 ZZZY=              0.0000 XXYY=           -208.5480 XXZZ=           -208.5479 YYZZ=            -19.2083
 XXYZ=              0.0000 YYXZ=              0.1784 ZZXY=              0.0013
 N-N= 1.096580281652D+02 E-N=-1.629757837941D+03  KE= 5.903539930820D+02
  Exact polarizability:  79.802  -0.000  41.252   0.000  -0.000  41.253
 Approx polarizability:  98.858  -0.000  50.260   0.007  -0.000  50.257
 No NMR shielding tensors so no spin-rotation constants.
 Leave Link  601 at Sun Oct 13 09:48:51 2024, MaxMem=  2684354560 cpu:               2.7 elap:               0.1
 (Enter /usr/local/g16_AVX//g16/l701.exe)
 ... and contract with generalized density number  0.
 Compute integral second derivatives.
 Leave Link  701 at Sun Oct 13 09:48:51 2024, MaxMem=  2684354560 cpu:               4.6 elap:               0.2
 (Enter /usr/local/g16_AVX//g16/l702.exe)
 L702 exits ... SP integral derivatives will be done elsewhere.
 Leave Link  702 at Sun Oct 13 09:48:51 2024, MaxMem=  2684354560 cpu:               0.5 elap:               0.1
 (Enter /usr/local/g16_AVX//g16/l703.exe)
 Integral derivatives from FoFJK, PRISM(SPDF).
 Compute integral second derivatives, UseDBF=F ICtDFT=           0.
 Calling FoFJK, ICntrl=    100127 FMM=F ISym2X=0 I1Cent= 0 IOpClX= 0 NMat=1 NMatS=1 NMatT=0.
 FoFJK:  IHMeth= 1 ICntrl=  100127 DoSepK=F KAlg= 0 I1Cent=           0 FoldK=F
 IRaf=         0 NMat=       1 IRICut=       1 DoRegI=T DoRafI=F ISym2E= 0 IDoP0=0 IntGTp=1.
 FoFCou: FMM=F IPFlag=           0 FMFlag=      100000 FMFlg1=         800
         NFxFlg=           0 DoJE=F BraDBF=F KetDBF=F FulRan=T
         wScrn=  0.000000 ICntrl=    100127 IOpCl=  0 I1Cent=           0 NGrid=           0
         NMat0=    1 NMatS0=      1 NMatT0=    0 NMatD0=    1 NMtDS0=    0 NMtDT0=    0
 Symmetry not used in FoFCou.
 Leave Link  703 at Sun Oct 13 09:48:54 2024, MaxMem=  2684354560 cpu:              67.4 elap:               2.6
 (Enter /usr/local/g16_AVX//g16/l716.exe)
 Dipole        = 2.05460551D+00 1.85616843D-06 2.55554151D-04
 Polarizability= 7.98023532D+01-2.10042027D-05 4.12523522D+01
                 3.45161827D-04-5.61404179D-06 4.12527353D+01
 Full mass-weighted force constant matrix:
 Low frequencies ---  -73.3445  -72.9973  -41.9320  -41.8228   -0.0037    0.0028
 Low frequencies ---    0.0047  120.2910  182.0661
 ******    2 imaginary frequencies (negative Signs) ****** 
 Diagonal vibrational polarizability:
       17.4089940     115.6861761     114.5280441
 Harmonic frequencies (cm**-1), IR intensities (KM/Mole), Raman scattering
 activities (A**4/AMU), depolarization ratios for plane and unpolarized
 incident light, reduced masses (AMU), force constants (mDyne/A),
 and normal coordinates:
                      1                      2                      3
                      A                      A                      A
 Frequencies --    -72.1295               -71.7567               182.0661
 Red. masses --      3.7782                 3.7818                12.6905
 Frc consts  --      0.0116                 0.0115                 0.2478
 IR Inten    --     22.0659                22.0601                19.6702
  Atom  AN      X      Y      Z        X      Y      Z        X      Y      Z
     1   6     0.00   0.01   0.39    -0.00   0.39  -0.01    -0.36  -0.00   0.00
     2  17    -0.00  -0.00  -0.09     0.00  -0.09   0.00     0.44   0.00  -0.00
     3   1    -0.25   0.01   0.48     0.00   0.47  -0.01    -0.35  -0.00   0.00
     4   1     0.13   0.01   0.47     0.22   0.48   0.00    -0.35  -0.00  -0.00
     5   1     0.12  -0.00   0.47    -0.22   0.48  -0.02    -0.35   0.00  -0.00
     6   6     0.00   0.00   0.05    -0.00   0.05  -0.00    -0.39  -0.00   0.00
     7   7     0.00  -0.00  -0.25    -0.00  -0.25   0.00    -0.39   0.00  -0.00
                      4                      5                      6
                      A                      A                      A
 Frequencies --    376.8044               376.9858               936.9193
 Red. masses --      3.4015                 3.4022                 4.8945
 Frc consts  --      0.2845                 0.2849                 2.5314
 IR Inten    --      1.0072                 1.0070                13.8276
  Atom  AN      X      Y      Z        X      Y      Z        X      Y      Z
     1   6    -0.00  -0.00  -0.07     0.00  -0.07   0.00     0.45   0.00  -0.00
     2  17    -0.00   0.00   0.00     0.00   0.00  -0.00    -0.01  -0.00   0.00
     3   1     0.59  -0.01  -0.31    -0.01  -0.29   0.01     0.47   0.00  -0.01
     4   1    -0.31  -0.01  -0.29    -0.50  -0.30  -0.00     0.47   0.00   0.00
     5   1    -0.28  -0.00  -0.29     0.52  -0.30   0.01     0.47  -0.00   0.00
     6   6     0.00   0.01   0.40    -0.00   0.40  -0.01    -0.20  -0.00   0.00
     7   7     0.00  -0.00  -0.22    -0.00  -0.22   0.00    -0.30   0.00  -0.00
                      7                      8                      9
                      A                      A                      A
 Frequencies --   1018.7044              1018.9738              1344.4987
 Red. masses --      1.4988                 1.4981                 1.2074
 Frc consts  --      0.9164                 0.9165                 1.2860
 IR Inten    --      1.7037                 1.7003                48.3432
  Atom  AN      X      Y      Z        X      Y      Z        X      Y      Z
     1   6     0.00   0.00   0.16    -0.00   0.16  -0.00    -0.13   0.00  -0.00
     2  17    -0.00  -0.00  -0.00     0.00  -0.00   0.00    -0.00   0.00   0.00
     3   1     0.72  -0.00  -0.12    -0.01  -0.33   0.00     0.52   0.00  -0.23
     4   1    -0.37   0.09  -0.28    -0.62  -0.17   0.09     0.52   0.20   0.12
     5   1    -0.35  -0.09  -0.28     0.63  -0.17  -0.09     0.52  -0.20   0.12
     6   6     0.00  -0.00  -0.13     0.00  -0.13   0.00     0.00  -0.00   0.00
     7   7    -0.00   0.00   0.02     0.00   0.02  -0.00     0.00  -0.00  -0.00
                     10                     11                     12
                      A                      A                      A
 Frequencies --   1438.2799              1438.3482              2354.3820
 Red. masses --      1.0401                 1.0401                12.4838
 Frc consts  --      1.2677                 1.2679                40.7709
 IR Inten    --     11.8581                11.8550                59.1835
  Atom  AN      X      Y      Z        X      Y      Z        X      Y      Z
     1   6    -0.00  -0.05   0.00     0.00  -0.00  -0.05    -0.09  -0.00   0.00
     2  17    -0.00  -0.00   0.00     0.00  -0.00  -0.00     0.00   0.00  -0.00
     3   1    -0.01   0.72   0.01     0.35   0.02  -0.16    -0.07  -0.00   0.02
     4   1    -0.30   0.07  -0.40    -0.19  -0.38   0.48    -0.07  -0.02  -0.01
     5   1     0.31   0.05   0.36    -0.17   0.38   0.51    -0.07   0.02  -0.01
     6   6    -0.00  -0.02   0.00     0.00  -0.00  -0.02     0.79  -0.00   0.00
     7   7     0.00   0.00  -0.00    -0.00   0.00   0.00    -0.59   0.00  -0.00
                     13                     14                     15
                      A                      A                      A
 Frequencies --   3095.8187              3179.4198              3179.7552
 Red. masses --      1.0335                 1.1032                 1.1032
 Frc consts  --      5.8358                 6.5704                 6.5716
 IR Inten    --      3.1500                 0.3773                 0.3795
  Atom  AN      X      Y      Z        X      Y      Z        X      Y      Z
     1   6    -0.05  -0.00   0.00     0.00  -0.09   0.00    -0.00  -0.00  -0.09
     2  17    -0.00   0.00  -0.00     0.00   0.00  -0.00    -0.00   0.00   0.00
     3   1     0.19  -0.00   0.54    -0.02  -0.02  -0.04     0.29  -0.00   0.76
     4   1     0.19  -0.47  -0.27    -0.24   0.54   0.33    -0.16   0.37   0.19
     5   1     0.19   0.47  -0.27     0.26   0.58  -0.35    -0.13  -0.31   0.15
     6   6    -0.00   0.00   0.00     0.00   0.00  -0.00    -0.00   0.00   0.00
     7   7     0.00  -0.00   0.00    -0.00  -0.00   0.00     0.00  -0.00  -0.00

 -------------------
 - Thermochemistry -
 -------------------
 Temperature   298.150 Kelvin.  Pressure   1.00000 Atm.
 Atom     1 has atomic number  6 and mass  12.00000
 Atom     2 has atomic number 17 and mass  34.96885
 Atom     3 has atomic number  1 and mass   1.00783
 Atom     4 has atomic number  1 and mass   1.00783
 Atom     5 has atomic number  1 and mass   1.00783
 Atom     6 has atomic number  6 and mass  12.00000
 Atom     7 has atomic number  7 and mass  14.00307
 Molecular mass:    75.99540 amu.
 Principal axes and moments of inertia in atomic units:
                           1         2         3
     Eigenvalues --    11.255031424.650771424.65423
           X            1.00000   0.00000  -0.00001
           Y           -0.00000   0.99999  -0.00365
           Z            0.00001   0.00365   0.99999
 This molecule is an asymmetric top.
 Rotational symmetry number  1.
 Rotational temperatures (Kelvin)      7.69558     0.06080     0.06080
 Rotational constants (GHZ):         160.34980     1.26680     1.26679
    2 imaginary frequencies ignored.
 Zero-point vibrational energy     119273.4 (Joules/Mol)
                                   28.50703 (Kcal/Mol)
 Warning -- explicit consideration of   3 degrees of freedom as
           vibrations may cause significant error
 Vibrational temperatures:    261.95   542.14   542.40  1348.02  1465.69
          (Kelvin)           1466.08  1934.43  2069.36  2069.46  3387.43
                             4454.19  4574.48  4574.96
 
 Zero-point correction=                           0.045429 (Hartree/Particle)
 Thermal correction to Energy=                    0.049653
 Thermal correction to Enthalpy=                  0.050598
 Thermal correction to Gibbs Free Energy=         0.018148
 Sum of electronic and zero-point Energies=           -593.012105
 Sum of electronic and thermal Energies=              -593.007881
 Sum of electronic and thermal Enthalpies=            -593.006937
 Sum of electronic and thermal Free Energies=         -593.039386
 
                     E (Thermal)             CV                S
                      KCal/Mol        Cal/Mol-Kelvin    Cal/Mol-Kelvin
 Total                   31.158             12.347             68.296
 Electronic               0.000              0.000              0.000
 Translational            0.889              2.981             38.900
 Rotational               0.889              2.981             24.639
 Vibrational             29.381              6.385              4.758
 Vibration     1          0.630              1.864              2.307
 Vibration     2          0.747              1.520              1.052
 Vibration     3          0.748              1.519              1.051
                       Q            Log10(Q)             Ln(Q)
 Total Bot       0.449332D-08         -8.347433        -19.220675
 Total V=0       0.353480D+13         12.548365         28.893678
 Vib (Bot)       0.318937D-20        -20.496296        -47.194465
 Vib (Bot)    1  0.110238D+01          0.042333          0.097474
 Vib (Bot)    2  0.480908D+00         -0.317938         -0.732080
 Vib (Bot)    3  0.480616D+00         -0.318202         -0.732687
 Vib (V=0)       0.250901D+01          0.399502          0.919888
 Vib (V=0)    1  0.171047D+01          0.233117          0.536771
 Vib (V=0)    2  0.119374D+01          0.076909          0.177090
 Vib (V=0)    3  0.119354D+01          0.076835          0.176920
 Electronic      0.100000D+01          0.000000          0.000000
 Translational   0.260396D+08          7.415635         17.075130
 Rotational      0.541038D+05          4.733228         10.898660
 
                                                       RxCoord=-5.09771 DE=3.78
                                                             IR Spectrum
 
      3  3                            2                                    1   1            1                                        
      1  0                            3                                    4   3            0  9                     3       1       
      7  9                            5                                    3   4            1  3                     7       8       
      9  6                            4                                    8   4            9  7                     7       2       
 
      X  X                            X                                    X   X            X  X                     X       X       
                                      X                                    X   X               X                             X       
                                      X                                    X   X               X                             X       
                                      X                                    X   X               X                             X       
                                      X                                    X   X               X                             X       
                                      X                                    X   X                                             X       
                                      X                                    X   X                                             X       
                                      X                                    X   X                                                     
                                      X                                        X                                                     
                                      X                                        X                                                     
                                      X                                        X                                                     
                                      X                                        X                                                     
                                      X                                        X                                                     
                                      X                                        X                                                     
                                      X                                        X                                                     
                                      X                                        X                                                     
                                      X                                                                                              
                                      X                                                                                              
                                      X                                                                                              
                                      X                                                                                              
 
 -------------------------------------------------------------------
 Center     Atomic                   Forces (Hartrees/Bohr)
 Number     Number              X              Y              Z
 -------------------------------------------------------------------
      1        6           0.005970078   -0.000004290    0.000024529
      2       17          -0.009317080   -0.000000067    0.000001743
      3        1          -0.002718984   -0.000001941    0.001020983
      4        1          -0.002751886   -0.000944424   -0.000519208
      5        1          -0.002751300    0.000950261   -0.000516187
      6        6           0.003822549    0.000000213    0.000009553
      7        7           0.007746623    0.000000248   -0.000021413
 -------------------------------------------------------------------
 Cartesian Forces:  Max     0.009317080 RMS     0.003258555
 Z-matrix is all fixed cartesians, so copy forces.
 Force constants in Cartesian coordinates: 
                1             2             3             4             5 
      1  0.488678D+00
      2 -0.822620D-05  0.559002D+00
      3  0.244547D-03  0.792172D-05  0.559016D+00
      4 -0.124812D-01  0.000000D+00  0.360323D-05  0.240728D-01
      5  0.000000D+00  0.127662D-03  0.000000D+00  0.000000D+00 -0.124627D-02
      6  0.515225D-05  0.000000D+00  0.126618D-03 -0.210389D-04  0.000000D+00
      7 -0.687645D-01  0.214357D-03 -0.919072D-01 -0.229531D-02  0.182685D-05
      8  0.210579D-03 -0.399095D-01  0.596486D-03  0.337739D-05 -0.117507D-02
      9 -0.903365D-01  0.596450D-03 -0.295665D+00 -0.146119D-02 -0.430962D-05
     10 -0.685563D-01  0.791997D-01  0.459892D-01 -0.228260D-02  0.657122D-03
     11  0.778356D-01 -0.231280D+00 -0.111088D+00  0.126172D-02  0.258217D-03
     12  0.452005D-01 -0.111087D+00 -0.104431D+00  0.744823D-03  0.838899D-03
     13 -0.685528D-01 -0.794063D-01  0.456130D-01 -0.228236D-02 -0.659529D-03
     14 -0.780382D-01 -0.232313D+00  0.110484D+00 -0.126569D-02  0.266472D-03
     15  0.448305D-01  0.110483D+00 -0.103391D+00  0.738744D-03 -0.834422D-03
     16 -0.258759D+00  0.000000D+00  0.761307D-04 -0.143604D-02  0.000000D+00
     17  0.000000D+00 -0.781701D-01  0.000000D+00  0.000000D+00  0.217925D-02
     18  0.187345D-04  0.000000D+00 -0.782087D-01 -0.618334D-05  0.000000D+00
     19 -0.115638D-01  0.000000D+00 -0.193728D-04 -0.329525D-02  0.000000D+00
     20  0.000000D+00  0.225419D-01  0.000000D+00  0.000000D+00 -0.410264D-03
     21  0.370430D-04  0.000000D+00  0.225533D-01  0.124296D-05  0.000000D+00
                6             7             8             9            10 
      6 -0.125654D-02
      7 -0.757688D-03  0.836900D-01
      8 -0.430074D-05 -0.234268D-03  0.425705D-01
      9  0.728192D-03  0.100483D+00 -0.634509D-03  0.314425D+00
     10  0.389600D-03  0.419217D-02 -0.922699D-02 -0.463094D-02  0.834667D-01
     11  0.838751D-03 -0.646846D-03  0.413220D-03  0.127437D-02 -0.866250D-01
     12 -0.680789D-03  0.102771D-01 -0.240202D-01 -0.128704D-01 -0.503082D-01
     13  0.386254D-03  0.419183D-02  0.924870D-02 -0.458759D-02  0.418024D-02
     14 -0.834274D-03  0.598696D-03  0.306441D-03 -0.121250D-02 -0.857524D-02
     15 -0.688769D-03  0.102795D-01  0.240822D-01 -0.127638D-01 -0.571310D-02
     16 -0.249248D-05 -0.216061D-01  0.657793D-05 -0.290577D-02 -0.215845D-01
     17  0.000000D+00  0.754838D-04 -0.338583D-02 -0.262618D-04  0.280003D-01
     18  0.218274D-02 -0.323316D-01 -0.264920D-04  0.787242D-02  0.162655D-01
     19  0.000000D+00  0.591899D-03 -0.797946D-05  0.343911D-02  0.584265D-03
     20  0.000000D+00 -0.925013D-05  0.118022D-02  0.676048D-05 -0.342986D-02
     21 -0.411449D-03  0.395700D-02  0.681667D-05 -0.172672D-02 -0.199208D-02
               11            12            13            14            15 
     11  0.245971D+00
     12  0.118088D+00  0.111142D+00
     13  0.860230D-02 -0.567317D-02  0.834632D-01
     14 -0.193739D-01  0.125937D-01  0.868523D-01  0.247069D+00
     15 -0.127169D-01  0.695511D-02 -0.498970D-01 -0.117447D+00  0.110037D+00
     16  0.254570D-02  0.148297D-02 -0.215843D-01 -0.255349D-02  0.147126D-02
     17  0.499961D-02  0.484136D-02 -0.280768D-01  0.504421D-02 -0.481468D-02
     18  0.486208D-02 -0.563777D-03  0.161345D-01 -0.483513D-02 -0.609078D-03
     19 -0.297352D-02 -0.172396D-02  0.584183D-03  0.298160D-02 -0.170997D-02
     20 -0.987782D-03 -0.125472D-02  0.343929D-02 -0.999423D-03  0.124786D-02
     21 -0.125817D-02  0.449105D-03 -0.197607D-02  0.125126D-02  0.460850D-03
               16            17            18            19            20 
     16  0.156636D+01
     17 -0.869739D-05  0.107225D+00
     18  0.182819D-03  0.000000D+00  0.107218D+00
     19 -0.124139D+01  0.892871D-05 -0.263800D-03  0.125449D+01
     20  0.949349D-05 -0.378919D-01  0.000000D+00 -0.919389D-05  0.165673D-01
     21 -0.304925D-03  0.000000D+00 -0.378914D-01  0.277789D-03  0.000000D+00
               21 
     21  0.165664D-01
 Leave Link  716 at Sun Oct 13 09:48:54 2024, MaxMem=  2684354560 cpu:               1.0 elap:               0.1
 (Enter /usr/local/g16_AVX//g16/l103.exe)

 GradGradGradGradGradGradGradGradGradGradGradGradGradGradGradGradGradGrad
 Berny optimization.
 Search for a local minimum.
 Step number   1 out of a maximum of    2
 All quantities printed in internal units (Hartrees-Bohrs-Radians)
 Second derivative matrix not updated -- analytic derivatives used.
 ITU=  0
     Eigenvalues ---   -0.00099  -0.00098   0.02358   0.02374   0.02375
     Eigenvalues ---    0.09489   0.09491   0.09691   0.16115   0.16115
     Eigenvalues ---    0.28280   0.65190   0.82696   0.82704   2.67688
 Eigenvalue     1 is  -9.90D-04 should be greater than     0.000000 Eigenvector:
                          Z3        Z4        Z5        Z7        Z1
   1                    0.44674   0.42809   0.42770  -0.36323   0.34796
                          Z2        X3        X4        X5        Y4
   1                   -0.28117  -0.25984   0.13396   0.12696   0.01663
 Eigenvalue     2 is  -9.80D-04 should be greater than     0.000000 Eigenvector:
                          Y5        Y4        Y3        Y7        Y1
   1                    0.44036   0.43998   0.42211  -0.36336   0.34809
                          Y2        X5        X4        Z5        Y6
   1                   -0.28120  -0.22723   0.22317  -0.01665  -0.01401
 Quadratic step=3.753D-01 exceeds max=3.000D-01 adjusted using Lamda=-6.499D-03.
 Angle between NR and scaled steps=   3.38 degrees.
 Angle between quadratic step and forces=  35.22 degrees.
 Linear search not attempted -- first point.
 B after Tr=    -0.031155    0.000002   -0.000074
         Rot=    1.000000   -0.000000   -0.000004    0.000000 Ang=  -0.00 deg.
 Variable       Old X    -DE/DX   Delta X   Delta X   Delta X     New X
                                 (Linear)    (Quad)   (Total)
    X1        1.27858   0.00597   0.00000   0.09302   0.06187   1.34045
    Y1        0.00000  -0.00000   0.00000  -0.00002  -0.00001  -0.00001
    Z1        0.00062   0.00002   0.00000   0.00033   0.00024   0.00087
    X2       -4.35578  -0.00932   0.00000  -0.22460  -0.25575  -4.61153
    Y2        0.00000  -0.00000   0.00000   0.00001   0.00001   0.00001
    Z2       -0.00015   0.00000   0.00000  -0.00019  -0.00023  -0.00038
    X3        0.55556  -0.00272   0.00000   0.04237   0.01120   0.56676
    Y3        0.00450  -0.00000   0.00000  -0.00004  -0.00004   0.00446
    Z3       -1.92803   0.00102   0.00000   0.01582   0.01574  -1.91229
    X4        0.55809  -0.00275   0.00000   0.04120   0.01006   0.56814
    Y4        1.66888  -0.00094   0.00000  -0.01393  -0.01393   1.65496
    Z4        0.96951  -0.00052   0.00000  -0.00760  -0.00768   0.96183
    X5        0.55812  -0.00275   0.00000   0.04119   0.01004   0.56816
    Y5       -1.67342   0.00095   0.00000   0.01396   0.01396  -1.65946
    Z5        0.96169  -0.00052   0.00000  -0.00753  -0.00761   0.95408
    X6        4.02078   0.00382   0.00000   0.11009   0.07894   4.09972
    Y6        0.00001   0.00000   0.00000  -0.00001  -0.00001   0.00000
    Z6       -0.00050   0.00001   0.00000   0.00047   0.00037  -0.00013
    X7        6.21573   0.00775   0.00000   0.11481   0.08365   6.29938
    Y7       -0.00001   0.00000   0.00000   0.00002   0.00002   0.00001
    Z7        0.00005  -0.00002   0.00000  -0.00070  -0.00083  -0.00078
         Item               Value     Threshold  Converged?
 Maximum Force            0.009317     0.000450     NO 
 RMS     Force            0.003259     0.000300     NO 
 Maximum Displacement     0.255751     0.001800     NO 
 RMS     Displacement     0.063075     0.001200     NO 
 Predicted change in Energy=-2.126892D-03
 GradGradGradGradGradGradGradGradGradGradGradGradGradGradGradGradGradGrad

 Leave Link  103 at Sun Oct 13 09:48:54 2024, MaxMem=  2684354560 cpu:               0.9 elap:               0.1
 (Enter /usr/local/g16_AVX//g16/l9999.exe)

 ----------------------------------------------------------------------

 Electric dipole moment (input orientation):
 (Debye = 10**-18 statcoulomb cm , SI units = C m)
                  (au)            (Debye)         (10**-30 SI)
   Tot        0.205461D+01      0.522229D+01      0.174197D+02
   x          0.205461D+01      0.522229D+01      0.174197D+02
   y          0.000000D+00      0.000000D+00      0.000000D+00
   z          0.255554D-03      0.649554D-03      0.216668D-02

 Dipole polarizability, Alpha (input orientation).
 (esu units = cm**3 , SI units = C**2 m**2 J**-1)
 Alpha(0;0):
               (au)            (10**-24 esu)      (10**-40 SI)
   iso        0.541025D+02      0.801716D+01      0.892029D+01
   aniso      0.385498D+02      0.571249D+01      0.635600D+01
   xx         0.798024D+02      0.118255D+02      0.131576D+02
   yx        -0.210042D-04     -0.311250D-05     -0.346313D-05
   yy         0.412524D+02      0.611297D+01      0.680159D+01
   zx         0.345162D-03      0.511477D-04      0.569095D-04
   zy         0.000000D+00      0.000000D+00      0.000000D+00
   zz         0.412527D+02      0.611302D+01      0.680166D+01

 ----------------------------------------------------------------------

 Dipole orientation:
     6         -0.00046269          0.00000262          1.27857931
    17         -0.00038871          0.00000393         -4.35577524
     1          1.92809996          0.00450257          0.55532077
     1         -0.96944284          1.66888190          0.55821113
     1         -0.96161635         -1.67342378          0.55824115
     6          0.00099711          0.00000582          4.02078152
     7          0.00072588         -0.00001317          6.21572681

 Electric dipole moment (dipole orientation):
 (Debye = 10**-18 statcoulomb cm , SI units = C m)
                  (au)            (Debye)         (10**-30 SI)
   Tot        0.205461D+01      0.522229D+01      0.174197D+02
   x          0.000000D+00      0.000000D+00      0.000000D+00
   y          0.000000D+00      0.000000D+00      0.000000D+00
   z          0.205461D+01      0.522229D+01      0.174197D+02

 Dipole polarizability, Alpha (dipole orientation).
 (esu units = cm**3 , SI units = C**2 m**2 J**-1)
 Alpha(0;0):
               (au)            (10**-24 esu)      (10**-40 SI)
   iso        0.541025D+02      0.801716D+01      0.892029D+01
   aniso      0.385498D+02      0.571249D+01      0.635600D+01
   xx         0.412527D+02      0.611302D+01      0.680166D+01
   yx         0.000000D+00      0.000000D+00      0.000000D+00
   yy         0.412524D+02      0.611297D+01      0.680159D+01
   zx         0.444968D-02      0.659375D-03      0.733654D-03
   zy        -0.558277D-04     -0.827281D-05     -0.920474D-05
   zz         0.798024D+02      0.118255D+02      0.131576D+02

 ----------------------------------------------------------------------
 1\1\GINC-NODO10\Freq\RB3LYP\6-31++G(d,p)\C2H3Cl1N1(1-)\ALANQF\13-Oct-2
 024\0\\#p b3lyp 6-31++g(d,p) scf=verytight NoSymm freq=noraman int=ult
 rafine\\RxCoord=-5.09771 DE=3.78\\-1,1\C,0.676595,0.000002,0.000329\Cl
 ,-2.304977,0.,-0.000081\H,0.29399,0.002382,-1.02027\H,0.295328,0.88313
 5,0.513043\H,0.295346,-0.885537,0.508903\C,2.127706,0.000005,-0.000263
 \N,3.289221,-0.000004,0.000025\\Version=ES64L-G16RevB.01\HF=-593.05753
 42\RMSD=1.659e-09\RMSF=3.259e-03\ZeroPoint=0.0454288\Thermal=0.0496534
 \Dipole=2.1297298,0.0000016,0.0002977\DipoleDeriv=-0.1306476,-0.000000
 8,-0.0000126,-0.0000044,0.0576257,0.,-0.0000601,0.,0.057549,-1.092017,
 -0.0000001,0.000021,-0.0000009,-0.9222757,-0.0000004,0.000143,-0.00000
 04,-0.922316,0.1394024,-0.0000295,0.0127001,0.0000375,0.1077441,0.0002
 028,-0.0156638,0.0002027,0.0210904,0.1384805,-0.0110556,-0.0063458,0.0
 13471,0.0428485,-0.0376635,0.0080105,-0.0376294,0.085886,0.1384691,0.0
 110858,-0.006294,-0.013509,0.0424931,0.0374621,0.0079486,0.037428,0.08
 62359,0.5637696,0.0000059,-0.0003964,0.0000035,0.0635095,-0.000001,-0.
 0004083,-0.0000011,0.0634744,-0.7574569,-0.0000056,0.0003278,0.0000023
 ,-0.3919451,0.0000001,0.0000302,0.0000001,-0.3919196\Polar=79.8023532,
 -0.000021,41.2523522,0.0003452,-0.0000056,41.2527353\Quadrupole=-24.26
 84922,12.1347329,12.1337592,0.0000136,0.0000899,0.0000088\PG=C01 [X(C2
 H3Cl1N1)]\NImag=2\\0.48867781,-0.00000823,0.55900244,0.00024455,0.0000
 0792,0.55901643,-0.01248124,-0.00000008,0.00000360,0.02407280,-0.00000
 004,0.00012766,0.,0.00000062,-0.00124627,0.00000515,-0.00000001,0.0001
 2662,-0.00002104,-0.00000017,-0.00125654,-0.06876451,0.00021436,-0.091
 90718,-0.00229531,0.00000183,-0.00075769,0.08368998,0.00021058,-0.0399
 0951,0.00059649,0.00000338,-0.00117507,-0.00000430,-0.00023427,0.04257
 052,-0.09033647,0.00059645,-0.29566492,-0.00146119,-0.00000431,0.00072
 819,0.10048286,-0.00063451,0.31442519,-0.06855629,0.07919968,0.0459892
 3,-0.00228260,0.00065712,0.00038960,0.00419217,-0.00922699,-0.00463094
 ,0.08346667,0.07783564,-0.23127989,-0.11108792,0.00126172,0.00025822,0
 .00083875,-0.00064685,0.00041322,0.00127437,-0.08662499,0.24597056,0.0
 4520047,-0.11108682,-0.10443134,0.00074482,0.00083890,-0.00068079,0.01
 027711,-0.02402019,-0.01287036,-0.05030824,0.11808780,0.11114205,-0.06
 855283,-0.07940630,0.04561304,-0.00228236,-0.00065953,0.00038625,0.004
 19183,0.00924870,-0.00458759,0.00418024,0.00860230,-0.00567317,0.08346
 321,-0.07803821,-0.23231252,0.11048391,-0.00126569,0.00026647,-0.00083
 427,0.00059870,0.00030644,-0.00121250,-0.00857524,-0.01937393,0.012593
 67,0.08685233,0.24706876,0.04483053,0.11048290,-0.10339140,0.00073874,
 -0.00083442,-0.00068877,0.01027953,0.02408219,-0.01276380,-0.00571310,
 -0.01271691,0.00695511,-0.04989699,-0.11744694,0.11003709,-0.25875919,
 0.00000042,0.00007613,-0.00143604,0.,-0.00000249,-0.02160607,0.0000065
 8,-0.00290577,-0.02158447,0.00254570,0.00148297,-0.02158428,-0.0025534
 9,0.00147126,1.56636453,0.00000075,-0.07817010,-0.00000050,0.00000004,
 0.00217925,0.,0.00007548,-0.00338583,-0.00002626,0.02800028,0.00499961
 ,0.00484136,-0.02807679,0.00504421,-0.00481468,-0.00000870,0.10722479,
 0.00001873,-0.00000053,-0.07820865,-0.00000618,0.,0.00218274,-0.032331
 62,-0.00002649,0.00787242,0.01626553,0.00486208,-0.00056378,0.01613452
 ,-0.00483513,-0.00060908,0.00018282,0.00000004,0.10721777,-0.01156375,
 0.00000016,-0.00001937,-0.00329525,0.,0.00000021,0.00059190,-0.0000079
 8,0.00343911,0.00058427,-0.00297352,-0.00172396,0.00058418,0.00298160,
 -0.00170997,-1.24139449,0.00000893,-0.00026380,1.25449314,-0.00000049,
 0.02254192,0.00000010,0.00000001,-0.00041026,0.,-0.00000925,0.00118022
 ,0.00000676,-0.00342986,-0.00098778,-0.00125472,0.00343929,-0.00099942
 ,0.00124786,0.00000949,-0.03789193,0.00000003,-0.00000919,0.01656726,0
 .00003704,0.00000009,0.02255327,0.00000124,0.,-0.00041145,0.00395700,0
 .00000682,-0.00172672,-0.00199208,-0.00125817,0.00044910,-0.00197607,0
 .00125126,0.00046085,-0.00030492,0.00000003,-0.03789141,0.00027779,-0.
 00000003,0.01656636\\-0.00597008,0.00000429,-0.00002453,0.00931708,0.0
 0000007,-0.00000174,0.00271898,0.00000194,-0.00102098,0.00275189,0.000
 94442,0.00051921,0.00275130,-0.00095026,0.00051619,-0.00382255,-0.0000
 0021,-0.00000955,-0.00774662,-0.00000025,0.00002141\\\@


 IF THE FACTS DO NOT CONFORM TO THE THEORY, THEY MUST BE DISPOSED OF.
 Job cpu time:       0 days  0 hours  3 minutes 56.2 seconds.
 Elapsed time:       0 days  0 hours  0 minutes 10.1 seconds.
 File lengths (MBytes):  RWF=     88 Int=      0 D2E=      0 Chk=      2 Scr=      2
 Normal termination of Gaussian 16 at Sun Oct 13 09:48:54 2024.
