RxCoord=-4.89808 DE=4.17                                                
Freq      RB3LYP                                                      6-31++G(d,p)        
Number of atoms                            I                7
Info1-9                                    I   N=           9
          16          16           0           0           0         100
           6          18        -502
Full Title                                 C   N=           2
RxCoord=-4.89808 DE=4.17
Route                                      C   N=           6
#p b3lyp 6-31++g(d,p) scf=verytight NoSymm freq=noraman int=
ultrafine   
Charge                                     I               -1
Multiplicity                               I                1
Number of electrons                        I               40
Number of alpha electrons                  I               20
Number of beta electrons                   I               20
Number of basis functions                  I               98
Number of independent functions            I               98
Number of point charges in /Mol/           I                0
Number of translation vectors              I                0
Atomic numbers                             I   N=           7
           6          17           1           1           1           6
           7
Nuclear charges                            R   N=           7
  6.00000000E+00  1.70000000E+01  1.00000000E+00  1.00000000E+00  1.00000000E+00
  6.00000000E+00  7.00000000E+00
Current cartesian coordinates              R   N=          21
  1.25181128E+00  7.55890450E-06  3.49599333E-04 -4.33131464E+00  0.00000000E+00
 -8.88171279E-05  5.29242368E-01  4.50321735E-03 -1.92766238E+00  5.31377758E-01
  1.66806314E+00  9.69061005E-01  5.31411773E-01 -1.67256825E+00  9.61260216E-01
  4.00255143E+00  3.77945225E-06 -4.68652079E-04  6.19894042E+00 -9.44863062E-06
  1.32280829E-04
Number of symbols in /Mol/                 I                0
Force Field                                I                0
Atom Types                                 C   N=           7
                                                            
                        
Int Atom Types                             I   N=           7
           0           0           0           0           0           0
           0
MM charges                                 R   N=           7
  0.00000000E+00  0.00000000E+00  0.00000000E+00  0.00000000E+00  0.00000000E+00
  0.00000000E+00  0.00000000E+00
Integer atomic weights                     I   N=           7
          12          35           1           1           1          12
          14
Real atomic weights                        R   N=           7
  1.20000000E+01  3.49688527E+01  1.00782504E+00  1.00782504E+00  1.00782504E+00
  1.20000000E+01  1.40030740E+01
Atom fragment info                         I   N=           7
           0           0           0           0           0           0
           0
Atom residue num                           I   N=           7
           0           0           0           0           0           0
           0
Nuclear spins                              I   N=           7
           0           3           1           1           1           0
           2
Nuclear ZEff                               R   N=           7
 -3.60000000E+00 -1.42400000E+01 -1.00000000E+00 -1.00000000E+00 -1.00000000E+00
 -3.60000000E+00 -4.55000000E+00
Nuclear ZNuc                               R   N=           7
  6.00000000E+00  1.70000000E+01  1.00000000E+00  1.00000000E+00  1.00000000E+00
  6.00000000E+00  7.00000000E+00
Nuclear QMom                               R   N=           7
  0.00000000E+00 -8.16500000E+00  0.00000000E+00  0.00000000E+00  0.00000000E+00
  0.00000000E+00  2.04400000E+00
Nuclear GFac                               R   N=           7
  0.00000000E+00  8.21874000E-01  2.79284600E+00  2.79284600E+00  2.79284600E+00
  0.00000000E+00  4.03761000E-01
MicOpt                                     I   N=           7
          -1          -1          -1          -1          -1          -1
          -1
Number of residues                         I                0
Number of secondary structures             I                0
Number of contracted shells                I               33
Number of primitive shells                 I               72
Pure/Cartesian d shells                    I                1
Pure/Cartesian f shells                    I                0
Highest angular momentum                   I                2
Largest degree of contraction              I                6
Shell types                                I   N=          33
           0          -1          -1          -1           2           0
          -1          -1          -1          -1           2           0
           0           0           1           0           0           0
           1           0           0           0           1           0
          -1          -1          -1           2           0          -1
          -1          -1           2
Number of primitives per shell             I   N=          33
           6           3           1           1           1           6
           6           3           1           1           1           3
           1           1           1           3           1           1
           1           3           1           1           1           6
           3           1           1           1           6           3
           1           1           1
Shell to atom map                          I   N=          33
           1           1           1           1           1           2
           2           2           2           2           2           3
           3           3           3           4           4           4
           4           5           5           5           5           6
           6           6           6           6           7           7
           7           7           7
Primitive exponents                        R   N=          72
  3.04752488E+03  4.57369518E+02  1.03948685E+02  2.92101553E+01  9.28666296E+00
  3.16392696E+00  7.86827235E+00  1.88128854E+00  5.44249258E-01  1.68714478E-01
  4.38000000E-02  8.00000000E-01  2.51801000E+04  3.78035000E+03  8.60474000E+02
  2.42145000E+02  7.73349000E+01  2.62470000E+01  4.91765000E+02  1.16984000E+02
  3.74153000E+01  1.37834000E+01  5.45215000E+00  2.22588000E+00  3.18649000E+00
  1.14427000E+00  4.20377000E-01  1.42657000E-01  4.83000000E-02  7.50000000E-01
  1.87311370E+01  2.82539436E+00  6.40121692E-01  1.61277759E-01  3.60000000E-02
  1.10000000E+00  1.87311370E+01  2.82539436E+00  6.40121692E-01  1.61277759E-01
  3.60000000E-02  1.10000000E+00  1.87311370E+01  2.82539436E+00  6.40121692E-01
  1.61277759E-01  3.60000000E-02  1.10000000E+00  3.04752488E+03  4.57369518E+02
  1.03948685E+02  2.92101553E+01  9.28666296E+00  3.16392696E+00  7.86827235E+00
  1.88128854E+00  5.44249258E-01  1.68714478E-01  4.38000000E-02  8.00000000E-01
  4.17351146E+03  6.27457911E+02  1.42902093E+02  4.02343293E+01  1.28202129E+01
  4.39043701E+00  1.16263619E+01  2.71627981E+00  7.72218397E-01  2.12031498E-01
  6.39000000E-02  8.00000000E-01
Contraction coefficients                   R   N=          72
  1.83473713E-03  1.40373228E-02  6.88426223E-02  2.32184443E-01  4.67941348E-01
  3.62311985E-01 -1.19332420E-01 -1.60854152E-01  1.14345644E+00  1.00000000E+00
  1.00000000E+00  1.00000000E+00  1.83295985E-03  1.40341988E-02  6.90973943E-02
  2.37451980E-01  4.83033960E-01  3.39855972E-01 -2.29739142E-03 -3.07137189E-02
 -1.12528069E-01  4.50163278E-02  5.89353363E-01  4.65206287E-01 -2.51828028E-01
  6.15892514E-02  1.06018433E+00  1.00000000E+00  1.00000000E+00  1.00000000E+00
  3.34946043E-02  2.34726953E-01  8.13757326E-01  1.00000000E+00  1.00000000E+00
  1.00000000E+00  3.34946043E-02  2.34726953E-01  8.13757326E-01  1.00000000E+00
  1.00000000E+00  1.00000000E+00  3.34946043E-02  2.34726953E-01  8.13757326E-01
  1.00000000E+00  1.00000000E+00  1.00000000E+00  1.83473713E-03  1.40373228E-02
  6.88426223E-02  2.32184443E-01  4.67941348E-01  3.62311985E-01 -1.19332420E-01
 -1.60854152E-01  1.14345644E+00  1.00000000E+00  1.00000000E+00  1.00000000E+00
  1.83477216E-03  1.39946270E-02  6.85865518E-02  2.32240873E-01  4.69069948E-01
  3.60455199E-01 -1.14961182E-01 -1.69117479E-01  1.14585195E+00  1.00000000E+00
  1.00000000E+00  1.00000000E+00
P(S=P) Contraction coefficients            R   N=          72
  0.00000000E+00  0.00000000E+00  0.00000000E+00  0.00000000E+00  0.00000000E+00
  0.00000000E+00  6.89990666E-02  3.16423961E-01  7.44308291E-01  1.00000000E+00
  1.00000000E+00  0.00000000E+00  0.00000000E+00  0.00000000E+00  0.00000000E+00
  0.00000000E+00  0.00000000E+00  0.00000000E+00  3.98940088E-03  3.03177067E-02
  1.29880029E-01  3.27951072E-01  4.53527100E-01  2.52154056E-01 -1.42993147E-02
  3.23572333E-01  7.43507765E-01  1.00000000E+00  1.00000000E+00  0.00000000E+00
  0.00000000E+00  0.00000000E+00  0.00000000E+00  0.00000000E+00  0.00000000E+00
  0.00000000E+00  0.00000000E+00  0.00000000E+00  0.00000000E+00  0.00000000E+00
  0.00000000E+00  0.00000000E+00  0.00000000E+00  0.00000000E+00  0.00000000E+00
  0.00000000E+00  0.00000000E+00  0.00000000E+00  0.00000000E+00  0.00000000E+00
  0.00000000E+00  0.00000000E+00  0.00000000E+00  0.00000000E+00  6.89990666E-02
  3.16423961E-01  7.44308291E-01  1.00000000E+00  1.00000000E+00  0.00000000E+00
  0.00000000E+00  0.00000000E+00  0.00000000E+00  0.00000000E+00  0.00000000E+00
  0.00000000E+00  6.75797439E-02  3.23907296E-01  7.40895140E-01  1.00000000E+00
  1.00000000E+00  0.00000000E+00
Coordinates of each shell                  R   N=          99
  1.25181128E+00  7.55890450E-06  3.49599333E-04  1.25181128E+00  7.55890450E-06
  3.49599333E-04  1.25181128E+00  7.55890450E-06  3.49599333E-04  1.25181128E+00
  7.55890450E-06  3.49599333E-04  1.25181128E+00  7.55890450E-06  3.49599333E-04
 -4.33131464E+00  0.00000000E+00 -8.88171279E-05 -4.33131464E+00  0.00000000E+00
 -8.88171279E-05 -4.33131464E+00  0.00000000E+00 -8.88171279E-05 -4.33131464E+00
  0.00000000E+00 -8.88171279E-05 -4.33131464E+00  0.00000000E+00 -8.88171279E-05
 -4.33131464E+00  0.00000000E+00 -8.88171279E-05  5.29242368E-01  4.50321735E-03
 -1.92766238E+00  5.29242368E-01  4.50321735E-03 -1.92766238E+00  5.29242368E-01
  4.50321735E-03 -1.92766238E+00  5.29242368E-01  4.50321735E-03 -1.92766238E+00
  5.31377758E-01  1.66806314E+00  9.69061005E-01  5.31377758E-01  1.66806314E+00
  9.69061005E-01  5.31377758E-01  1.66806314E+00  9.69061005E-01  5.31377758E-01
  1.66806314E+00  9.69061005E-01  5.31411773E-01 -1.67256825E+00  9.61260216E-01
  5.31411773E-01 -1.67256825E+00  9.61260216E-01  5.31411773E-01 -1.67256825E+00
  9.61260216E-01  5.31411773E-01 -1.67256825E+00  9.61260216E-01  4.00255143E+00
  3.77945225E-06 -4.68652079E-04  4.00255143E+00  3.77945225E-06 -4.68652079E-04
  4.00255143E+00  3.77945225E-06 -4.68652079E-04  4.00255143E+00  3.77945225E-06
 -4.68652079E-04  4.00255143E+00  3.77945225E-06 -4.68652079E-04  6.19894042E+00
 -9.44863062E-06  1.32280829E-04  6.19894042E+00 -9.44863062E-06  1.32280829E-04
  6.19894042E+00 -9.44863062E-06  1.32280829E-04  6.19894042E+00 -9.44863062E-06
  1.32280829E-04  6.19894042E+00 -9.44863062E-06  1.32280829E-04
Num ILSW                                   I              100
ILSW                                       I   N=         100
           0           1           0           0           2           0
           0           0           0           0         402          -1
           5           0           0           0           2           0
           0           0           0           0           1           0
           1           1           0           0           0           0
           0           0      100000           0          -1           0
           0           0           0           0           0           0
           0           0           0           1           0           0
           0 -2000000000           1           0           0           0
           0           0           4          52           0           0
           0           0           5           0           0           0
           0           0           0           7           0           1
           0           0           0           0           0           0
           0           0           0           0           0           0
           0           0           0           0           0           0
           0           0           0           0           0           0
           0           0           0           0
Num RLSW                                   I               52
RLSW                                       R   N=          52
  8.00000000E-01  7.20000000E-01  1.00000000E+00  8.10000000E-01  2.00000000E-01
  0.00000000E+00  0.00000000E+00  1.00000000E+00  0.00000000E+00  0.00000000E+00
  0.00000000E+00  0.00000000E+00  1.00000000E+00  0.00000000E+00  0.00000000E+00
  0.00000000E+00  0.00000000E+00  1.00000000E+00  0.00000000E+00  0.00000000E+00
  0.00000000E+00  0.00000000E+00  1.00000000E+00  0.00000000E+00  0.00000000E+00
  0.00000000E+00  0.00000000E+00  1.00000000E+00  0.00000000E+00  0.00000000E+00
  0.00000000E+00  0.00000000E+00  1.00000000E+00  0.00000000E+00  0.00000000E+00
  0.00000000E+00  0.00000000E+00  0.00000000E+00  1.00000000E+00  1.00000000E+00
  0.00000000E+00  1.00000000E+00  0.00000000E+00  0.00000000E+00  0.00000000E+00
  0.00000000E+00  0.00000000E+00  0.00000000E+00  0.00000000E+00  0.00000000E+00
  0.00000000E+00  0.00000000E+00
MxBond                                     I                4
NBond                                      I   N=           7
           4           0           1           1           1           2
           1
IBond                                      I   N=          28
           3           4           5           6           0           0
           0           0           1           0           0           0
           1           0           0           0           1           0
           0           0           1           7           0           0
           6           0           0           0
RBond                                      R   N=          28
  1.00000000E+00  1.00000000E+00  1.00000000E+00  1.00000000E+00  0.00000000E+00
  0.00000000E+00  0.00000000E+00  0.00000000E+00  1.00000000E+00  0.00000000E+00
  0.00000000E+00  0.00000000E+00  1.00000000E+00  0.00000000E+00  0.00000000E+00
  0.00000000E+00  1.00000000E+00  0.00000000E+00  0.00000000E+00  0.00000000E+00
  1.00000000E+00  3.00000000E+00  0.00000000E+00  0.00000000E+00  3.00000000E+00
  0.00000000E+00  0.00000000E+00  0.00000000E+00
Virial Ratio                               R      2.004585515815437E+00
SCF Energy                                 R     -5.930571239115590E+02
Total Energy                               R     -5.930571239115590E+02
RMS Force                                  R      3.526795109474036E-03
RMS Density                                R      1.571125181823428E-09
NImag                                      I                2
Job Status                                 I                1
Nuclear derivative order                   I                2
External E-field                           R   N=          35
  0.00000000E+00  0.00000000E+00  0.00000000E+00  0.00000000E+00  0.00000000E+00
  0.00000000E+00  0.00000000E+00  0.00000000E+00  0.00000000E+00  0.00000000E+00
  0.00000000E+00  0.00000000E+00  0.00000000E+00  0.00000000E+00  0.00000000E+00
  0.00000000E+00  0.00000000E+00  0.00000000E+00  0.00000000E+00  0.00000000E+00
  0.00000000E+00  0.00000000E+00  0.00000000E+00  0.00000000E+00  0.00000000E+00
  0.00000000E+00  0.00000000E+00  0.00000000E+00  0.00000000E+00  0.00000000E+00
  0.00000000E+00  0.00000000E+00  0.00000000E+00  0.00000000E+00  0.00000000E+00
IOpCl                                      I                0
IROHF                                      I                0
Alpha Orbital Energies                     R   N=          98
 -1.01254979E+02 -1.42197465E+01 -1.01162145E+01 -1.00836321E+01 -9.16898282E+00
 -6.92685946E+00 -6.92685917E+00 -6.92643297E+00 -7.89986013E-01 -6.33676908E-01
 -5.09886293E-01 -3.71047137E-01 -3.16968298E-01 -3.16947948E-01 -2.51306254E-01
 -2.08746399E-01 -2.08742245E-01 -5.51701579E-02 -5.51691152E-02 -5.38069391E-02
  1.05152335E-01  1.41857990E-01  1.41873140E-01  1.45627511E-01  1.53759289E-01
  1.53771913E-01  2.01742492E-01  2.09458450E-01  2.09468532E-01  2.19109122E-01
  2.37205719E-01  2.37208616E-01  2.58224048E-01  2.61151836E-01  2.61161734E-01
  3.03508732E-01  3.31270444E-01  3.42083549E-01  3.42090244E-01  3.52434253E-01
  3.52494161E-01  3.68024271E-01  3.95130811E-01  4.19165967E-01  4.90344239E-01
  6.94115822E-01  7.93321577E-01  7.93331834E-01  8.47050988E-01  8.47137469E-01
  8.60203151E-01  8.60211194E-01  8.66109383E-01  9.10765852E-01  9.80275363E-01
  1.02896822E+00  1.02900926E+00  1.04014924E+00  1.10177389E+00  1.12744385E+00
  1.12744601E+00  1.15207110E+00  1.15208054E+00  1.16615711E+00  1.16623773E+00
  1.23301233E+00  1.28067090E+00  1.32984000E+00  1.46400926E+00  1.46408889E+00
  1.54903781E+00  1.63445619E+00  1.63445789E+00  1.87184408E+00  1.87196321E+00
  1.93203818E+00  2.06170241E+00  2.06175576E+00  2.15998986E+00  2.25172929E+00
  2.25175960E+00  2.33758176E+00  2.40816502E+00  2.40827550E+00  2.81325002E+00
  2.81337923E+00  2.82589436E+00  3.07107086E+00  3.10281655E+00  3.10301075E+00
  3.29659969E+00  3.47048610E+00  3.56677056E+00  3.56695291E+00  4.26989240E+00
  4.46053413E+00  4.59111745E+00  4.82144677E+00
Alpha MO coefficients                      R   N=        9604
  5.70623071E-07  3.06868993E-05  6.86587293E-06 -1.64264751E-10  1.44273339E-08
 -2.30579700E-04 -2.00423612E-04 -2.10168485E-10  1.12090625E-07  1.71725427E-03
  7.21024433E-04 -1.39252054E-09 -1.03788249E-07 -3.57650030E-05 -1.50669985E-06
 -1.52872576E-06 -8.65583637E-11  1.49935725E-08 -7.36985858E-11  9.95997782E-01
  1.51428271E-02  2.21086232E-06  3.91947885E-11 -1.66444864E-09 -2.10647739E-02
 -5.34421422E-06 -7.55142602E-11  5.94544501E-09  1.95706737E-03  5.27750556E-06
  1.33546502E-10 -1.24744631E-08 -2.28672090E-04  1.32116823E-05  1.58693007E-10
  2.16299202E-08  7.50464026E-03  7.51081352E-03  7.51081361E-03  6.72675815E-12
 -1.26737816E-09  3.31387790E-14 -2.55282765E-06 -4.18848800E-05  8.17183684E-05
  1.76709552E-05  1.93543037E-08 -8.30050797E-06 -2.49365696E-06 -4.19871773E-05
  8.17007939E-05  1.76322675E-05  7.19026271E-06  4.17463921E-06 -2.49279498E-06
 -4.19881289E-05  8.16996532E-05  1.76316615E-05 -7.20979209E-06  4.14104138E-06
 -1.76428313E-06 -1.61228866E-05  2.06217958E-06  1.85941412E-11  2.13450350E-09
 -7.06836262E-05 -4.04729403E-04  1.24421766E-09  8.31459341E-09 -2.18479487E-03
  5.16408097E-04  1.11331848E-12 -3.37087671E-07  1.29409023E-05 -1.50336138E-06
 -1.50533124E-06  5.69960024E-12 -1.06348638E-08 -9.28824588E-12 -4.73550734E-06
 -2.26138786E-05  4.27863873E-06 -1.08970921E-10  1.20143393E-08  3.26618224E-04
 -1.26122944E-04  1.31202813E-09 -9.87228377E-08  2.89152155E-04 -1.11263952E-04
  2.78888909E-10  7.51346659E-08 -5.60312968E-06 -8.65615696E-06 -8.65612284E-06
 -9.99825704E-11  6.81617262E-09 -5.40130034E-13  8.85876628E-06 -1.92408861E-04
  2.67527417E-04  5.81954840E-10 -1.24455552E-07  1.09945321E-03  7.43156742E-04
  7.85036294E-10 -5.30480842E-07  1.19924978E-02  3.66088933E-03 -1.66521296E-09
 -1.04908793E-06  4.76222984E-04  2.59764182E-05  2.60343872E-05 -1.42788252E-10
 -2.81409574E-07  3.83640339E-10 -5.34578539E-08 -4.93013248E-06  4.43656933E-06
  3.23024337E-11  1.65528804E-09 -4.06626036E-06 -2.97250370E-05 -1.87210082E-10
 -8.98011034E-09  1.23110107E-05  1.10688514E-04  5.76090883E-10  1.43654440E-08
  6.29571281E-04  1.68041650E-04  1.08466074E-10  1.56983309E-07  4.33320770E-06
 -1.74516120E-05 -1.74494915E-05  7.76894421E-11  8.59359474E-09 -1.71704725E-12
 -1.91173563E-07 -5.13447423E-05 -1.52807777E-04 -5.33828334E-06  1.92974896E-09
 -8.43182519E-07 -1.46170851E-07 -5.10839066E-05 -1.52895788E-04 -5.30842719E-06
  6.83013223E-07  4.17835880E-07 -1.45487773E-07 -5.10831265E-05 -1.52900769E-04
 -5.30811667E-06 -6.83525078E-07  4.13773854E-07  8.05305106E-05  3.40302149E-04
 -5.52651488E-04  3.53360071E-09 -1.62967139E-07 -4.60521537E-05  1.50674415E-03
 -4.05896069E-09 -2.35503898E-07 -1.01128130E-02  4.85625241E-03 -1.50548306E-08
 -1.13335537E-06 -1.43627051E-03  2.24802603E-05  2.24816883E-05  8.35706588E-09
 -2.38505511E-07 -3.79886481E-11  9.92764107E-01  3.47313553E-02 -2.12974115E-03
  1.31720664E-08 -7.07319209E-07  3.43408434E-03  8.70440066E-04 -6.40861951E-09
  3.98077448E-07 -3.25252339E-03 -5.10958042E-04  7.87473859E-10  4.44488381E-07
 -7.31906095E-03 -8.36173081E-03 -8.36173389E-03 -7.46706756E-09  3.47753081E-07
 -4.70885925E-11  5.12120448E-03  5.04697170E-05 -4.41235818E-04  2.54620245E-09
  1.65325091E-07  7.63218553E-03  3.05636322E-03 -5.22618473E-09 -1.61981335E-06
  9.78932950E-02  3.82952967E-02 -2.31841865E-08 -8.10179368E-06 -9.80049633E-04
 -1.92682167E-04 -1.92502668E-04  1.71112583E-09  3.34340185E-07  1.75089296E-09
 -4.19614640E-07 -1.19004027E-05  2.70860366E-05  2.04889638E-10  1.34640419E-08
 -2.47113802E-05 -1.72633707E-04 -1.22455938E-09 -7.37291761E-08 -1.41404456E-04
  7.26163538E-04  3.67613016E-09  1.51738730E-07  7.78456013E-03  2.64086741E-03
  9.23543511E-09  1.13257040E-06  3.31583445E-05 -4.97387259E-05 -4.97208169E-05
  7.14157844E-10  4.93203678E-08 -3.85300111E-12 -1.23381647E-04 -6.32479662E-04
  7.18309195E-04  2.89290713E-05 -4.48610652E-08  1.94627450E-05 -1.23198935E-04
 -6.32002435E-04  7.22020274E-04  2.92054010E-05 -1.68872188E-05 -9.77178564E-06
 -1.23196090E-04 -6.32004404E-04  7.22013573E-04  2.92193484E-05  1.69315880E-05
 -9.69151282E-06  9.92793399E-01  5.05130414E-02  3.00226081E-04 -9.55470834E-09
  7.57966971E-07 -1.09207287E-02  8.28282663E-03 -1.97492311E-08 -1.64946983E-06
 -1.12016113E-01  3.08571502E-02 -4.55847887E-08 -1.64286799E-05 -7.80902509E-03
 -9.86692107E-03 -9.86692351E-03 -1.02538115E-08  2.28060589E-07 -2.39328466E-10
 -4.60240595E-04  3.90286307E-04  3.41959646E-04 -2.19146220E-09  2.11742351E-07
 -8.43521781E-03  3.44652615E-03 -2.81842576E-08  1.47887917E-06  9.20084073E-03
 -7.17327432E-03  2.21557445E-08  4.06816014E-06 -4.28034091E-05  3.56148818E-04
  3.56152364E-04  5.37385073E-09 -5.12593393E-07  9.86003264E-12  9.93014940E-01
  5.06924289E-02  7.74382869E-04 -9.48520492E-09  2.16594519E-07 -2.45919728E-02
 -4.57612200E-03  3.37808271E-08  1.19931973E-06  5.25781354E-02  2.37574458E-02
 -2.02170201E-08 -3.88033088E-06 -8.95150685E-03 -8.88080076E-03 -8.88094937E-03
 -4.95292485E-09  2.39506767E-07 -4.75691963E-10  1.66187726E-06  2.02178106E-05
  2.49951199E-06 -4.01346500E-10  2.62031860E-08  8.13993879E-05 -2.06108354E-05
  2.42282992E-09 -1.63244350E-07 -4.48565863E-04  1.45927533E-04 -6.78482788E-09
  5.23579825E-07  5.75747188E-03  2.02808917E-03  7.29576124E-09  5.68169426E-07
  2.08778150E-05  3.22310621E-05  3.21826777E-05 -1.24931582E-09  1.14958720E-07
 -1.50702635E-10  1.98123810E-06  3.22163374E-03  4.30952943E-04  2.82279445E-05
  2.72356548E-07 -1.17915761E-04  2.12309622E-06  3.22113939E-03  4.33258481E-04
  2.79123355E-05  1.02072277E-04  5.93051445E-05  2.13069538E-06  3.22115941E-03
  4.33248565E-04  2.79028727E-05 -1.02349854E-04  5.88252894E-05 -5.41716420E-03
 -3.85317720E-04  2.70904067E-04 -2.79725220E-09  7.91898794E-08  3.39559282E-03
 -9.47298734E-03  3.78970947E-08  4.01563083E-07 -6.29684335E-02  1.58468174E-02
 -2.65349097E-09 -1.06169907E-05 -8.42159849E-04 -6.74611049E-07 -6.05112412E-07
  1.42991875E-09  2.04303942E-07  9.46781938E-10 -1.80620252E-05 -4.70597071E-05
 -2.51052545E-04  1.74675538E-09  2.05936997E-08  5.35631940E-03 -1.76770241E-03
  1.87335871E-08 -2.07424294E-06  5.32109883E-03 -2.76486903E-03 -3.91120840E-09
  3.08648032E-06  1.49391806E-04 -7.48089178E-05 -7.48035854E-05 -3.71654561E-09
  3.75441441E-07 -2.66948963E-11  5.57203006E-05  3.08603317E-04  2.36511436E-04
  2.59153525E-09 -1.57288940E-07 -5.58854171E-03 -4.81357929E-03 -1.62797522E-08
  3.04023300E-06  9.11066051E-03  8.15234556E-03  2.68630354E-08 -6.72249210E-07
 -1.06389626E-04  9.38394129E-05  9.37783669E-05  1.35486531E-09  1.01410877E-07
  2.23540469E-11 -2.84635217E-01  1.02268964E+00  6.06901427E-05  4.87028055E-09
 -1.51770913E-07  7.52436893E-02  4.96438225E-04  1.51658352E-09  1.29377716E-08
 -2.18084200E-02 -1.56934381E-03 -3.67340297E-09 -1.58214828E-08  1.40818912E-02
  4.73526617E-03  1.20393020E-08 -4.08863861E-07 -1.56410197E-02 -1.55494431E-02
 -1.55493989E-02 -1.11415936E-11 -3.06495600E-08  3.98476485E-10 -5.61579742E-05
 -4.68294674E-04 -2.74851890E-03  8.94863811E-05  6.69384860E-08 -2.84184061E-05
 -5.59228016E-05 -4.71056244E-04 -2.74073284E-03  8.99841643E-05  2.48276812E-05
  1.42563506E-05 -5.59178708E-05 -4.71074594E-04 -2.74068576E-03  8.99874054E-05
 -2.48953589E-05  1.41416884E-05 -5.17364733E-05 -3.09562540E-04 -3.03967305E-05
  6.33015732E-10 -4.91976802E-08  7.16462868E-04 -7.05321870E-03  2.23697595E-08
  6.59686643E-07 -5.93659670E-03  7.08206050E-04 -3.73962317E-08 -1.75086351E-06
  8.41293497E-05 -5.27689719E-05 -5.28106887E-05  2.80470985E-10 -1.00654944E-07
 -1.42659985E-10 -1.20156477E-04 -4.84490645E-04  2.06970006E-05 -7.31461047E-10
  1.38525866E-07  6.42036324E-03 -1.90891330E-03  1.77137959E-08 -1.60253065E-06
 -2.15395132E-03  1.08089870E-03  7.71048914E-09  4.80821815E-07 -1.90049989E-04
 -2.35111218E-04 -2.35104571E-04 -1.37238503E-09  1.62984952E-07 -1.39533417E-11
 -9.94434470E-08 -3.95520171E-07  1.69827895E-08 -7.55651236E-08 -2.14201557E-05
  1.44508242E-06 -3.61514177E-06 -2.24364340E-06 -6.35871752E-04 -4.38142300E-05
 -2.13812742E-05  1.26042393E-06  3.56974441E-04 -1.75702562E-07 -3.85914097E-05
  3.82983024E-05  1.05255938E-07  2.98921839E-05 -4.67544633E-07 -5.27441533E-08
  1.81952933E-07 -2.22576087E-04  3.49599919E-03  9.90804946E-01  5.31381539E-08
 -6.61615355E-06  1.04737658E-04  2.96838420E-02  2.62567865E-07  2.08563797E-06
 -4.06293024E-05 -1.15151764E-02 -6.69716629E-06 -3.31071987E-06  1.78102831E-05
  5.04899322E-03 -1.01586063E-07  2.27957200E-06 -2.34548615E-06  1.30702034E-07
  3.70263465E-05  2.86659606E-08  1.59789458E-04 -1.25909066E-03  4.64154005E-03
  6.39236814E-05  4.64241797E-07 -1.31599851E-04 -8.06692445E-05  6.31388353E-04
 -2.34698766E-03 -3.20069607E-05 -6.88195727E-05 -1.33513904E-05 -7.90465203E-05
  6.18633363E-04 -2.29986675E-03 -3.13601140E-05  6.78010823E-05 -1.22303359E-05
 -5.85197219E-08 -2.93372519E-07 -7.72864997E-09  1.87531200E-07  5.32380070E-05
 -2.12412301E-06 -5.66847724E-06 -4.08558692E-07 -1.16564929E-04  6.01518123E-05
 -1.67999312E-05  4.19831057E-06  1.19424234E-03 -1.16532713E-07 -7.48911111E-06
  7.40313483E-06 -6.47498596E-08 -1.83509088E-05 -9.03000120E-08 -1.31952359E-07
 -5.43439018E-07  3.17752665E-08 -5.13946123E-08 -1.46761319E-05  6.67782065E-06
 -2.64449984E-06  3.29589741E-07  9.40887908E-05 -3.13382539E-06  3.12065041E-06
 -1.41704766E-06 -4.03802564E-04 -6.02274974E-08  3.38974984E-06 -3.98509057E-06
 -4.47422449E-08 -1.27295019E-05  4.48749257E-08  2.35958288E-09  1.12500301E-08
 -6.96979510E-10 -2.17288289E-05  7.66815650E-08 -1.37391092E-07 -1.12134468E-08
 -6.32996923E-04  2.23353199E-06 -1.43562095E-06 -4.89354968E-07  3.54865376E-04
 -1.25113768E-06  1.57343461E-09  4.06327699E-07 -4.00969151E-07  2.96151953E-05
 -1.04712921E-07 -4.42341044E-05  2.05222119E-09 -5.92778707E-09  7.80505141E-06
  9.90805043E-01 -3.49599782E-03  6.43500950E-10  2.39801652E-07  2.96834947E-02
 -1.04736579E-04 -1.50517157E-08 -1.05911367E-07 -1.15142658E-02  4.06287605E-05
 -4.64078706E-08  2.01434133E-08  5.04715292E-03 -1.78133986E-05  2.71114678E-09
 -1.93796231E-08  2.84681551E-08  3.70405392E-05 -1.30639173E-07  2.64980454E-06
 -9.39178993E-07  7.40884464E-06 -2.71907201E-05 -3.75350437E-07  2.66548494E-05
  8.34905422E-07 -1.38199727E-04  1.08200372E-03 -3.99988552E-03 -5.49130291E-05
 -9.12202546E-05 -6.84718213E-05  1.39137904E-04 -1.08924134E-03  4.02709374E-03
  5.52823668E-05 -9.23356172E-05  6.81908880E-05 -1.93429886E-09 -8.45212523E-09
  5.44433454E-10  5.32556326E-05 -1.88231549E-07  5.56772845E-08 -6.60277592E-08
 -1.17273291E-04  4.16526126E-07  1.40813720E-06 -4.35901272E-07  1.19172670E-03
 -4.22021120E-06 -1.97893543E-09  7.54421075E-08 -8.17039582E-08 -1.82714354E-05
  6.44665111E-08 -8.58627734E-06  1.43292307E-10 -4.80192663E-10  7.52228611E-11
 -1.46508362E-05  5.20829270E-08  2.67931951E-08 -1.26654571E-08  9.40735283E-05
 -3.34354288E-07  3.99783529E-09  5.04543827E-08 -4.02022171E-04  1.42618046E-06
  1.08972499E-09 -3.79485655E-08  3.97327047E-08 -1.27829565E-05  4.52814914E-08
  4.25931128E-06 -1.99918189E-05 -4.21306297E-05  1.87767842E-04  1.18068458E-09
 -1.61215514E-07 -4.62626525E-03 -4.98704165E-03  1.04002978E-08  1.98016979E-06
 -1.34219717E-01 -5.61250062E-02  2.12942847E-08  9.87916527E-06 -7.71439475E-05
 -8.90780020E-05 -8.89744136E-05  2.23752801E-09 -7.87313908E-09  1.34086510E-09
  6.11828564E-05 -5.32506901E-05  9.90689754E-01 -7.02105727E-06  2.22572060E-04
  4.40989866E-04  3.03707181E-02 -2.08783446E-07  6.79758510E-06 -1.77728312E-03
 -1.37172232E-02  7.73468803E-08 -2.90339439E-06 -1.00263153E-02  1.18182481E-03
 -5.02380215E-08 -4.52733213E-07  1.58332201E-04  3.34021395E-04  3.34028176E-04
 -6.87015045E-10 -9.18877437E-08  2.13128532E-10 -1.63810666E-04  2.95730013E-04
 -2.73611968E-03  5.33182241E-05 -1.06669335E-07  4.54863641E-05 -1.64013042E-04
  2.94475241E-04 -2.74007163E-03  5.42731393E-05 -3.91185274E-05 -2.28761985E-05
 -1.64013103E-04  2.94499288E-04 -2.74014033E-03  5.42792478E-05  3.92256856E-05
 -2.26941838E-05 -1.52275992E-04 -7.02132323E-04  3.21561429E-06 -2.44401711E-10