RxCoord=-4.79861 DE=4.41                                                
Freq      RB3LYP                                                      6-31++G(d,p)        
Number of atoms                            I                7
Info1-9                                    I   N=           9
          16          16           0           0           0         100
           6          18        -502
Full Title                                 C   N=           2
RxCoord=-4.79861 DE=4.41
Route                                      C   N=           6
#p b3lyp 6-31++g(d,p) scf=verytight NoSymm freq=noraman int=
ultrafine   
Charge                                     I               -1
Multiplicity                               I                1
Number of electrons                        I               40
Number of alpha electrons                  I               20
Number of beta electrons                   I               20
Number of basis functions                  I               98
Number of independent functions            I               98
Number of point charges in /Mol/           I                0
Number of translation vectors              I                0
Atomic numbers                             I   N=           7
           6          17           1           1           1           6
           7
Nuclear charges                            R   N=           7
  6.00000000E+00  1.70000000E+01  1.00000000E+00  1.00000000E+00  1.00000000E+00
  6.00000000E+00  7.00000000E+00
Current cartesian coordinates              R   N=          21
  1.23213923E+00  7.55890450E-06  1.79523982E-04 -4.32074729E+00  0.00000000E+00
 -3.77945225E-05  5.10518961E-01  4.50510708E-03 -1.92801009E+00  5.12412467E-01
  1.66806125E+00  9.69045887E-01  5.12437033E-01 -1.67255313E+00  9.61254547E-01
  3.99824474E+00  1.88972612E-06 -4.47865092E-04  6.19718108E+00 -9.44863062E-06
  1.62516447E-04
Number of symbols in /Mol/                 I                0
Force Field                                I                0
Atom Types                                 C   N=           7
                                                            
                        
Int Atom Types                             I   N=           7
           0           0           0           0           0           0
           0
MM charges                                 R   N=           7
  0.00000000E+00  0.00000000E+00  0.00000000E+00  0.00000000E+00  0.00000000E+00
  0.00000000E+00  0.00000000E+00
Integer atomic weights                     I   N=           7
          12          35           1           1           1          12
          14
Real atomic weights                        R   N=           7
  1.20000000E+01  3.49688527E+01  1.00782504E+00  1.00782504E+00  1.00782504E+00
  1.20000000E+01  1.40030740E+01
Atom fragment info                         I   N=           7
           0           0           0           0           0           0
           0
Atom residue num                           I   N=           7
           0           0           0           0           0           0
           0
Nuclear spins                              I   N=           7
           0           3           1           1           1           0
           2
Nuclear ZEff                               R   N=           7
 -3.60000000E+00 -1.42400000E+01 -1.00000000E+00 -1.00000000E+00 -1.00000000E+00
 -3.60000000E+00 -4.55000000E+00
Nuclear ZNuc                               R   N=           7
  6.00000000E+00  1.70000000E+01  1.00000000E+00  1.00000000E+00  1.00000000E+00
  6.00000000E+00  7.00000000E+00
Nuclear QMom                               R   N=           7
  0.00000000E+00 -8.16500000E+00  0.00000000E+00  0.00000000E+00  0.00000000E+00
  0.00000000E+00  2.04400000E+00
Nuclear GFac                               R   N=           7
  0.00000000E+00  8.21874000E-01  2.79284600E+00  2.79284600E+00  2.79284600E+00
  0.00000000E+00  4.03761000E-01
MicOpt                                     I   N=           7
          -1          -1          -1          -1          -1          -1
          -1
Number of residues                         I                0
Number of secondary structures             I                0
Number of contracted shells                I               33
Number of primitive shells                 I               72
Pure/Cartesian d shells                    I                1
Pure/Cartesian f shells                    I                0
Highest angular momentum                   I                2
Largest degree of contraction              I                6
Shell types                                I   N=          33
           0          -1          -1          -1           2           0
          -1          -1          -1          -1           2           0
           0           0           1           0           0           0
           1           0           0           0           1           0
          -1          -1          -1           2           0          -1
          -1          -1           2
Number of primitives per shell             I   N=          33
           6           3           1           1           1           6
           6           3           1           1           1           3
           1           1           1           3           1           1
           1           3           1           1           1           6
           3           1           1           1           6           3
           1           1           1
Shell to atom map                          I   N=          33
           1           1           1           1           1           2
           2           2           2           2           2           3
           3           3           3           4           4           4
           4           5           5           5           5           6
           6           6           6           6           7           7
           7           7           7
Primitive exponents                        R   N=          72
  3.04752488E+03  4.57369518E+02  1.03948685E+02  2.92101553E+01  9.28666296E+00
  3.16392696E+00  7.86827235E+00  1.88128854E+00  5.44249258E-01  1.68714478E-01
  4.38000000E-02  8.00000000E-01  2.51801000E+04  3.78035000E+03  8.60474000E+02
  2.42145000E+02  7.73349000E+01  2.62470000E+01  4.91765000E+02  1.16984000E+02
  3.74153000E+01  1.37834000E+01  5.45215000E+00  2.22588000E+00  3.18649000E+00
  1.14427000E+00  4.20377000E-01  1.42657000E-01  4.83000000E-02  7.50000000E-01
  1.87311370E+01  2.82539436E+00  6.40121692E-01  1.61277759E-01  3.60000000E-02
  1.10000000E+00  1.87311370E+01  2.82539436E+00  6.40121692E-01  1.61277759E-01
  3.60000000E-02  1.10000000E+00  1.87311370E+01  2.82539436E+00  6.40121692E-01
  1.61277759E-01  3.60000000E-02  1.10000000E+00  3.04752488E+03  4.57369518E+02
  1.03948685E+02  2.92101553E+01  9.28666296E+00  3.16392696E+00  7.86827235E+00
  1.88128854E+00  5.44249258E-01  1.68714478E-01  4.38000000E-02  8.00000000E-01
  4.17351146E+03  6.27457911E+02  1.42902093E+02  4.02343293E+01  1.28202129E+01
  4.39043701E+00  1.16263619E+01  2.71627981E+00  7.72218397E-01  2.12031498E-01
  6.39000000E-02  8.00000000E-01
Contraction coefficients                   R   N=          72
  1.83473713E-03  1.40373228E-02  6.88426223E-02  2.32184443E-01  4.67941348E-01
  3.62311985E-01 -1.19332420E-01 -1.60854152E-01  1.14345644E+00  1.00000000E+00
  1.00000000E+00  1.00000000E+00  1.83295985E-03  1.40341988E-02  6.90973943E-02
  2.37451980E-01  4.83033960E-01  3.39855972E-01 -2.29739142E-03 -3.07137189E-02
 -1.12528069E-01  4.50163278E-02  5.89353363E-01  4.65206287E-01 -2.51828028E-01
  6.15892514E-02  1.06018433E+00  1.00000000E+00  1.00000000E+00  1.00000000E+00
  3.34946043E-02  2.34726953E-01  8.13757326E-01  1.00000000E+00  1.00000000E+00
  1.00000000E+00  3.34946043E-02  2.34726953E-01  8.13757326E-01  1.00000000E+00
  1.00000000E+00  1.00000000E+00  3.34946043E-02  2.34726953E-01  8.13757326E-01
  1.00000000E+00  1.00000000E+00  1.00000000E+00  1.83473713E-03  1.40373228E-02
  6.88426223E-02  2.32184443E-01  4.67941348E-01  3.62311985E-01 -1.19332420E-01
 -1.60854152E-01  1.14345644E+00  1.00000000E+00  1.00000000E+00  1.00000000E+00
  1.83477216E-03  1.39946270E-02  6.85865518E-02  2.32240873E-01  4.69069948E-01
  3.60455199E-01 -1.14961182E-01 -1.69117479E-01  1.14585195E+00  1.00000000E+00
  1.00000000E+00  1.00000000E+00
P(S=P) Contraction coefficients            R   N=          72
  0.00000000E+00  0.00000000E+00  0.00000000E+00  0.00000000E+00  0.00000000E+00
  0.00000000E+00  6.89990666E-02  3.16423961E-01  7.44308291E-01  1.00000000E+00
  1.00000000E+00  0.00000000E+00  0.00000000E+00  0.00000000E+00  0.00000000E+00
  0.00000000E+00  0.00000000E+00  0.00000000E+00  3.98940088E-03  3.03177067E-02
  1.29880029E-01  3.27951072E-01  4.53527100E-01  2.52154056E-01 -1.42993147E-02
  3.23572333E-01  7.43507765E-01  1.00000000E+00  1.00000000E+00  0.00000000E+00
  0.00000000E+00  0.00000000E+00  0.00000000E+00  0.00000000E+00  0.00000000E+00
  0.00000000E+00  0.00000000E+00  0.00000000E+00  0.00000000E+00  0.00000000E+00
  0.00000000E+00  0.00000000E+00  0.00000000E+00  0.00000000E+00  0.00000000E+00
  0.00000000E+00  0.00000000E+00  0.00000000E+00  0.00000000E+00  0.00000000E+00
  0.00000000E+00  0.00000000E+00  0.00000000E+00  0.00000000E+00  6.89990666E-02
  3.16423961E-01  7.44308291E-01  1.00000000E+00  1.00000000E+00  0.00000000E+00
  0.00000000E+00  0.00000000E+00  0.00000000E+00  0.00000000E+00  0.00000000E+00
  0.00000000E+00  6.75797439E-02  3.23907296E-01  7.40895140E-01  1.00000000E+00
  1.00000000E+00  0.00000000E+00
Coordinates of each shell                  R   N=          99
  1.23213923E+00  7.55890450E-06  1.79523982E-04  1.23213923E+00  7.55890450E-06
  1.79523982E-04  1.23213923E+00  7.55890450E-06  1.79523982E-04  1.23213923E+00
  7.55890450E-06  1.79523982E-04  1.23213923E+00  7.55890450E-06  1.79523982E-04
 -4.32074729E+00  0.00000000E+00 -3.77945225E-05 -4.32074729E+00  0.00000000E+00
 -3.77945225E-05 -4.32074729E+00  0.00000000E+00 -3.77945225E-05 -4.32074729E+00
  0.00000000E+00 -3.77945225E-05 -4.32074729E+00  0.00000000E+00 -3.77945225E-05
 -4.32074729E+00  0.00000000E+00 -3.77945225E-05  5.10518961E-01  4.50510708E-03
 -1.92801009E+00  5.10518961E-01  4.50510708E-03 -1.92801009E+00  5.10518961E-01
  4.50510708E-03 -1.92801009E+00  5.10518961E-01  4.50510708E-03 -1.92801009E+00
  5.12412467E-01  1.66806125E+00  9.69045887E-01  5.12412467E-01  1.66806125E+00
  9.69045887E-01  5.12412467E-01  1.66806125E+00  9.69045887E-01  5.12412467E-01
  1.66806125E+00  9.69045887E-01  5.12437033E-01 -1.67255313E+00  9.61254547E-01
  5.12437033E-01 -1.67255313E+00  9.61254547E-01  5.12437033E-01 -1.67255313E+00
  9.61254547E-01  5.12437033E-01 -1.67255313E+00  9.61254547E-01  3.99824474E+00
  1.88972612E-06 -4.47865092E-04  3.99824474E+00  1.88972612E-06 -4.47865092E-04
  3.99824474E+00  1.88972612E-06 -4.47865092E-04  3.99824474E+00  1.88972612E-06
 -4.47865092E-04  3.99824474E+00  1.88972612E-06 -4.47865092E-04  6.19718108E+00
 -9.44863062E-06  1.62516447E-04  6.19718108E+00 -9.44863062E-06  1.62516447E-04
  6.19718108E+00 -9.44863062E-06  1.62516447E-04  6.19718108E+00 -9.44863062E-06
  1.62516447E-04  6.19718108E+00 -9.44863062E-06  1.62516447E-04
Num ILSW                                   I              100
ILSW                                       I   N=         100
           0           1           0           0           2           0
           0           0           0           0         402          -1
           5           0           0           0           2           0
           0           0           0           0           1           0
           1           1           0           0           0           0
           0           0      100000           0          -1           0
           0           0           0           0           0           0
           0           0           0           1           0           0
           0 -2000000000           1           0           0           0
           0           0           4          52           0           0
           0           0           5           0           0           0
           0           0           0           7           0           1
           0           0           0           0           0           0
           0           0           0           0           0           0
           0           0           0           0           0           0
           0           0           0           0           0           0
           0           0           0           0
Num RLSW                                   I               52
RLSW                                       R   N=          52
  8.00000000E-01  7.20000000E-01  1.00000000E+00  8.10000000E-01  2.00000000E-01
  0.00000000E+00  0.00000000E+00  1.00000000E+00  0.00000000E+00  0.00000000E+00
  0.00000000E+00  0.00000000E+00  1.00000000E+00  0.00000000E+00  0.00000000E+00
  0.00000000E+00  0.00000000E+00  1.00000000E+00  0.00000000E+00  0.00000000E+00
  0.00000000E+00  0.00000000E+00  1.00000000E+00  0.00000000E+00  0.00000000E+00
  0.00000000E+00  0.00000000E+00  1.00000000E+00  0.00000000E+00  0.00000000E+00
  0.00000000E+00  0.00000000E+00  1.00000000E+00  0.00000000E+00  0.00000000E+00
  0.00000000E+00  0.00000000E+00  0.00000000E+00  1.00000000E+00  1.00000000E+00
  0.00000000E+00  1.00000000E+00  0.00000000E+00  0.00000000E+00  0.00000000E+00
  0.00000000E+00  0.00000000E+00  0.00000000E+00  0.00000000E+00  0.00000000E+00
  0.00000000E+00  0.00000000E+00
MxBond                                     I                4
NBond                                      I   N=           7
           4           0           1           1           1           2
           1
IBond                                      I   N=          28
           3           4           5           6           0           0
           0           0           1           0           0           0
           1           0           0           0           1           0
           0           0           1           7           0           0
           6           0           0           0
RBond                                      R   N=          28
  1.00000000E+00  1.00000000E+00  1.00000000E+00  1.00000000E+00  0.00000000E+00
  0.00000000E+00  0.00000000E+00  0.00000000E+00  1.00000000E+00  0.00000000E+00
  0.00000000E+00  0.00000000E+00  1.00000000E+00  0.00000000E+00  0.00000000E+00
  0.00000000E+00  1.00000000E+00  0.00000000E+00  0.00000000E+00  0.00000000E+00
  1.00000000E+00  3.00000000E+00  0.00000000E+00  0.00000000E+00  3.00000000E+00
  0.00000000E+00  0.00000000E+00  0.00000000E+00
Virial Ratio                               R      2.004613873497446E+00
SCF Energy                                 R     -5.930569003872113E+02
Total Energy                               R     -5.930569003872113E+02
RMS Force                                  R      4.011028319802083E-03
RMS Density                                R      1.658842024479692E-09
NImag                                      I                2
Job Status                                 I                1
Nuclear derivative order                   I                2
External E-field                           R   N=          35
  0.00000000E+00  0.00000000E+00  0.00000000E+00  0.00000000E+00  0.00000000E+00
  0.00000000E+00  0.00000000E+00  0.00000000E+00  0.00000000E+00  0.00000000E+00
  0.00000000E+00  0.00000000E+00  0.00000000E+00  0.00000000E+00  0.00000000E+00
  0.00000000E+00  0.00000000E+00  0.00000000E+00  0.00000000E+00  0.00000000E+00
  0.00000000E+00  0.00000000E+00  0.00000000E+00  0.00000000E+00  0.00000000E+00
  0.00000000E+00  0.00000000E+00  0.00000000E+00  0.00000000E+00  0.00000000E+00
  0.00000000E+00  0.00000000E+00  0.00000000E+00  0.00000000E+00  0.00000000E+00
IOpCl                                      I                0
IROHF                                      I                0
Alpha Orbital Energies                     R   N=          98
 -1.01255063E+02 -1.42199635E+01 -1.01165173E+01 -1.00838143E+01 -9.16910575E+00
 -6.92698075E+00 -6.92698045E+00 -6.92654818E+00 -7.89085202E-01 -6.31674663E-01
 -5.10159502E-01 -3.70043930E-01 -3.15713230E-01 -3.15708776E-01 -2.51076905E-01
 -2.08637132E-01 -2.08626658E-01 -5.53972835E-02 -5.53959998E-02 -5.39016469E-02
  1.05329517E-01  1.42236462E-01  1.42246416E-01  1.45706490E-01  1.53409179E-01
  1.53423333E-01  2.02007292E-01  2.09565050E-01  2.09574466E-01  2.18969136E-01
  2.37568438E-01  2.37581908E-01  2.58338544E-01  2.61206128E-01  2.61212970E-01
  3.03045349E-01  3.30426814E-01  3.42149771E-01  3.42158364E-01  3.52441935E-01
  3.52513843E-01  3.67351008E-01  3.94942994E-01  4.18626606E-01  4.90237739E-01
  6.94945424E-01  7.93268250E-01  7.93273590E-01  8.46871892E-01  8.46970929E-01
  8.60711744E-01  8.60714829E-01  8.66478708E-01  9.10025106E-01  9.79812497E-01
  1.02914283E+00  1.02915578E+00  1.03874271E+00  1.10154907E+00  1.12727073E+00
  1.12728469E+00  1.15186240E+00  1.15187177E+00  1.16690229E+00  1.16698118E+00
  1.23338481E+00  1.27914893E+00  1.33328810E+00  1.46479584E+00  1.46485714E+00
  1.54751695E+00  1.63542395E+00  1.63542667E+00  1.86850173E+00  1.86863522E+00
  1.92937551E+00  2.06187046E+00  2.06191444E+00  2.16058831E+00  2.25171072E+00
  2.25174613E+00  2.32945185E+00  2.40774286E+00  2.40787336E+00  2.81157507E+00
  2.81178593E+00  2.82957780E+00  3.06580758E+00  3.09764983E+00  3.09780086E+00
  3.29307020E+00  3.46848597E+00  3.56663131E+00  3.56677180E+00  4.26681629E+00
  4.45616509E+00  4.59112753E+00  4.81785844E+00
Alpha MO coefficients                      R   N=        9604
  4.32161828E-07  3.08680226E-05  8.13545210E-06 -1.09965414E-10  1.16442039E-08
 -2.31929534E-04 -2.09469831E-04  1.62495469E-10  1.04538328E-07  1.67659067E-03
  7.17989545E-04 -1.52260052E-09 -7.44641811E-08 -3.67045753E-05 -1.99585695E-06
 -2.01605721E-06 -4.01174659E-11  1.10034358E-08 -1.92156609E-11  9.95997769E-01
  1.51431040E-02  2.11420536E-06  3.52908829E-11 -1.18177427E-09 -2.10646263E-02
 -4.99601928E-06 -6.15858111E-11  4.99287035E-09  1.95434799E-03  3.21974426E-06
  1.01858755E-10 -1.03635217E-08 -2.24387051E-04  1.54556593E-05  1.84448216E-10
  1.35007151E-08  7.50466578E-03  7.51143526E-03  7.51143534E-03  2.10027666E-12
 -1.03381252E-09  7.68534096E-14 -3.35309003E-06 -4.30424870E-05  8.21689569E-05
  1.85175751E-05  1.98692454E-08 -8.51930655E-06 -3.30365521E-06 -4.31375500E-05
  8.21504722E-05  1.84852640E-05  7.37894391E-06  4.28411321E-06 -3.30300712E-06
 -4.31381483E-05  8.21497936E-05  1.84848591E-05 -7.39889237E-06  4.24965549E-06
 -1.90966741E-06 -1.69820411E-05  2.27871514E-06  1.99478910E-11  1.81598665E-09
 -7.13063226E-05 -4.15337390E-04  1.25101162E-09 -8.62615431E-09 -2.14981367E-03
  5.06643042E-04 -8.71581256E-10 -2.68460911E-07  1.29195973E-05 -1.68371817E-06
 -1.68538895E-06 -1.04376859E-11 -9.15117625E-09 -8.39258564E-12 -4.88198616E-06
 -2.32562881E-05  4.31478164E-06 -7.77703534E-11  1.06760939E-08  3.35449137E-04
 -1.29656656E-04  1.04996882E-09 -9.22266864E-08  2.90738194E-04 -1.10263043E-04
  4.77504892E-10  5.71485630E-08 -5.69312710E-06 -8.96976266E-06 -8.96977310E-06
 -8.00400225E-11  6.22203426E-09  1.94440875E-13  7.97854281E-06 -1.97910437E-04
  2.56271559E-04  1.69393959E-10 -9.85075809E-08  1.08365404E-03  7.35756552E-04
 -3.31896041E-10 -4.20112909E-07  1.18830957E-02  3.66925540E-03 -3.73552205E-09
 -8.18069615E-07  4.66010982E-04  2.57420225E-05  2.57957395E-05 -7.45187617E-10
 -2.21780334E-07  2.31746551E-10 -5.56038248E-08 -5.02801050E-06  4.33474665E-06
  3.25350743E-11  9.58160700E-10 -4.46210307E-06 -2.93335428E-05 -1.87713791E-10
 -5.04091674E-09  1.38321242E-05  1.11838726E-04  5.48641998E-10  4.48524654E-09
  6.42600016E-04  1.71100810E-04  4.62645497E-10  1.25662187E-07  4.72792379E-06
 -1.76163597E-05 -1.76144887E-05  9.11712439E-11  6.00896801E-09 -4.24302668E-12
 -8.91796191E-08 -5.30694580E-05 -1.48783985E-04 -5.60958073E-06  1.15936922E-09
 -4.97967798E-07 -4.91983843E-08 -5.28616475E-05 -1.48923619E-04 -5.58400108E-06
  3.87031606E-07  2.42274818E-07 -4.87802965E-08 -5.28612161E-05 -1.48927703E-04
 -5.58370310E-06 -3.87061526E-07  2.39833933E-07  8.10674418E-05  3.44591087E-04
 -5.47016192E-04  2.97160283E-09 -1.59620721E-07 -2.52832842E-05  1.49138714E-03
 -4.51055940E-09 -1.56824282E-07 -1.00321087E-02  4.84960770E-03 -1.72306883E-08
 -7.69381162E-07 -1.41298865E-03  2.14974140E-05  2.14984911E-05  7.39931452E-09
 -2.69082835E-07 -3.58709406E-11  9.92764801E-01  3.47162594E-02 -2.11382301E-03
  1.09851832E-08 -6.93463095E-07  3.43438348E-03  8.75597425E-04 -5.26130171E-09
  3.86757094E-07 -3.24833917E-03 -5.14951985E-04  1.82403645E-09  3.48475080E-07
 -7.32851706E-03 -8.35746302E-03 -8.35746669E-03 -6.27831085E-09  3.44496141E-07
 -2.51880182E-11  4.81742216E-03  5.06446372E-05 -4.22500676E-04  2.54690658E-09
  1.00074845E-07  7.46505817E-03  3.00731918E-03 -6.32158154E-09 -1.05874517E-06
  9.64452558E-02  3.82578023E-02 -4.16901792E-08 -6.34142967E-06 -9.63838943E-04
 -1.88319253E-04 -1.88145734E-04  2.08778554E-09  2.40938712E-07  1.24575677E-09
 -4.19271313E-07 -1.19141747E-05  2.71188481E-05  2.23172303E-10  9.37416700E-09
 -2.48917030E-05 -1.73004541E-04 -1.31550216E-09 -5.03953542E-08 -1.43117450E-04
  7.32798266E-04  3.76738720E-09  9.24602928E-08  7.96013026E-03  2.68949980E-03
  1.09896882E-08  7.57953208E-07  3.37382973E-05 -4.97310370E-05 -4.97160243E-05
  7.65823185E-10  3.22976198E-08 -2.01013449E-11 -1.23775623E-04 -6.33202366E-04
  7.30354136E-04  2.52169638E-05 -4.18153498E-08  1.80671263E-05 -1.23646720E-04
 -6.32960085E-04  7.33311049E-04  2.55011001E-05 -1.56459407E-05 -9.07185934E-06
 -1.23643898E-04 -6.32961497E-04  7.33300437E-04  2.55128648E-05  1.56875407E-05
 -8.99806300E-06  9.92800324E-01  5.04561932E-02  3.10971269E-04 -7.00623755E-09
  6.72805191E-07 -1.09089634E-02  8.11306571E-03 -2.33596950E-08 -1.19177031E-06
 -1.10801403E-01  3.05942531E-02 -8.28915750E-08 -1.27152207E-05 -7.83681916E-03
 -9.84914558E-03 -9.84914614E-03 -9.18501852E-09  2.92631446E-07 -2.57977459E-10
 -4.53866388E-04  3.92410082E-04  3.34430730E-04 -1.61312857E-09  1.84505864E-07
 -8.30261442E-03  3.38864934E-03 -2.29432174E-08  1.45453994E-06  9.26131136E-03
 -7.16403206E-03  3.10631504E-08  3.04198679E-06 -3.69875445E-05  3.54833912E-04
  3.54836579E-04  3.85219642E-09 -4.59436398E-07  8.48905781E-12  9.93021701E-01
  5.06513853E-02  7.62588043E-04 -6.91904333E-09  3.25220751E-07 -2.44566183E-02
 -4.53641369E-03  2.55200968E-08  9.17398018E-08  5.17327278E-02  2.37044512E-02
 -4.07591943E-08 -3.75817060E-06 -8.96071194E-03 -8.86625754E-03 -8.86628891E-03
 -3.18331391E-09  2.30788051E-07 -2.15650038E-09  1.66928736E-06  2.05907023E-05
  2.18177668E-06 -2.93191747E-10  2.14068324E-08  8.17055263E-05 -1.96341539E-05
  1.75509186E-09 -1.34265161E-07 -4.54877662E-04  1.43291609E-04 -4.62073371E-09
  4.45985746E-07  5.85858565E-03  2.05293029E-03  8.00768900E-09  3.50789957E-07
  2.28536075E-05  3.27558281E-05  3.27130698E-05 -8.31974457E-10  9.56764963E-08
 -6.01285479E-11 -6.50088018E-07  3.22000800E-03  4.32166240E-04  2.83976074E-05
  2.74156957E-07 -1.18466043E-04 -4.29350268E-07  3.22034571E-03  4.34908917E-04
  2.81473183E-05  1.02511695E-04  5.95853977E-05 -4.26099333E-07  3.22036098E-03
  4.34876329E-04  2.81393934E-05 -1.02788819E-04  5.91040403E-05 -5.10503287E-03
 -3.56959087E-04  2.55732774E-04 -2.56788517E-09  6.72711440E-08  3.21859936E-03
 -9.45539086E-03  4.02362332E-08  2.33561483E-07 -6.22218218E-02  1.57046240E-02
 -2.43976208E-08 -8.01652101E-06 -8.44442129E-04 -4.21606699E-06 -4.15900399E-06
  1.82615466E-09  1.20759761E-07  9.43416795E-10 -1.89735640E-05 -5.15121637E-05
 -2.52716544E-04  1.77250841E-09  1.13411283E-08  5.39612789E-03 -1.79595637E-03
  1.25154778E-08 -1.94096242E-06  5.32803974E-03 -2.75704477E-03  2.89792831E-09
  2.33252527E-06  1.52745004E-04 -7.59408910E-05 -7.59349176E-05 -2.56168063E-09
  3.55165355E-07 -5.70106193E-11  5.54751907E-05  3.01112140E-04  2.40569907E-04
  1.86844439E-09 -1.52086071E-07 -5.46659057E-03 -4.77404147E-03 -5.47646836E-09
  2.63683544E-06  9.00994409E-03  8.27451319E-03  2.77942410E-08 -4.03590119E-07
 -9.63053321E-05  9.41146887E-05  9.40630228E-05  1.45060438E-09  6.09182206E-08
  1.09712793E-10 -2.84634818E-01  1.02269084E+00  5.37607478E-05  4.58434730E-09
 -9.98469544E-08  7.52562751E-02  4.98245461E-04  1.52658566E-09 -9.16340425E-10
 -2.18567776E-02 -1.58250878E-03 -3.58340559E-09  1.54667873E-08  1.42564643E-02
  4.80051217E-03  1.00978968E-08 -4.10775701E-07 -1.56413735E-02 -1.55461028E-02
 -1.55460604E-02 -6.25304712E-11 -2.04488386E-08  2.94912865E-10 -5.82229342E-05
 -4.48241493E-04 -2.73727419E-03  8.57067051E-05  6.14451883E-08 -2.62911371E-05
 -5.80352320E-05 -4.50727273E-04 -2.73131898E-03  8.61214054E-05  2.29546844E-05
  1.31895004E-05 -5.80317631E-05 -4.50732888E-04 -2.73129699E-03  8.61232890E-05
 -2.30167945E-05  1.30828587E-05 -5.11650313E-05 -3.05448601E-04 -2.94879199E-05
  5.77048397E-10 -3.44899883E-08  6.54080182E-04 -6.94735939E-03  2.18912409E-08
  2.40770069E-07 -6.03985910E-03  7.63336532E-04 -3.99371035E-08 -1.13303506E-06
  8.05129881E-05 -5.20031044E-05 -5.20382083E-05  7.87020276E-11 -8.31846632E-08
 -7.75957603E-11 -1.19319938E-04 -4.80385833E-04  1.94270521E-05 -3.99578610E-10
  1.15176682E-07  6.35080275E-03 -1.89038594E-03  1.34355144E-08 -1.41993196E-06
 -2.15942519E-03  1.07180216E-03  8.29190217E-09  3.31761970E-07 -1.87896486E-04
 -2.34166286E-04 -2.34160610E-04 -9.83172369E-10  1.38948329E-07 -2.57738224E-11
 -8.44141824E-08 -3.34512931E-07  3.52755994E-08 -4.75224841E-09 -2.12642555E-05
  1.14716806E-06 -3.20087048E-06 -1.48582761E-07 -6.38053331E-04 -4.24343597E-05
 -2.08460571E-05  8.06329662E-08  3.61091359E-04 -1.40311920E-07 -3.84369062E-05
  3.81689923E-05  6.63525657E-09  2.89782941E-05 -3.19862107E-07 -3.11105420E-08
  1.14837571E-07 -9.52303407E-05  2.30455525E-04  9.90809855E-01  9.94451882E-08
 -2.77194795E-06  6.90576955E-06  2.96890352E-02  7.99328768E-08  5.67528007E-07
 -2.67997888E-06 -1.15235084E-02 -6.18697797E-06 -2.53103459E-06  1.17497620E-06
  5.06214226E-03 -8.21283453E-08  2.20365545E-06 -2.24337845E-06  8.65615359E-09
  3.69040324E-05  1.92196189E-08  1.58586310E-04 -1.27058756E-03  4.67134233E-03
  6.84784779E-05  3.81290040E-07 -1.32375013E-04 -7.96421532E-05  6.34387804E-04
 -2.34870128E-03 -3.41574111E-05 -6.95039344E-05 -1.23116879E-05 -7.89371646E-05
  6.28751157E-04 -2.32796336E-03 -3.38536937E-05  6.90864755E-05 -1.16327745E-05
 -5.24790838E-08 -2.60261115E-07 -1.40199078E-08  1.20733455E-08  5.36793567E-05
 -1.50052271E-06 -4.74060064E-06 -2.46408484E-08 -1.19001881E-04  5.80420946E-05
 -1.58979268E-05  2.67793059E-07  1.19224491E-03 -9.94596241E-08 -7.45871959E-06
  7.37393738E-06 -4.32424623E-09 -1.85100197E-05 -6.17271010E-08 -1.12367197E-07
 -4.59964038E-07  2.73054894E-08 -3.18342236E-09 -1.47576849E-05  5.59364630E-06
 -2.18462066E-06  2.02576428E-08  9.48141623E-05 -3.34984288E-06  2.90508794E-06
 -8.95680279E-08 -4.02703653E-04 -5.51183416E-08  3.44250184E-06 -3.95038389E-06
 -2.79800375E-09 -1.29304219E-05  3.08862295E-08  1.58004906E-09  8.05649544E-09
 -7.05547206E-10 -2.15642872E-05  5.20808727E-09 -1.11843607E-07 -2.82514634E-08
 -6.35232922E-04  1.47589787E-07 -1.60625989E-06 -5.93667218E-07  3.58737058E-04
 -8.67275645E-08  6.98170929E-10  2.77547953E-07 -2.74567026E-07  2.87134284E-05
 -6.78353828E-09 -4.40852020E-05  1.72024338E-09 -4.89036097E-09  6.00318453E-06
  9.90809928E-01 -2.30455176E-04  3.47063618E-10  1.85738964E-07  2.96887063E-02
 -6.90507170E-06 -1.21639412E-08 -8.68051215E-08 -1.15226565E-02  2.68039634E-06
 -8.77656941E-08 -2.30539802E-09  5.06045792E-03 -1.17947443E-06  2.16387403E-09
 -1.13708208E-08  1.99140323E-08  3.69170259E-05 -8.51431457E-09  2.54835892E-06
 -4.07872388E-07  3.28185820E-06 -1.19886271E-05 -1.75949497E-07  2.80390493E-05
  4.06174685E-07 -1.37449736E-04  1.09465467E-03 -4.03390512E-03 -5.89984640E-05
 -9.17086259E-05 -6.94819819E-05  1.37856785E-04 -1.09783029E-03  4.04587771E-03
  5.91714507E-05 -9.23839702E-05  6.91122918E-05 -2.10340610E-09 -9.32335574E-09
  4.55370844E-10  5.36919555E-05 -1.29055537E-08  3.98733227E-08 -8.68763774E-08
 -1.19680358E-04  3.08775438E-08  1.68520362E-06 -5.10678183E-07  1.19011162E-03
 -2.86152256E-07 -2.59572062E-09  5.06436444E-08 -5.69120504E-08 -1.84298372E-05
  4.26446183E-09 -8.55967767E-06 -5.73508121E-10 -3.30469834E-09  2.25930613E-10
 -1.47405340E-05  3.67693867E-09  5.82607534E-08 -2.49427639E-08  9.48302295E-05
 -2.38734712E-08 -2.02674305E-08  6.74364373E-08 -4.01144258E-04  9.73414373E-08
  6.74790903E-10 -2.75100893E-08  2.59295698E-08 -1.29810610E-05  3.23266002E-09
  4.26951791E-06 -2.18321626E-05 -6.51926504E-05  1.80468559E-04  7.51765965E-10
 -1.33418989E-07 -4.32119491E-03 -4.80602344E-03  1.51589375E-08  1.50209062E-06
 -1.34167409E-01 -5.68702610E-02  5.08261703E-08  8.18955936E-06 -5.44064444E-05
 -9.07563300E-05 -9.06583321E-05  1.96651150E-09 -3.57108816E-08  1.12741750E-09
  5.94578399E-05 -4.72718508E-05  9.90688363E-01 -5.98243455E-06  9.52034946E-05
  4.42536977E-04  3.03766887E-02 -1.77433272E-07  2.93849862E-06 -1.76239633E-03
 -1.37372412E-02  6.47178154E-08 -1.31274003E-06 -1.04640663E-02  1.04272332E-03
 -4.75356425E-08 -5.42209496E-07  1.56712641E-04  3.33456311E-04  3.33465746E-04
 -7.52402058E-10 -6.60537046E-08  1.90392032E-10 -1.62519437E-04  3.31572342E-04
 -2.75948722E-03  4.23630083E-05 -1.18758112E-07  5.04724206E-05 -1.62685068E-04
  3.30490934E-04 -2.76259569E-03  4.31701528E-05 -4.34604332E-05 -2.53711099E-05
 -1.62685041E-04  3.30519696E-04 -2.76265492E-03  4.31733050E-05  4.35794795E-05
 -2.51698787E-05 -1.50810472E-04 -6.89434167E-04  3.34368931E-06 -1.02644496E-09