RxCoord=-4.59898 DE=5.23                                                
Freq      RB3LYP                                                      6-31++G(d,p)        
Number of atoms                            I                7
Info1-9                                    I   N=           9
          16          16           0           0           0         100
           6          18        -502
Full Title                                 C   N=           2
RxCoord=-4.59898 DE=5.23
Route                                      C   N=           6
#p b3lyp 6-31++g(d,p) scf=verytight NoSymm freq=noraman int=
ultrafine   
Charge                                     I               -1
Multiplicity                               I                1
Number of electrons                        I               40
Number of alpha electrons                  I               20
Number of beta electrons                   I               20
Number of basis functions                  I               98
Number of independent functions            I               98
Number of point charges in /Mol/           I                0
Number of translation vectors              I                0
Atomic numbers                             I   N=           7
           6          17           1           1           1           6
           7
Nuclear charges                            R   N=           7
  6.00000000E+00  1.70000000E+01  1.00000000E+00  1.00000000E+00  1.00000000E+00
  6.00000000E+00  7.00000000E+00
Current cartesian coordinates              R   N=          21
  1.18551779E+00  7.55890450E-06 -7.93684972E-05 -4.30680867E+00  0.00000000E+00
  4.53534270E-05  4.70876287E-01  4.51266599E-03 -1.93068405E+00  4.72346493E-01
  1.66991318E+00  9.70032325E-01  4.72344604E-01 -1.67439750E+00  9.62239094E-01
  4.00193349E+00  1.88972612E-06 -4.11960295E-04  6.20778622E+00 -9.44863062E-06
  1.94641791E-04
Number of symbols in /Mol/                 I                0
Force Field                                I                0
Atom Types                                 C   N=           7
                                                            
                        
Int Atom Types                             I   N=           7
           0           0           0           0           0           0
           0
MM charges                                 R   N=           7
  0.00000000E+00  0.00000000E+00  0.00000000E+00  0.00000000E+00  0.00000000E+00
  0.00000000E+00  0.00000000E+00
Integer atomic weights                     I   N=           7
          12          35           1           1           1          12
          14
Real atomic weights                        R   N=           7
  1.20000000E+01  3.49688527E+01  1.00782504E+00  1.00782504E+00  1.00782504E+00
  1.20000000E+01  1.40030740E+01
Atom fragment info                         I   N=           7
           0           0           0           0           0           0
           0
Atom residue num                           I   N=           7
           0           0           0           0           0           0
           0
Nuclear spins                              I   N=           7
           0           3           1           1           1           0
           2
Nuclear ZEff                               R   N=           7
 -3.60000000E+00 -1.42400000E+01 -1.00000000E+00 -1.00000000E+00 -1.00000000E+00
 -3.60000000E+00 -4.55000000E+00
Nuclear ZNuc                               R   N=           7
  6.00000000E+00  1.70000000E+01  1.00000000E+00  1.00000000E+00  1.00000000E+00
  6.00000000E+00  7.00000000E+00
Nuclear QMom                               R   N=           7
  0.00000000E+00 -8.16500000E+00  0.00000000E+00  0.00000000E+00  0.00000000E+00
  0.00000000E+00  2.04400000E+00
Nuclear GFac                               R   N=           7
  0.00000000E+00  8.21874000E-01  2.79284600E+00  2.79284600E+00  2.79284600E+00
  0.00000000E+00  4.03761000E-01
MicOpt                                     I   N=           7
          -1          -1          -1          -1          -1          -1
          -1
Number of residues                         I                0
Number of secondary structures             I                0
Number of contracted shells                I               33
Number of primitive shells                 I               72
Pure/Cartesian d shells                    I                1
Pure/Cartesian f shells                    I                0
Highest angular momentum                   I                2
Largest degree of contraction              I                6
Shell types                                I   N=          33
           0          -1          -1          -1           2           0
          -1          -1          -1          -1           2           0
           0           0           1           0           0           0
           1           0           0           0           1           0
          -1          -1          -1           2           0          -1
          -1          -1           2
Number of primitives per shell             I   N=          33
           6           3           1           1           1           6
           6           3           1           1           1           3
           1           1           1           3           1           1
           1           3           1           1           1           6
           3           1           1           1           6           3
           1           1           1
Shell to atom map                          I   N=          33
           1           1           1           1           1           2
           2           2           2           2           2           3
           3           3           3           4           4           4
           4           5           5           5           5           6
           6           6           6           6           7           7
           7           7           7
Primitive exponents                        R   N=          72
  3.04752488E+03  4.57369518E+02  1.03948685E+02  2.92101553E+01  9.28666296E+00
  3.16392696E+00  7.86827235E+00  1.88128854E+00  5.44249258E-01  1.68714478E-01
  4.38000000E-02  8.00000000E-01  2.51801000E+04  3.78035000E+03  8.60474000E+02
  2.42145000E+02  7.73349000E+01  2.62470000E+01  4.91765000E+02  1.16984000E+02
  3.74153000E+01  1.37834000E+01  5.45215000E+00  2.22588000E+00  3.18649000E+00
  1.14427000E+00  4.20377000E-01  1.42657000E-01  4.83000000E-02  7.50000000E-01
  1.87311370E+01  2.82539436E+00  6.40121692E-01  1.61277759E-01  3.60000000E-02
  1.10000000E+00  1.87311370E+01  2.82539436E+00  6.40121692E-01  1.61277759E-01
  3.60000000E-02  1.10000000E+00  1.87311370E+01  2.82539436E+00  6.40121692E-01
  1.61277759E-01  3.60000000E-02  1.10000000E+00  3.04752488E+03  4.57369518E+02
  1.03948685E+02  2.92101553E+01  9.28666296E+00  3.16392696E+00  7.86827235E+00
  1.88128854E+00  5.44249258E-01  1.68714478E-01  4.38000000E-02  8.00000000E-01
  4.17351146E+03  6.27457911E+02  1.42902093E+02  4.02343293E+01  1.28202129E+01
  4.39043701E+00  1.16263619E+01  2.71627981E+00  7.72218397E-01  2.12031498E-01
  6.39000000E-02  8.00000000E-01
Contraction coefficients                   R   N=          72
  1.83473713E-03  1.40373228E-02  6.88426223E-02  2.32184443E-01  4.67941348E-01
  3.62311985E-01 -1.19332420E-01 -1.60854152E-01  1.14345644E+00  1.00000000E+00
  1.00000000E+00  1.00000000E+00  1.83295985E-03  1.40341988E-02  6.90973943E-02
  2.37451980E-01  4.83033960E-01  3.39855972E-01 -2.29739142E-03 -3.07137189E-02
 -1.12528069E-01  4.50163278E-02  5.89353363E-01  4.65206287E-01 -2.51828028E-01
  6.15892514E-02  1.06018433E+00  1.00000000E+00  1.00000000E+00  1.00000000E+00
  3.34946043E-02  2.34726953E-01  8.13757326E-01  1.00000000E+00  1.00000000E+00
  1.00000000E+00  3.34946043E-02  2.34726953E-01  8.13757326E-01  1.00000000E+00
  1.00000000E+00  1.00000000E+00  3.34946043E-02  2.34726953E-01  8.13757326E-01
  1.00000000E+00  1.00000000E+00  1.00000000E+00  1.83473713E-03  1.40373228E-02
  6.88426223E-02  2.32184443E-01  4.67941348E-01  3.62311985E-01 -1.19332420E-01
 -1.60854152E-01  1.14345644E+00  1.00000000E+00  1.00000000E+00  1.00000000E+00
  1.83477216E-03  1.39946270E-02  6.85865518E-02  2.32240873E-01  4.69069948E-01
  3.60455199E-01 -1.14961182E-01 -1.69117479E-01  1.14585195E+00  1.00000000E+00
  1.00000000E+00  1.00000000E+00
P(S=P) Contraction coefficients            R   N=          72
  0.00000000E+00  0.00000000E+00  0.00000000E+00  0.00000000E+00  0.00000000E+00
  0.00000000E+00  6.89990666E-02  3.16423961E-01  7.44308291E-01  1.00000000E+00
  1.00000000E+00  0.00000000E+00  0.00000000E+00  0.00000000E+00  0.00000000E+00
  0.00000000E+00  0.00000000E+00  0.00000000E+00  3.98940088E-03  3.03177067E-02
  1.29880029E-01  3.27951072E-01  4.53527100E-01  2.52154056E-01 -1.42993147E-02
  3.23572333E-01  7.43507765E-01  1.00000000E+00  1.00000000E+00  0.00000000E+00
  0.00000000E+00  0.00000000E+00  0.00000000E+00  0.00000000E+00  0.00000000E+00
  0.00000000E+00  0.00000000E+00  0.00000000E+00  0.00000000E+00  0.00000000E+00
  0.00000000E+00  0.00000000E+00  0.00000000E+00  0.00000000E+00  0.00000000E+00
  0.00000000E+00  0.00000000E+00  0.00000000E+00  0.00000000E+00  0.00000000E+00
  0.00000000E+00  0.00000000E+00  0.00000000E+00  0.00000000E+00  6.89990666E-02
  3.16423961E-01  7.44308291E-01  1.00000000E+00  1.00000000E+00  0.00000000E+00
  0.00000000E+00  0.00000000E+00  0.00000000E+00  0.00000000E+00  0.00000000E+00
  0.00000000E+00  6.75797439E-02  3.23907296E-01  7.40895140E-01  1.00000000E+00
  1.00000000E+00  0.00000000E+00
Coordinates of each shell                  R   N=          99
  1.18551779E+00  7.55890450E-06 -7.93684972E-05  1.18551779E+00  7.55890450E-06
 -7.93684972E-05  1.18551779E+00  7.55890450E-06 -7.93684972E-05  1.18551779E+00
  7.55890450E-06 -7.93684972E-05  1.18551779E+00  7.55890450E-06 -7.93684972E-05
 -4.30680867E+00  0.00000000E+00  4.53534270E-05 -4.30680867E+00  0.00000000E+00
  4.53534270E-05 -4.30680867E+00  0.00000000E+00  4.53534270E-05 -4.30680867E+00
  0.00000000E+00  4.53534270E-05 -4.30680867E+00  0.00000000E+00  4.53534270E-05
 -4.30680867E+00  0.00000000E+00  4.53534270E-05  4.70876287E-01  4.51266599E-03
 -1.93068405E+00  4.70876287E-01  4.51266599E-03 -1.93068405E+00  4.70876287E-01
  4.51266599E-03 -1.93068405E+00  4.70876287E-01  4.51266599E-03 -1.93068405E+00
  4.72346493E-01  1.66991318E+00  9.70032325E-01  4.72346493E-01  1.66991318E+00
  9.70032325E-01  4.72346493E-01  1.66991318E+00  9.70032325E-01  4.72346493E-01
  1.66991318E+00  9.70032325E-01  4.72344604E-01 -1.67439750E+00  9.62239094E-01
  4.72344604E-01 -1.67439750E+00  9.62239094E-01  4.72344604E-01 -1.67439750E+00
  9.62239094E-01  4.72344604E-01 -1.67439750E+00  9.62239094E-01  4.00193349E+00
  1.88972612E-06 -4.11960295E-04  4.00193349E+00  1.88972612E-06 -4.11960295E-04
  4.00193349E+00  1.88972612E-06 -4.11960295E-04  4.00193349E+00  1.88972612E-06
 -4.11960295E-04  4.00193349E+00  1.88972612E-06 -4.11960295E-04  6.20778622E+00
 -9.44863062E-06  1.94641791E-04  6.20778622E+00 -9.44863062E-06  1.94641791E-04
  6.20778622E+00 -9.44863062E-06  1.94641791E-04  6.20778622E+00 -9.44863062E-06
  1.94641791E-04  6.20778622E+00 -9.44863062E-06  1.94641791E-04
Num ILSW                                   I              100
ILSW                                       I   N=         100
           0           1           0           0           2           0
           0           0           0           0         402          -1
           5           0           0           0           2           0
           0           0           0           0           1           0
           1           1           0           0           0           0
           0           0      100000           0          -1           0
           0           0           0           0           0           0
           0           0           0           1           0           0
           0 -2000000000           1           0           0           0
           0           0           4          52           0           0
           0           0           5           0           0           0
           0           0           0           7           0           1
           0           0           0           0           0           0
           0           0           0           0           0           0
           0           0           0           0           0           0
           0           0           0           0           0           0
           0           0           0           0
Num RLSW                                   I               52
RLSW                                       R   N=          52
  8.00000000E-01  7.20000000E-01  1.00000000E+00  8.10000000E-01  2.00000000E-01
  0.00000000E+00  0.00000000E+00  1.00000000E+00  0.00000000E+00  0.00000000E+00
  0.00000000E+00  0.00000000E+00  1.00000000E+00  0.00000000E+00  0.00000000E+00
  0.00000000E+00  0.00000000E+00  1.00000000E+00  0.00000000E+00  0.00000000E+00
  0.00000000E+00  0.00000000E+00  1.00000000E+00  0.00000000E+00  0.00000000E+00
  0.00000000E+00  0.00000000E+00  1.00000000E+00  0.00000000E+00  0.00000000E+00
  0.00000000E+00  0.00000000E+00  1.00000000E+00  0.00000000E+00  0.00000000E+00
  0.00000000E+00  0.00000000E+00  0.00000000E+00  1.00000000E+00  1.00000000E+00
  0.00000000E+00  1.00000000E+00  0.00000000E+00  0.00000000E+00  0.00000000E+00
  0.00000000E+00  0.00000000E+00  0.00000000E+00  0.00000000E+00  0.00000000E+00
  0.00000000E+00  0.00000000E+00
MxBond                                     I                4
NBond                                      I   N=           7
           4           0           1           1           1           2
           1
IBond                                      I   N=          28
           3           4           5           6           0           0
           0           0           1           0           0           0
           1           0           0           0           1           0
           0           0           1           7           0           0
           6           0           0           0
RBond                                      R   N=          28
  1.00000000E+00  1.00000000E+00  1.00000000E+00  1.00000000E+00  0.00000000E+00
  0.00000000E+00  0.00000000E+00  0.00000000E+00  1.00000000E+00  0.00000000E+00
  0.00000000E+00  0.00000000E+00  1.00000000E+00  0.00000000E+00  0.00000000E+00
  0.00000000E+00  1.00000000E+00  0.00000000E+00  0.00000000E+00  0.00000000E+00
  1.00000000E+00  3.00000000E+00  0.00000000E+00  0.00000000E+00  3.00000000E+00
  0.00000000E+00  0.00000000E+00  0.00000000E+00
Virial Ratio                               R      2.004703390503893E+00
SCF Energy                                 R     -5.930559781310054E+02
Total Energy                               R     -5.930559781310054E+02
RMS Force                                  R      6.573632272649253E-03
RMS Density                                R      1.727876427125376E-09
NImag                                      I                0
Job Status                                 I                1
Nuclear derivative order                   I                2
External E-field                           R   N=          35
  0.00000000E+00  0.00000000E+00  0.00000000E+00  0.00000000E+00  0.00000000E+00
  0.00000000E+00  0.00000000E+00  0.00000000E+00  0.00000000E+00  0.00000000E+00
  0.00000000E+00  0.00000000E+00  0.00000000E+00  0.00000000E+00  0.00000000E+00
  0.00000000E+00  0.00000000E+00  0.00000000E+00  0.00000000E+00  0.00000000E+00
  0.00000000E+00  0.00000000E+00  0.00000000E+00  0.00000000E+00  0.00000000E+00
  0.00000000E+00  0.00000000E+00  0.00000000E+00  0.00000000E+00  0.00000000E+00
  0.00000000E+00  0.00000000E+00  0.00000000E+00  0.00000000E+00  0.00000000E+00
IOpCl                                      I                0
IROHF                                      I                0
Alpha Orbital Energies                     R   N=          98
 -1.01255358E+02 -1.42209581E+01 -1.01177528E+01 -1.00854006E+01 -9.16947499E+00
 -6.92734155E+00 -6.92734125E+00 -6.92691350E+00 -7.86924157E-01 -6.26066609E-01
 -5.10750115E-01 -3.67033017E-01 -3.12741738E-01 -3.12704032E-01 -2.50659462E-01
 -2.08876358E-01 -2.08858910E-01 -5.59319918E-02 -5.59304459E-02 -5.42201761E-02
  1.05594531E-01  1.43120886E-01  1.43123055E-01  1.45803466E-01  1.52079521E-01
  1.52094968E-01  2.02653221E-01  2.09648856E-01  2.09656539E-01  2.18484511E-01
  2.38270765E-01  2.38298165E-01  2.58297536E-01  2.61270694E-01  2.61272703E-01
  3.00166033E-01  3.27326646E-01  3.41965889E-01  3.41974822E-01  3.51786644E-01
  3.51871180E-01  3.63902067E-01  3.94318608E-01  4.17064027E-01  4.89454597E-01
  6.97350602E-01  7.92669958E-01  7.92671589E-01  8.46118309E-01  8.46228161E-01
  8.61320059E-01  8.61321923E-01  8.66851316E-01  9.05279697E-01  9.79233959E-01
  1.02990354E+00  1.02992811E+00  1.03466319E+00  1.10056425E+00  1.12645877E+00
  1.12648743E+00  1.15134871E+00  1.15135783E+00  1.16823249E+00  1.16830539E+00
  1.23364538E+00  1.27400538E+00  1.33813357E+00  1.46713001E+00  1.46716224E+00
  1.54245256E+00  1.63788125E+00  1.63788437E+00  1.85795054E+00  1.85809315E+00
  1.91945167E+00  2.06218650E+00  2.06221391E+00  2.16090700E+00  2.24966893E+00
  2.24979110E+00  2.30160660E+00  2.40679749E+00  2.40694814E+00  2.80633487E+00
  2.80663432E+00  2.83451010E+00  3.04826621E+00  3.08102956E+00  3.08110086E+00
  3.28044975E+00  3.46291261E+00  3.56420938E+00  3.56427123E+00  4.25659190E+00
  4.44177337E+00  4.59062912E+00  4.80532820E+00
Alpha MO coefficients                      R   N=        9604
  8.57046223E-08  3.03946050E-05  1.11322073E-05  5.97576659E-11  6.63112065E-09
 -2.19782034E-04 -2.20374247E-04  1.51841145E-10  8.75214398E-08  1.54157002E-03
  6.95317069E-04 -8.68980280E-10 -3.06213456E-08 -3.79084019E-05 -2.97362420E-06
 -2.98949950E-06 -1.04912523E-11  4.74524528E-09  6.45131168E-11  9.95997744E-01
  1.51436099E-02  1.99333855E-06  5.11897087E-12 -4.32488765E-10 -2.10643285E-02
 -4.44954878E-06 -5.03122250E-12  3.20785823E-09  1.94930094E-03 -5.30271584E-07
 -2.08938762E-11 -6.21252118E-09 -2.17651501E-04  1.91345979E-05  2.55019460E-10
  6.63442337E-10  7.50466985E-03  7.51255159E-03  7.51255169E-03 -1.01322512E-11
 -4.71108911E-10 -4.01087218E-13 -4.97605424E-06 -4.52647948E-05  8.23150051E-05
  2.00122103E-05  2.08506854E-08 -8.92313847E-06 -4.94338327E-06 -4.53437977E-05
  8.22946473E-05  1.99904159E-05  7.72640401E-06  4.48544437E-06 -4.94354625E-06
 -4.53436022E-05  8.22952501E-05  1.99904905E-05 -7.74712333E-06  4.44937051E-06
 -2.14447211E-06 -1.82169255E-05  2.91530955E-06 -1.67914672E-11  1.34612596E-09
 -7.75264279E-05 -4.22711306E-04  1.50364675E-09 -3.49459120E-08 -2.01902944E-03
  4.74882888E-04 -1.10750073E-09 -1.58424926E-07  1.21117991E-05 -1.96169281E-06
 -1.96289090E-06  6.23571210E-12 -6.61160434E-09  1.76096798E-12 -5.05444053E-06
 -2.39377607E-05  4.18441381E-06 -6.09642690E-11  8.13019085E-09  3.43948479E-04
 -1.34028259E-04  9.47241933E-10 -7.81138702E-08  2.88692589E-04 -1.06369309E-04
  5.28756255E-10  2.87059440E-08 -5.52843563E-06 -9.45520059E-06 -9.45526194E-06
 -5.63352821E-11  5.07648378E-09  8.11992039E-13  5.34709240E-06 -2.11517819E-04
  2.22820125E-04 -2.68137085E-10 -5.69487548E-08  1.02340473E-03  7.02561567E-04
  8.39792513E-11 -2.41340151E-07  1.13794685E-02  3.61705971E-03 -2.60680688E-09
 -4.61026841E-07  4.33051943E-04  2.40210400E-05  2.40646968E-05 -3.40657335E-10
 -1.27695746E-07 -2.07151880E-11 -5.70987833E-08 -5.03818673E-06  4.08332686E-06
  2.31334631E-11 -1.14388380E-10 -5.02905737E-06 -2.81369542E-05 -1.34902217E-10
  1.06227245E-09  1.47487824E-05  1.11929724E-04  4.03562842E-10 -1.10550726E-08
  6.62882164E-04  1.76164923E-04  4.63098515E-10  7.27023595E-08  5.54943140E-06
 -1.74514244E-05 -1.74500029E-05  6.96559729E-11  1.72670296E-09 -6.70387518E-12
  3.85049306E-07 -5.97058828E-05 -1.41095636E-04 -6.29762767E-06 -1.70395605E-09
  7.07700732E-07  4.14069575E-07 -5.95852610E-05 -1.41301668E-04 -6.27975492E-06
 -6.48303584E-07 -3.65252917E-07  4.14270307E-07 -5.95842553E-05 -1.41303654E-04
 -6.27945578E-06  6.50042583E-07 -3.62314256E-07  8.23834515E-05  3.52268174E-04
 -5.32193476E-04  2.80623192E-09 -1.46425956E-07  3.84717321E-05  1.42316270E-03
 -4.18731738E-09 -4.20014056E-08 -9.57749793E-03  4.77245538E-03 -1.65151379E-08
 -2.09270851E-07 -1.34403726E-03  1.87988839E-05  1.87994032E-05  7.04585619E-09
 -2.98245132E-07 -4.30492953E-12  9.92766304E-01  3.46731487E-02 -2.06876567E-03
  1.12911882E-08 -6.45358903E-07  3.45601993E-03  8.82896144E-04 -5.62034408E-09
  3.56923956E-07 -3.24049131E-03 -5.20252498E-04  1.81634839E-09  1.95319488E-07
 -7.35623703E-03 -8.34649271E-03 -8.34649683E-03 -5.96647022E-09  3.22525795E-07
  7.61051737E-12  4.04875489E-03  5.82795512E-05 -3.64267072E-04  8.79607501E-10
  6.49039102E-09  6.91134307E-03  2.82200913E-03 -3.84986998E-09 -2.24881687E-07
  9.06424112E-02  3.74080531E-02 -3.70224439E-08 -3.61661739E-06 -9.13567431E-04
 -1.76417183E-04 -1.76258858E-04  1.36915781E-09  1.01614212E-07 -2.72813179E-10
 -3.89749043E-07 -1.13130595E-05  2.71422058E-05  1.55544382E-10  2.70904500E-09
 -2.33707135E-05 -1.73136478E-04 -9.03728321E-10 -1.23792878E-08 -1.57561785E-04
  7.38868460E-04  2.52526791E-09 -4.74405355E-09  8.25907753E-03  2.77249549E-03
  1.20725296E-08  1.53113269E-07  3.49154388E-05 -4.85408161E-05 -4.85307457E-05
  5.54502961E-10  5.25873235E-09 -4.46849933E-11 -1.24431490E-04 -6.38083496E-04
  7.29904970E-04  1.57979970E-05 -3.12783271E-08  1.33308491E-05 -1.24384265E-04
 -6.38189708E-04  7.31671952E-04  1.60827140E-05 -1.15025036E-05 -6.69556296E-06
 -1.24382829E-04 -6.38189610E-04  7.31674299E-04  1.60850085E-05  1.15333266E-05
 -6.64194742E-06  9.92817550E-01  5.02872271E-02  3.43519437E-04 -4.58348083E-09
  5.22391984E-07 -1.08394440E-02  7.53857695E-03 -2.11616443E-08 -5.13488783E-07
 -1.05326435E-01  2.93387176E-02 -7.84690063E-08 -6.84585793E-06 -7.92606862E-03
 -9.80083764E-03 -9.80083640E-03 -9.11806462E-09  3.67268035E-07 -8.51475853E-11
 -4.37771823E-04  3.94745589E-04  3.10337849E-04 -1.51102498E-09  1.34083287E-07
 -7.85891552E-03  3.19555271E-03 -2.20447867E-08  1.33054527E-06  9.38945014E-03
 -7.08582456E-03  3.03040592E-08  1.41779224E-06 -1.67081418E-05  3.48802769E-04
  3.48804114E-04  3.81965130E-09 -3.55831145E-07  4.53153241E-12  9.93042028E-01
  5.05226253E-02  7.28629777E-04  3.45414606E-11  4.33582062E-07 -2.40267287E-02
 -4.42750224E-03  1.67583242E-09 -1.33215066E-06  4.85799316E-02  2.31846342E-02
 -3.45539016E-08 -3.34693822E-06 -8.99253947E-03 -8.81881221E-03 -8.81868327E-03
 -5.69840227E-10  2.09012264E-07 -1.85769106E-09  1.65858067E-06  2.11875096E-05
  1.49724440E-06 -9.75986219E-12  1.36070738E-08  8.10834117E-05 -1.76709008E-05
  2.26137737E-11 -8.64402659E-08 -4.65366877E-04  1.39992130E-04  4.40836228E-10
  3.08951315E-07  6.02344746E-03  2.08921307E-03  8.67279557E-09  2.96974582E-09
  2.76920618E-05  3.34628994E-05  3.34307005E-05  2.19842235E-10  6.21282287E-08
  1.78835439E-10 -8.75390850E-06  3.21033661E-03  4.19520011E-04  2.82960083E-05
  2.82074043E-07 -1.20967257E-04 -8.44535169E-06  3.21173682E-03  4.22625407E-04
  2.81511339E-05  1.04625167E-04  6.08380251E-05 -8.44711991E-06  3.21173047E-03
  4.22599848E-04  2.81493848E-05 -1.04906810E-04  6.03492097E-05 -4.31259973E-03
 -2.82213914E-04  2.08137065E-04 -1.00145306E-09  4.50235410E-08  2.67655525E-03
 -9.40228390E-03  3.41821500E-08 -7.11987415E-08 -5.91598140E-02  1.50888446E-02
 -3.58347733E-08 -4.00857963E-06 -8.43844669E-04 -1.41015535E-05 -1.40636455E-05
  2.53762965E-09 -6.16778365E-09  1.76263088E-10 -2.20699742E-05 -6.73383467E-05
 -2.56070087E-04  1.35769777E-09 -2.40169850E-09  5.52927575E-03 -1.88495573E-03
  1.50456691E-08 -1.68665737E-06  5.31803168E-03 -2.71618866E-03  1.01731693E-08
  1.16115944E-06  1.60960020E-04 -8.00485720E-05 -8.00423789E-05 -3.02524140E-09
  3.14841146E-07 -3.61447901E-11  5.42811876E-05  2.81034551E-04  2.51616635E-04
  5.40096952E-10 -1.35837227E-07 -5.06274249E-03 -4.62232589E-03  5.17101540E-09
  1.91699324E-06  8.93480802E-03  8.56369876E-03  1.71747062E-08 -1.36202571E-07
 -7.29355884E-05  9.39883446E-05  9.39537266E-05  5.06803080E-10  3.70568490E-09
  1.75545360E-11 -2.84634098E-01  1.02269259E+00  4.73153507E-05  1.55584718E-09
 -2.59662184E-08  7.52787768E-02  5.00952813E-04  9.20626574E-10 -2.35697572E-08
 -2.19394293E-02 -1.60280749E-03 -2.20106626E-09  6.93438827E-08  1.45947499E-02
  4.92402513E-03  4.64594882E-09 -4.22430738E-07 -1.56420672E-02 -1.55413087E-02
 -1.55412715E-02 -2.54130084E-10 -3.53579011E-09  9.38139163E-11 -6.23789172E-05
 -4.10253804E-04 -2.70245625E-03  7.81347633E-05  5.11937951E-08 -2.21430640E-05
 -6.22603225E-05 -4.12179439E-04 -2.69933584E-03  7.84087614E-05  1.93071614E-05
  1.11084786E-05 -6.22614655E-05 -4.12165126E-04 -2.69936889E-03  7.84067309E-05
 -1.93581546E-05  1.10175236E-05 -4.90790146E-05 -2.92016378E-04 -2.61255630E-05
  3.68077484E-10 -1.41724866E-08  4.08416588E-04 -6.62554949E-03  2.03100915E-08
 -3.34491906E-07 -6.42612593E-03  9.71821692E-04 -3.39482909E-08 -1.58219694E-07
  7.17708202E-05 -4.92222123E-05 -4.92461309E-05  1.37817910E-10 -5.70234148E-08
  9.41928379E-11 -1.17225599E-04 -4.70165817E-04  1.64402623E-05 -4.08410542E-10
  7.78204508E-08  6.16021914E-03 -1.84403507E-03  1.33030516E-08 -1.10615406E-06
 -2.14334997E-03  1.02855564E-03  6.76560463E-09  9.31627589E-08 -1.81842636E-04
 -2.32154661E-04 -2.32150727E-04 -1.02633346E-09  1.00922889E-07 -4.37279959E-11
 -5.95343560E-08 -2.40473446E-07  5.31750290E-08  1.15058740E-07 -2.11894040E-05
  8.36359390E-07 -2.30378709E-06  3.45348923E-06 -6.37181723E-04 -3.55263744E-05
 -1.81097203E-05 -2.01449125E-06  3.71162212E-04 -7.47184735E-08 -3.79898189E-05
  3.77732917E-05 -1.41750560E-07  2.61538325E-05 -6.87936176E-08 -1.45174640E-09
  2.16601358E-08  8.76929783E-05 -5.37172015E-03  9.90793151E-01  1.53190881E-07
  2.74195449E-06 -1.61007480E-04  2.96973254E-02 -1.60258785E-07 -1.56447469E-06
  6.25547035E-05 -1.15380627E-02 -5.04787220E-06 -1.27455585E-06 -2.75692040E-05
  5.08504869E-03 -4.88365268E-08  2.05162539E-06 -2.05783638E-06 -2.01254283E-07
  3.71570187E-05  4.36916969E-09  1.56296105E-04 -1.28664681E-03  4.71433572E-03
  7.75577931E-05  2.16805411E-07 -1.33234620E-04 -7.77662638E-05  6.37519378E-04
 -2.34700011E-03 -3.84243767E-05 -7.04573630E-05 -1.04094293E-05 -7.86031121E-05
  6.44396342E-04 -2.37224988E-03 -3.88390371E-05  7.10763804E-05 -1.05171619E-05
 -3.79485550E-08 -1.82901024E-07 -2.28687391E-08 -2.93049629E-07  5.40086110E-05
 -6.30153030E-07 -2.96145024E-06  6.72734459E-07 -1.23791875E-04  4.89873222E-05
 -1.30351613E-05 -6.40946249E-06  1.18236271E-03 -7.08712941E-08 -7.20111230E-06
  7.13146968E-06  1.01973383E-07 -1.88239474E-05 -1.28585635E-08 -7.63515108E-08
 -3.06469987E-07  1.83375278E-08  8.01196575E-08 -1.47899420E-05  3.60518046E-06
 -1.36454864E-06 -5.19226652E-07  9.57648565E-05 -3.40531436E-06  2.36102154E-06
  2.16634966E-06 -3.99960560E-04 -4.22639483E-08  3.51044429E-06 -3.85999498E-06
  7.19913171E-08 -1.32526995E-05  6.70835758E-09 -1.43900878E-10 -2.53563383E-11
  1.40738779E-10 -2.14560540E-05 -1.16150133E-07 -2.03098415E-08 -3.06529098E-08
 -6.34624445E-04 -3.44177625E-06 -9.05739946E-07 -3.93936242E-07  3.68652590E-04
  1.99651389E-06 -7.34134895E-10  5.87331800E-08 -5.99292003E-08  2.59189792E-05
  1.40569048E-07 -4.36257810E-05  4.42610589E-10 -1.16449586E-09  5.80945408E-07
  9.90793215E-01  5.37172009E-03 -1.64793403E-09  1.98107464E-08  2.96970437E-02
  1.61007176E-04 -1.76394149E-09 -1.65608900E-08 -1.15373485E-02 -6.25517774E-05
 -9.16406676E-08 -2.88383391E-08  5.08369267E-03  2.75620159E-05  7.68180139E-10
 -6.71817929E-10  5.21848068E-09  3.71667618E-05  2.01702449E-07  2.35465331E-06
  4.84006930E-07 -3.97465056E-06  1.45338343E-05  2.40109164E-07  3.03908454E-05
 -3.40540136E-07 -1.35922959E-04  1.11329816E-03 -4.08560363E-03 -6.71449008E-05
 -9.22139856E-05 -7.09854179E-05  1.35438500E-04 -1.10934626E-03  4.07101816E-03
  6.69075736E-05 -9.21066918E-05  7.04914227E-05 -1.10557048E-09 -4.98191401E-09
  2.78052286E-10  5.40151788E-05  2.92613966E-07  8.00356982E-09 -5.39740973E-08
 -1.24376264E-04 -6.72749479E-07  1.07354253E-06 -3.16401546E-07  1.18088512E-03
  6.40323309E-06 -1.62079909E-09  9.91337846E-09 -1.28827664E-08 -1.87468560E-05
 -1.01723196E-07 -8.28175725E-06 -8.47949422E-10 -3.80331348E-09  2.16375981E-10
 -1.47846740E-05 -8.02233545E-08  5.03465175E-08 -1.97617330E-08  9.58172834E-05
  5.19450567E-07 -3.76635589E-08  4.98789465E-08 -3.98798964E-04 -2.16424605E-06
 -2.67724998E-10 -7.43525611E-09  4.11327812E-09 -1.32954800E-05 -7.19414815E-08
  4.25606980E-06 -2.52480910E-05 -1.10994371E-04  1.63513071E-04 -2.84649161E-10
 -8.18247919E-08 -3.64099076E-03 -4.40506350E-03  1.19461735E-08  7.60106059E-07
 -1.31189943E-01 -5.77665118E-02  5.52104806E-08  5.44051471E-06 -8.12168316E-06
 -9.35966567E-05 -9.35121927E-05  7.61096507E-10 -6.66438433E-08 -4.26060397E-11
  5.80755645E-05 -4.36468466E-05  9.90685405E-01 -1.06059511E-07 -8.77174714E-05
  4.44720793E-04  3.03885046E-02 -1.70149797E-09 -2.61298644E-06 -1.72271104E-03
 -1.37726475E-02 -3.04928662E-09  9.98343148E-07 -1.13587002E-02  7.57366769E-04
 -2.02518866E-08 -5.63234739E-07  1.53576221E-04  3.30408493E-04  3.30421313E-04
 -7.06317546E-10 -2.39613978E-08  1.46981407E-10 -1.58897926E-04  4.00978497E-04
 -2.80146377E-03  2.13158284E-05 -1.41884314E-07  6.02920706E-05 -1.58987395E-04
  4.00234680E-04 -2.80319867E-03  2.18692172E-05 -5.20071041E-05 -3.02876967E-05
 -1.58986255E-04  4.00254348E-04 -2.80321529E-03  2.18648301E-05  5.21485676E-05
 -3.00469245E-05 -1.47373775E-04 -6.60438880E-04  4.50707167E-06  1.66452812E-11