RxCoord=-4.49902 DE=5.84                                                
Freq      RB3LYP                                                      6-31++G(d,p)        
Number of atoms                            I                7
Info1-9                                    I   N=           9
          16          16           0           0           0         100
           6          18        -502
Full Title                                 C   N=           2
RxCoord=-4.49902 DE=5.84
Route                                      C   N=           6
#p b3lyp 6-31++g(d,p) scf=verytight NoSymm freq=noraman int=
ultrafine   
Charge                                     I               -1
Multiplicity                               I                1
Number of electrons                        I               40
Number of alpha electrons                  I               20
Number of beta electrons                   I               20
Number of basis functions                  I               98
Number of independent functions            I               98
Number of point charges in /Mol/           I                0
Number of translation vectors              I                0
Atomic numbers                             I   N=           7
           6          17           1           1           1           6
           7
Nuclear charges                            R   N=           7
  6.00000000E+00  1.70000000E+01  1.00000000E+00  1.00000000E+00  1.00000000E+00
  6.00000000E+00  7.00000000E+00
Current cartesian coordinates              R   N=          21
  1.16150693E+00  7.55890450E-06 -1.66295899E-04 -4.30206924E+00  0.00000000E+00
  7.55890450E-05  4.52827512E-01  4.51644544E-03 -1.93272306E+00  4.54137093E-01
  1.67153079E+00  9.70894040E-01  4.54125754E-01 -1.67601700E+00  9.63095140E-01
  4.00696394E+00  1.88972612E-06 -3.98732212E-04  6.21613881E+00 -9.44863062E-06
  2.04090421E-04
Number of symbols in /Mol/                 I                0
Force Field                                I                0
Atom Types                                 C   N=           7
                                                            
                        
Int Atom Types                             I   N=           7
           0           0           0           0           0           0
           0
MM charges                                 R   N=           7
  0.00000000E+00  0.00000000E+00  0.00000000E+00  0.00000000E+00  0.00000000E+00
  0.00000000E+00  0.00000000E+00
Integer atomic weights                     I   N=           7
          12          35           1           1           1          12
          14
Real atomic weights                        R   N=           7
  1.20000000E+01  3.49688527E+01  1.00782504E+00  1.00782504E+00  1.00782504E+00
  1.20000000E+01  1.40030740E+01
Atom fragment info                         I   N=           7
           0           0           0           0           0           0
           0
Atom residue num                           I   N=           7
           0           0           0           0           0           0
           0
Nuclear spins                              I   N=           7
           0           3           1           1           1           0
           2
Nuclear ZEff                               R   N=           7
 -3.60000000E+00 -1.42400000E+01 -1.00000000E+00 -1.00000000E+00 -1.00000000E+00
 -3.60000000E+00 -4.55000000E+00
Nuclear ZNuc                               R   N=           7
  6.00000000E+00  1.70000000E+01  1.00000000E+00  1.00000000E+00  1.00000000E+00
  6.00000000E+00  7.00000000E+00
Nuclear QMom                               R   N=           7
  0.00000000E+00 -8.16500000E+00  0.00000000E+00  0.00000000E+00  0.00000000E+00
  0.00000000E+00  2.04400000E+00
Nuclear GFac                               R   N=           7
  0.00000000E+00  8.21874000E-01  2.79284600E+00  2.79284600E+00  2.79284600E+00
  0.00000000E+00  4.03761000E-01
MicOpt                                     I   N=           7
          -1          -1          -1          -1          -1          -1
          -1
Number of residues                         I                0
Number of secondary structures             I                0
Number of contracted shells                I               33
Number of primitive shells                 I               72
Pure/Cartesian d shells                    I                1
Pure/Cartesian f shells                    I                0
Highest angular momentum                   I                2
Largest degree of contraction              I                6
Shell types                                I   N=          33
           0          -1          -1          -1           2           0
          -1          -1          -1          -1           2           0
           0           0           1           0           0           0
           1           0           0           0           1           0
          -1          -1          -1           2           0          -1
          -1          -1           2
Number of primitives per shell             I   N=          33
           6           3           1           1           1           6
           6           3           1           1           1           3
           1           1           1           3           1           1
           1           3           1           1           1           6
           3           1           1           1           6           3
           1           1           1
Shell to atom map                          I   N=          33
           1           1           1           1           1           2
           2           2           2           2           2           3
           3           3           3           4           4           4
           4           5           5           5           5           6
           6           6           6           6           7           7
           7           7           7
Primitive exponents                        R   N=          72
  3.04752488E+03  4.57369518E+02  1.03948685E+02  2.92101553E+01  9.28666296E+00
  3.16392696E+00  7.86827235E+00  1.88128854E+00  5.44249258E-01  1.68714478E-01
  4.38000000E-02  8.00000000E-01  2.51801000E+04  3.78035000E+03  8.60474000E+02
  2.42145000E+02  7.73349000E+01  2.62470000E+01  4.91765000E+02  1.16984000E+02
  3.74153000E+01  1.37834000E+01  5.45215000E+00  2.22588000E+00  3.18649000E+00
  1.14427000E+00  4.20377000E-01  1.42657000E-01  4.83000000E-02  7.50000000E-01
  1.87311370E+01  2.82539436E+00  6.40121692E-01  1.61277759E-01  3.60000000E-02
  1.10000000E+00  1.87311370E+01  2.82539436E+00  6.40121692E-01  1.61277759E-01
  3.60000000E-02  1.10000000E+00  1.87311370E+01  2.82539436E+00  6.40121692E-01
  1.61277759E-01  3.60000000E-02  1.10000000E+00  3.04752488E+03  4.57369518E+02
  1.03948685E+02  2.92101553E+01  9.28666296E+00  3.16392696E+00  7.86827235E+00
  1.88128854E+00  5.44249258E-01  1.68714478E-01  4.38000000E-02  8.00000000E-01
  4.17351146E+03  6.27457911E+02  1.42902093E+02  4.02343293E+01  1.28202129E+01
  4.39043701E+00  1.16263619E+01  2.71627981E+00  7.72218397E-01  2.12031498E-01
  6.39000000E-02  8.00000000E-01
Contraction coefficients                   R   N=          72
  1.83473713E-03  1.40373228E-02  6.88426223E-02  2.32184443E-01  4.67941348E-01
  3.62311985E-01 -1.19332420E-01 -1.60854152E-01  1.14345644E+00  1.00000000E+00
  1.00000000E+00  1.00000000E+00  1.83295985E-03  1.40341988E-02  6.90973943E-02
  2.37451980E-01  4.83033960E-01  3.39855972E-01 -2.29739142E-03 -3.07137189E-02
 -1.12528069E-01  4.50163278E-02  5.89353363E-01  4.65206287E-01 -2.51828028E-01
  6.15892514E-02  1.06018433E+00  1.00000000E+00  1.00000000E+00  1.00000000E+00
  3.34946043E-02  2.34726953E-01  8.13757326E-01  1.00000000E+00  1.00000000E+00
  1.00000000E+00  3.34946043E-02  2.34726953E-01  8.13757326E-01  1.00000000E+00
  1.00000000E+00  1.00000000E+00  3.34946043E-02  2.34726953E-01  8.13757326E-01
  1.00000000E+00  1.00000000E+00  1.00000000E+00  1.83473713E-03  1.40373228E-02
  6.88426223E-02  2.32184443E-01  4.67941348E-01  3.62311985E-01 -1.19332420E-01
 -1.60854152E-01  1.14345644E+00  1.00000000E+00  1.00000000E+00  1.00000000E+00
  1.83477216E-03  1.39946270E-02  6.85865518E-02  2.32240873E-01  4.69069948E-01
  3.60455199E-01 -1.14961182E-01 -1.69117479E-01  1.14585195E+00  1.00000000E+00
  1.00000000E+00  1.00000000E+00
P(S=P) Contraction coefficients            R   N=          72
  0.00000000E+00  0.00000000E+00  0.00000000E+00  0.00000000E+00  0.00000000E+00
  0.00000000E+00  6.89990666E-02  3.16423961E-01  7.44308291E-01  1.00000000E+00
  1.00000000E+00  0.00000000E+00  0.00000000E+00  0.00000000E+00  0.00000000E+00
  0.00000000E+00  0.00000000E+00  0.00000000E+00  3.98940088E-03  3.03177067E-02
  1.29880029E-01  3.27951072E-01  4.53527100E-01  2.52154056E-01 -1.42993147E-02
  3.23572333E-01  7.43507765E-01  1.00000000E+00  1.00000000E+00  0.00000000E+00
  0.00000000E+00  0.00000000E+00  0.00000000E+00  0.00000000E+00  0.00000000E+00
  0.00000000E+00  0.00000000E+00  0.00000000E+00  0.00000000E+00  0.00000000E+00
  0.00000000E+00  0.00000000E+00  0.00000000E+00  0.00000000E+00  0.00000000E+00
  0.00000000E+00  0.00000000E+00  0.00000000E+00  0.00000000E+00  0.00000000E+00
  0.00000000E+00  0.00000000E+00  0.00000000E+00  0.00000000E+00  6.89990666E-02
  3.16423961E-01  7.44308291E-01  1.00000000E+00  1.00000000E+00  0.00000000E+00
  0.00000000E+00  0.00000000E+00  0.00000000E+00  0.00000000E+00  0.00000000E+00
  0.00000000E+00  6.75797439E-02  3.23907296E-01  7.40895140E-01  1.00000000E+00
  1.00000000E+00  0.00000000E+00
Coordinates of each shell                  R   N=          99
  1.16150693E+00  7.55890450E-06 -1.66295899E-04  1.16150693E+00  7.55890450E-06
 -1.66295899E-04  1.16150693E+00  7.55890450E-06 -1.66295899E-04  1.16150693E+00
  7.55890450E-06 -1.66295899E-04  1.16150693E+00  7.55890450E-06 -1.66295899E-04
 -4.30206924E+00  0.00000000E+00  7.55890450E-05 -4.30206924E+00  0.00000000E+00
  7.55890450E-05 -4.30206924E+00  0.00000000E+00  7.55890450E-05 -4.30206924E+00
  0.00000000E+00  7.55890450E-05 -4.30206924E+00  0.00000000E+00  7.55890450E-05
 -4.30206924E+00  0.00000000E+00  7.55890450E-05  4.52827512E-01  4.51644544E-03
 -1.93272306E+00  4.52827512E-01  4.51644544E-03 -1.93272306E+00  4.52827512E-01
  4.51644544E-03 -1.93272306E+00  4.52827512E-01  4.51644544E-03 -1.93272306E+00
  4.54137093E-01  1.67153079E+00  9.70894040E-01  4.54137093E-01  1.67153079E+00
  9.70894040E-01  4.54137093E-01  1.67153079E+00  9.70894040E-01  4.54137093E-01
  1.67153079E+00  9.70894040E-01  4.54125754E-01 -1.67601700E+00  9.63095140E-01
  4.54125754E-01 -1.67601700E+00  9.63095140E-01  4.54125754E-01 -1.67601700E+00
  9.63095140E-01  4.54125754E-01 -1.67601700E+00  9.63095140E-01  4.00696394E+00
  1.88972612E-06 -3.98732212E-04  4.00696394E+00  1.88972612E-06 -3.98732212E-04
  4.00696394E+00  1.88972612E-06 -3.98732212E-04  4.00696394E+00  1.88972612E-06
 -3.98732212E-04  4.00696394E+00  1.88972612E-06 -3.98732212E-04  6.21613881E+00
 -9.44863062E-06  2.04090421E-04  6.21613881E+00 -9.44863062E-06  2.04090421E-04
  6.21613881E+00 -9.44863062E-06  2.04090421E-04  6.21613881E+00 -9.44863062E-06
  2.04090421E-04  6.21613881E+00 -9.44863062E-06  2.04090421E-04
Num ILSW                                   I              100
ILSW                                       I   N=         100
           0           1           0           0           2           0
           0           0           0           0         402          -1
           5           0           0           0           2           0
           0           0           0           0           1           0
           1           1           0           0           0           0
           0           0      100000           0          -1           0
           0           0           0           0           0           0
           0           0           0           1           0           0
           0 -2000000000           1           0           0           0
           0           0           4          52           0           0
           0           0           5           0           0           0
           0           0           0           7           0           1
           0           0           0           0           0           0
           0           0           0           0           0           0
           0           0           0           0           0           0
           0           0           0           0           0           0
           0           0           0           0
Num RLSW                                   I               52
RLSW                                       R   N=          52
  8.00000000E-01  7.20000000E-01  1.00000000E+00  8.10000000E-01  2.00000000E-01
  0.00000000E+00  0.00000000E+00  1.00000000E+00  0.00000000E+00  0.00000000E+00
  0.00000000E+00  0.00000000E+00  1.00000000E+00  0.00000000E+00  0.00000000E+00
  0.00000000E+00  0.00000000E+00  1.00000000E+00  0.00000000E+00  0.00000000E+00
  0.00000000E+00  0.00000000E+00  1.00000000E+00  0.00000000E+00  0.00000000E+00
  0.00000000E+00  0.00000000E+00  1.00000000E+00  0.00000000E+00  0.00000000E+00
  0.00000000E+00  0.00000000E+00  1.00000000E+00  0.00000000E+00  0.00000000E+00
  0.00000000E+00  0.00000000E+00  0.00000000E+00  1.00000000E+00  1.00000000E+00
  0.00000000E+00  1.00000000E+00  0.00000000E+00  0.00000000E+00  0.00000000E+00
  0.00000000E+00  0.00000000E+00  0.00000000E+00  0.00000000E+00  0.00000000E+00
  0.00000000E+00  0.00000000E+00
MxBond                                     I                4
NBond                                      I   N=           7
           4           0           1           1           1           2
           1
IBond                                      I   N=          28
           3           4           5           6           0           0
           0           0           1           0           0           0
           1           0           0           0           1           0
           0           0           1           7           0           0
           6           0           0           0
RBond                                      R   N=          28
  1.00000000E+00  1.00000000E+00  1.00000000E+00  1.00000000E+00  0.00000000E+00
  0.00000000E+00  0.00000000E+00  0.00000000E+00  1.00000000E+00  0.00000000E+00
  0.00000000E+00  0.00000000E+00  1.00000000E+00  0.00000000E+00  0.00000000E+00
  0.00000000E+00  1.00000000E+00  0.00000000E+00  0.00000000E+00  0.00000000E+00
  1.00000000E+00  3.00000000E+00  0.00000000E+00  0.00000000E+00  3.00000000E+00
  0.00000000E+00  0.00000000E+00  0.00000000E+00
Virial Ratio                               R      2.004748425310352E+00
SCF Energy                                 R     -5.930551727422871E+02
Total Energy                               R     -5.930551727422871E+02
RMS Force                                  R      8.143086722662252E-03
RMS Density                                R      1.733279429347919E-09
NImag                                      I                0
Job Status                                 I                1
Nuclear derivative order                   I                2
External E-field                           R   N=          35
  0.00000000E+00  0.00000000E+00  0.00000000E+00  0.00000000E+00  0.00000000E+00
  0.00000000E+00  0.00000000E+00  0.00000000E+00  0.00000000E+00  0.00000000E+00
  0.00000000E+00  0.00000000E+00  0.00000000E+00  0.00000000E+00  0.00000000E+00
  0.00000000E+00  0.00000000E+00  0.00000000E+00  0.00000000E+00  0.00000000E+00
  0.00000000E+00  0.00000000E+00  0.00000000E+00  0.00000000E+00  0.00000000E+00
  0.00000000E+00  0.00000000E+00  0.00000000E+00  0.00000000E+00  0.00000000E+00
  0.00000000E+00  0.00000000E+00  0.00000000E+00  0.00000000E+00  0.00000000E+00
IOpCl                                      I                0
IROHF                                      I                0
Alpha Orbital Energies                     R   N=          98
 -1.01255546E+02 -1.42214356E+01 -1.01183220E+01 -1.00864676E+01 -9.16969617E+00
 -6.92755670E+00 -6.92755642E+00 -6.92713727E+00 -7.85838539E-01 -6.23120487E-01
 -5.11042156E-01 -3.65221427E-01 -3.11364326E-01 -3.11319363E-01 -2.50370179E-01
 -2.09082158E-01 -2.09064043E-01 -5.62146423E-02 -5.62130942E-02 -5.44159927E-02
  1.05693067E-01  1.43590466E-01  1.43590795E-01  1.45839092E-01  1.51394241E-01
  1.51409510E-01  2.02974330E-01  2.09659106E-01  2.09665791E-01  2.18158009E-01
  2.38567812E-01  2.38598322E-01  2.58164541E-01  2.61285215E-01  2.61285645E-01
  2.97851508E-01  3.25532114E-01  3.41812885E-01  3.41820837E-01  3.51329637E-01
  3.51414463E-01  3.61878634E-01  3.93986716E-01  4.16607259E-01  4.88940110E-01
  6.98788068E-01  7.92254495E-01  7.92257912E-01  8.45586100E-01  8.45694595E-01
  8.61449785E-01  8.61452177E-01  8.66827780E-01  9.02217545E-01  9.79063627E-01
  1.03049309E+00  1.03052534E+00  1.03247529E+00  1.10023093E+00  1.12597851E+00
  1.12601009E+00  1.15107209E+00  1.15108100E+00  1.16876347E+00  1.16883223E+00
  1.23374981E+00  1.27143093E+00  1.33990551E+00  1.46871295E+00  1.46873614E+00
  1.53976480E+00  1.63916967E+00  1.63917241E+00  1.85223067E+00  1.85236970E+00
  1.91380175E+00  2.06248827E+00  2.06251003E+00  2.16062747E+00  2.24814429E+00
  2.24828724E+00  2.28569885E+00  2.40689276E+00  2.40704449E+00  2.80375737E+00
  2.80406625E+00  2.83538164E+00  3.03851879E+00  3.07214707E+00  3.07218867E+00
  3.27317420E+00  3.46074864E+00  3.56260066E+00  3.56263078E+00  4.25116331E+00
  4.43408476E+00  4.59023541E+00  4.79783358E+00
Alpha MO coefficients                      R   N=        9604
 -9.99314887E-08  2.98398437E-05  1.26423478E-05  1.19509719E-10  4.73053430E-09
 -2.10024642E-04 -2.23278609E-04  1.17191083E-10  7.96758095E-08  1.46668335E-03
  6.80520475E-04 -6.34031446E-10 -1.71683666E-08 -3.82250734E-05 -3.41894469E-06
 -3.43273348E-06 -2.55778403E-12  2.88117533E-09  8.30539527E-11  9.95997733E-01
  1.51438326E-02  1.96080196E-06 -7.53999718E-12 -2.31511610E-10 -2.10641794E-02
 -4.24248770E-06  1.97915989E-11  2.56474520E-09  1.94703347E-03 -2.19050767E-06
 -7.49509454E-11 -4.60664824E-09 -2.14993153E-04  2.06285041E-05  2.88726329E-10
 -3.60472832E-09  7.50465117E-03  7.51303562E-03  7.51303572E-03 -1.50116367E-11
 -2.11256401E-10 -6.73769573E-13 -5.70537956E-06 -4.62731371E-05  8.21908232E-05
  2.06218349E-05  2.12554378E-08 -9.09398864E-06 -5.67872337E-06 -4.63447776E-05
  8.21707878E-05  2.06039051E-05  7.87314808E-06  4.57030230E-06 -5.67920120E-06
 -4.63442726E-05  8.21717371E-05  2.06041126E-05 -7.89421210E-06  4.53354238E-06
 -2.23790427E-06 -1.85965254E-05  3.25367696E-06 -2.98272229E-11  1.19425885E-09
 -8.20269380E-05 -4.22346190E-04  1.59242867E-09 -4.34156872E-08 -1.94434993E-03
  4.57125263E-04 -1.14403032E-09 -1.21064131E-07  1.14590655E-05 -2.07827343E-06
 -2.07932558E-06  9.48259657E-12 -5.74285965E-09  6.72056314E-12 -5.10241087E-06
 -2.40911315E-05  4.05392791E-06 -5.35618263E-11  7.17424453E-09  3.45543186E-04
 -1.35378138E-04  9.05900096E-10 -7.27417431E-08  2.86503314E-04 -1.04063681E-04
  5.29789321E-10  1.89040894E-08 -5.33709226E-06 -9.64657478E-06 -9.64664236E-06
 -4.89776227E-11  4.71400825E-09  7.21760293E-13  3.94745994E-06 -2.16891600E-04
  2.05408870E-04 -3.89182179E-10 -4.34008245E-08  9.88729160E-04  6.82221056E-04
  2.21513311E-10 -1.81604472E-07  1.10591189E-02  3.56880779E-03 -2.31538986E-09
 -3.46714254E-07  4.14436571E-04  2.24580109E-05  2.24969322E-05 -2.19541508E-10
 -9.70783633E-08 -8.09251767E-11 -5.69605961E-08 -4.98121067E-06  3.95033534E-06
  1.95524577E-11 -4.58546366E-10 -5.22102161E-06 -2.74403009E-05 -1.14479363E-10
  3.03470708E-09  1.44870138E-05  1.11225013E-04  3.47699363E-10 -1.61272961E-08
  6.69898570E-04  1.77959628E-04  4.58584371E-10  5.33487555E-08  5.94166878E-06
 -1.72094955E-05 -1.72082545E-05  5.98808870E-11  2.21573145E-10 -7.79009511E-12
  7.14169845E-07 -6.36502537E-05 -1.37890947E-04 -6.66171902E-06 -3.41810482E-09
  1.43525084E-06  7.38418084E-07 -6.35583713E-05 -1.38112729E-04 -6.64658765E-06
 -1.27362170E-06 -7.30621436E-07  7.38611875E-07 -6.35572219E-05 -1.38114000E-04
 -6.64631193E-06  1.27675068E-06 -7.24611490E-07  8.29668392E-05  3.53904753E-04
 -5.24948175E-04  2.72488233E-09 -1.40645438E-07  7.10296444E-05  1.38012932E-03
 -3.97347825E-09 -6.43236486E-09 -9.27568848E-03  4.71353524E-03 -1.60804616E-08
 -2.34010927E-08 -1.30807540E-03  1.75686262E-05  1.75689490E-05  6.86351248E-09
 -3.03367507E-07  7.31825590E-12  9.92766810E-01  3.46517079E-02 -2.04587106E-03
  1.13440286E-08 -6.24205075E-07  3.47491086E-03  8.83476649E-04 -5.72683567E-09
  3.44326982E-07 -3.23735069E-03 -5.20655466E-04  1.77443804E-09  1.42806471E-07
 -7.37069684E-03 -8.34158199E-03 -8.34158604E-03 -5.81537780E-09  3.11658087E-07
  1.43363705E-11  3.70514266E-03  6.38206221E-05 -3.33130055E-04  3.40803295E-10
 -1.94702114E-08  6.60938928E-03  2.71866140E-03 -3.65684838E-09  1.55121128E-08
  8.72592608E-02  3.68129925E-02 -3.52191648E-08 -2.74230084E-06 -8.84837196E-04
 -1.70582148E-04 -1.70431536E-04  1.23109728E-09  5.91731886E-08 -7.55476543E-10
 -3.68012695E-07 -1.08829674E-05  2.71321548E-05  1.28618708E-10  3.36544263E-10
 -2.21623663E-05 -1.72996597E-04 -7.39923014E-10  1.12922151E-09 -1.66915917E-04
  7.39764018E-04  2.02697203E-09 -3.93649716E-08  8.38446432E-03  2.80691061E-03
  1.25598132E-08 -5.73802215E-08  3.54499478E-05 -4.77110868E-05 -4.77028117E-05
  4.73643819E-10 -3.95672027E-09 -5.55963549E-11 -1.24407141E-04 -6.40274194E-04
  7.23749510E-04  1.14272796E-05 -2.53381872E-08  1.07437548E-05 -1.24382476E-04
 -6.40477078E-04  7.25129553E-04  1.17073264E-05 -9.25361393E-06 -5.39733483E-06
 -1.24381670E-04 -6.40476812E-04  7.25135164E-04  1.17062798E-05  9.27830887E-06
 -5.35428715E-06  9.92825355E-01  5.02021767E-02  3.61500099E-04 -3.86062803E-09
  4.69950466E-07 -1.07974666E-02  7.22387328E-03 -1.96600373E-08 -2.97826631E-07
 -1.02060499E-01  2.85740426E-02 -7.54276233E-08 -4.88421934E-06 -7.97544609E-03
 -9.77756601E-03 -9.77756482E-03 -9.00964292E-09  3.83719906E-07 -8.33587562E-12
 -4.30475441E-04  3.94976529E-04  2.97196105E-04 -1.43225034E-09  1.15382172E-07
 -7.61811476E-03  3.08998284E-03 -2.15576420E-08  1.26699776E-06  9.44791079E-03
 -7.03386532E-03  2.97379924E-08  8.62948699E-07 -5.00080575E-06  3.45098087E-04
  3.45099047E-04  3.75454680E-09 -3.15744816E-07  1.81835655E-12  9.93052441E-01
  5.04557453E-02  7.11808645E-04  2.15427254E-09  4.37201633E-07 -2.37911222E-02
 -4.37384722E-03 -4.55626730E-09 -1.63707208E-06  4.67083340E-02  2.28040151E-02
 -2.80211841E-08 -3.06997415E-06 -9.01256314E-03 -8.79302471E-03 -8.79285847E-03
  9.21115342E-11  1.97115516E-07 -1.07637803E-09  1.64070423E-06  2.13759652E-05
  1.15270825E-06  8.71274446E-11  1.10100898E-08  8.01707557E-05 -1.67258122E-05
 -5.72864222E-10 -7.01888884E-08 -4.68665870E-04  1.39120801E-04  2.16962383E-09
  2.58124790E-07  6.08216702E-03  2.09927393E-03  8.93925101E-09 -1.18818694E-07
  3.02747644E-05  3.36121238E-05  3.35842077E-05  6.00944194E-10  4.98300482E-08
  2.60911928E-10 -1.33111966E-05  3.20451563E-03  4.08778524E-04  2.80429153E-05
  2.86498562E-07 -1.22587269E-04 -1.29926008E-05  3.20612961E-03  4.11814258E-04
  2.79306226E-05  1.06012537E-04  6.16455041E-05 -1.29949400E-05  3.20611541E-03
  4.11797569E-04  2.79310147E-05 -1.06297856E-04  6.11511840E-05 -3.95740663E-03
 -2.48131114E-04  1.82452308E-04 -3.35199095E-10  3.73263131E-08  2.38288002E-03
 -9.37364394E-03  3.09821492E-08 -2.20565716E-07 -5.72891399E-02  1.47010640E-02
 -4.05146183E-08 -2.72798804E-06 -8.38653489E-04 -1.89269105E-05 -1.88942794E-05
  2.79759237E-09 -4.56381947E-08 -1.57150659E-10 -2.39630336E-05 -7.73170823E-05
 -2.56622972E-04  1.17228479E-09 -7.78452344E-09  5.60693294E-03 -1.93439417E-03
  1.63610332E-08 -1.58435039E-06  5.30203550E-03 -2.68802214E-03  1.30126210E-08
  7.79894905E-07  1.64008331E-04 -8.26616395E-05 -8.26557719E-05 -3.27213956E-09
  2.97659729E-07 -1.83998742E-11  5.34325647E-05  2.69662263E-04  2.57150637E-04
  7.47132038E-11 -1.27176038E-07 -4.83660840E-03 -4.53304198E-03  8.26202099E-09
  1.63738395E-06  8.95552558E-03  8.72916525E-03  1.15552835E-08 -1.35913727E-07
 -6.09846053E-05  9.35739472E-05  9.35459984E-05  1.58000961E-10 -1.26665647E-08
 -3.90470916E-11 -2.84633783E-01  1.02269324E+00  4.67525539E-05  3.19175497E-10
 -9.17626107E-09  7.52886022E-02  5.01936920E-04  6.50509540E-10 -3.23716498E-08
 -2.19745716E-02 -1.61055755E-03 -1.56918686E-09  9.11763906E-08  1.47568177E-02
  4.98227906E-03  2.58673040E-09 -4.36281033E-07 -1.56423387E-02 -1.55395998E-02
 -1.55395656E-02 -3.21389872E-10  2.23495358E-09  3.43818075E-11 -6.40059375E-05
 -3.93894597E-04 -2.68210977E-03  7.46662140E-05  4.65015404E-08 -2.02111653E-05
 -6.39102670E-05 -3.95566630E-04 -2.67991269E-03  7.48892075E-05  1.76121693E-05
  1.01387642E-05 -6.39128157E-05 -3.95546543E-04 -2.67996421E-03  7.48855546E-05
 -1.76582111E-05  1.00552902E-05 -4.78101077E-05 -2.84068741E-04 -2.42842773E-05
  2.64483983E-10 -9.07964219E-09  2.68357699E-04 -6.44641035E-03  1.98275777E-08
 -4.93828006E-07 -6.68561891E-03  1.10607228E-03 -3.16192185E-08  1.90441324E-07
  6.76002720E-05 -4.75942501E-05 -4.76141589E-05  1.61403205E-10 -4.86839339E-08
  1.48627613E-10 -1.16087728E-04 -4.64681618E-04  1.49973322E-05 -4.03798706E-10
  6.53252275E-08  6.05630318E-03 -1.81829014E-03  1.30948375E-08 -9.97944963E-07
 -2.12844663E-03  9.99726303E-04  6.23888327E-09  6.45285782E-09 -1.78666878E-04
 -2.31014935E-04 -2.31011725E-04 -1.02717414E-09  8.88969068E-08 -4.76351746E-11
 -5.10848391E-08 -2.11258740E-07  5.42372147E-08  1.55119952E-07 -2.13750508E-05
  7.97116285E-07 -1.90670878E-06  4.59372573E-06 -6.33612484E-04 -3.04553820E-05
 -1.60146824E-05 -2.72277527E-06  3.75426441E-04 -5.01951814E-08 -3.76914696E-05
  3.74967814E-05 -1.76106831E-07  2.42936723E-05  1.13149610E-08  5.34558463E-09
 -9.07743833E-11  1.38613418E-04 -7.18555037E-03  9.90780769E-01  1.61663869E-07
  4.26996265E-06 -2.15399889E-04  2.97005303E-02 -2.17841631E-07 -2.12529151E-06
  8.37210701E-05 -1.15439470E-02 -4.43615668E-06 -8.23727659E-07 -3.69456464E-05
  5.09428091E-03 -3.68623432E-08  1.98367035E-06 -1.98449104E-06 -2.71468738E-07
  3.74656028E-05  1.66010108E-11  1.55393395E-04 -1.29073730E-03  4.72731200E-03
  8.17683766E-05  1.56981461E-07 -1.33302115E-04 -7.70789519E-05  6.37976550E-04
 -2.34577872E-03 -4.04227486E-05 -7.07056102E-05 -9.68555215E-06 -7.84042147E-05
  6.48968473E-04 -2.38609217E-03 -4.11195237E-05  7.16585607E-05 -1.00544959E-05
 -3.03627489E-08 -1.44380516E-07 -2.53580634E-08 -3.92156937E-07  5.40550049E-05
 -4.00889819E-07 -2.24669801E-06  9.20048478E-07 -1.26737157E-04  4.26316017E-05
 -1.11826163E-05 -8.52980895E-06  1.17651915E-03 -5.84015349E-08 -7.02420049E-06
  6.96730441E-06  1.36988535E-07 -1.89026910E-05  2.26244109E-09 -6.22179032E-08
 -2.46259415E-07  1.46246658E-08  1.07333939E-07 -1.48190214E-05  2.83230531E-06
 -1.05231653E-06 -6.98846921E-07  9.64229539E-05 -3.25222741E-06  2.04280660E-06
  2.88702063E-06 -3.98519539E-04 -3.65209617E-08  3.52727150E-06 -3.81544168E-06
  9.75213432E-08 -1.34328528E-05 -1.08409036E-09 -6.72687992E-10 -2.59078509E-09
  5.74882107E-10 -2.16200531E-05 -1.56698983E-07  9.17314256E-09 -2.90659648E-08
 -6.31244811E-04 -4.57952962E-06 -5.86939576E-07 -2.89283979E-07  3.73003504E-04
  2.70513993E-06 -1.20414679E-09 -1.09854465E-08  8.62196688E-09  2.40764137E-05
  1.74692549E-07 -4.33054298E-05 -8.12130581E-12  1.54458590E-10 -1.06025302E-06
  9.90780833E-01  7.18555063E-03 -2.25460890E-09 -3.07249400E-08  2.97002742E-02
  2.15399214E-04  1.53270655E-09  5.70215292E-09 -1.15433037E-02 -8.37171801E-05
 -8.33059598E-08 -3.35369915E-08  5.09308063E-03  3.69373013E-05  2.92661322E-10
  2.25115975E-09  7.73331898E-10  3.74736161E-05  2.72021639E-07  2.27235556E-06
  7.66313192E-07 -6.35951761E-06  2.32252988E-05  4.03178367E-07  3.12212896E-05
 -5.83390018E-07 -1.35269996E-04  1.11845987E-03 -4.10173649E-03 -7.09016588E-05
 -9.22093829E-05 -7.14073905E-05  1.34503292E-04 -1.11216145E-03  4.07845137E-03
  7.05031303E-05 -9.18419650E-05  7.08824012E-05 -6.72894916E-10 -3.09347922E-09
  1.98714691E-10  5.40609168E-05  3.91943046E-07 -1.27578821E-09 -3.81245146E-08
 -1.27269184E-04 -9.22119101E-07  7.68197398E-07 -2.20754619E-07  1.17528831E-03
  8.52646227E-06 -1.07833450E-09 -2.51312116E-09  8.76922149E-10 -1.88293702E-05
 -1.36660531E-07 -8.08791581E-06 -8.27824214E-10 -3.49208565E-09  1.85674111E-10
 -1.48170140E-05 -1.07598926E-07  4.19170249E-08 -1.55664987E-08  9.64812106E-05
  7.00165933E-07 -3.91617311E-08  3.86032601E-08 -3.97514897E-04 -2.88615010E-06
 -5.76412965E-10 -7.24132511E-10 -2.68053042E-09 -1.34715468E-05 -9.75993500E-08
  4.23976819E-06 -2.67155812E-05 -1.32207599E-04  1.53873115E-04 -7.39684714E-10
 -6.15790376E-08 -3.31884198E-03 -4.21095718E-03  1.04033366E-08  5.04452484E-07
 -1.28985342E-01 -5.80117745E-02  5.53272883E-08  4.47817124E-06  1.39504754E-05
 -9.47547898E-05 -9.46762649E-05  3.25556623E-10 -7.35270576E-08 -4.87614314E-10
  5.81118170E-05 -4.47251660E-05  9.90683934E-01  2.06525982E-06 -1.38620780E-04
  4.45382870E-04  3.03941389E-02  6.32014374E-08 -4.16451565E-06 -1.70033431E-03
 -1.37879256E-02 -2.79731658E-08  1.65963547E-06 -1.17925673E-02  6.19205289E-04
 -1.03820421E-08 -4.96038333E-07  1.52118742E-04  3.28327292E-04  3.28340818E-04
 -6.99242186E-10 -9.03513184E-09  1.32751892E-10 -1.56654213E-04  4.32561244E-04
 -2.82057416E-03  1.19446429E-05 -1.52544182E-07  6.48649040E-05 -1.56714136E-04
  4.31978312E-04 -2.82186702E-03  1.24021668E-05 -5.59852994E-05 -3.25782486E-05
 -1.56712095E-04  4.31992808E-04 -2.82186506E-03  1.23949424E-05  5.61370812E-05
 -3.23188647E-05 -1.45545230E-04 -6.45611902E-04  4.92901145E-06  3.97425190E-10