RxCoord=-4.19909 DE=8.51                                                
Freq      RB3LYP                                                      6-31++G(d,p)        
Number of atoms                            I                7
Info1-9                                    I   N=           9
          16          16           0           0           0         100
           6          18        -502
Full Title                                 C   N=           2
RxCoord=-4.19909 DE=8.51
Route                                      C   N=           6
#p b3lyp 6-31++g(d,p) scf=verytight NoSymm freq=noraman int=
ultrafine   
Charge                                     I               -1
Multiplicity                               I                1
Number of electrons                        I               40
Number of alpha electrons                  I               20
Number of beta electrons                   I               20
Number of basis functions                  I               98
Number of independent functions            I               98
Number of point charges in /Mol/           I                0
Number of translation vectors              I                0
Atomic numbers                             I   N=           7
           6          17           1           1           1           6
           7
Nuclear charges                            R   N=           7
  6.00000000E+00  1.70000000E+01  1.00000000E+00  1.00000000E+00  1.00000000E+00
  6.00000000E+00  7.00000000E+00
Current cartesian coordinates              R   N=          21
  1.08916633E+00  9.44863062E-06 -3.34481524E-04 -4.29135071E+00  0.00000000E+00
  1.39839733E-04  4.05480424E-01  4.52778379E-03 -1.94053897E+00  4.06451744E-01
  1.67803333E+00  9.74382474E-01  4.06429067E-01 -1.68253088E+00  9.66557118E-01
  4.02706495E+00  1.88972612E-06 -3.72276047E-04  6.24441101E+00 -9.44863062E-06
  2.26767135E-04
Number of symbols in /Mol/                 I                0
Force Field                                I                0
Atom Types                                 C   N=           7
                                                            
                        
Int Atom Types                             I   N=           7
           0           0           0           0           0           0
           0
MM charges                                 R   N=           7
  0.00000000E+00  0.00000000E+00  0.00000000E+00  0.00000000E+00  0.00000000E+00
  0.00000000E+00  0.00000000E+00
Integer atomic weights                     I   N=           7
          12          35           1           1           1          12
          14
Real atomic weights                        R   N=           7
  1.20000000E+01  3.49688527E+01  1.00782504E+00  1.00782504E+00  1.00782504E+00
  1.20000000E+01  1.40030740E+01
Atom fragment info                         I   N=           7
           0           0           0           0           0           0
           0
Atom residue num                           I   N=           7
           0           0           0           0           0           0
           0
Nuclear spins                              I   N=           7
           0           3           1           1           1           0
           2
Nuclear ZEff                               R   N=           7
 -3.60000000E+00 -1.42400000E+01 -1.00000000E+00 -1.00000000E+00 -1.00000000E+00
 -3.60000000E+00 -4.55000000E+00
Nuclear ZNuc                               R   N=           7
  6.00000000E+00  1.70000000E+01  1.00000000E+00  1.00000000E+00  1.00000000E+00
  6.00000000E+00  7.00000000E+00
Nuclear QMom                               R   N=           7
  0.00000000E+00 -8.16500000E+00  0.00000000E+00  0.00000000E+00  0.00000000E+00
  0.00000000E+00  2.04400000E+00
Nuclear GFac                               R   N=           7
  0.00000000E+00  8.21874000E-01  2.79284600E+00  2.79284600E+00  2.79284600E+00
  0.00000000E+00  4.03761000E-01
MicOpt                                     I   N=           7
          -1          -1          -1          -1          -1          -1
          -1
Number of residues                         I                0
Number of secondary structures             I                0
Number of contracted shells                I               33
Number of primitive shells                 I               72
Pure/Cartesian d shells                    I                1
Pure/Cartesian f shells                    I                0
Highest angular momentum                   I                2
Largest degree of contraction              I                6
Shell types                                I   N=          33
           0          -1          -1          -1           2           0
          -1          -1          -1          -1           2           0
           0           0           1           0           0           0
           1           0           0           0           1           0
          -1          -1          -1           2           0          -1
          -1          -1           2
Number of primitives per shell             I   N=          33
           6           3           1           1           1           6
           6           3           1           1           1           3
           1           1           1           3           1           1
           1           3           1           1           1           6
           3           1           1           1           6           3
           1           1           1
Shell to atom map                          I   N=          33
           1           1           1           1           1           2
           2           2           2           2           2           3
           3           3           3           4           4           4
           4           5           5           5           5           6
           6           6           6           6           7           7
           7           7           7
Primitive exponents                        R   N=          72
  3.04752488E+03  4.57369518E+02  1.03948685E+02  2.92101553E+01  9.28666296E+00
  3.16392696E+00  7.86827235E+00  1.88128854E+00  5.44249258E-01  1.68714478E-01
  4.38000000E-02  8.00000000E-01  2.51801000E+04  3.78035000E+03  8.60474000E+02
  2.42145000E+02  7.73349000E+01  2.62470000E+01  4.91765000E+02  1.16984000E+02
  3.74153000E+01  1.37834000E+01  5.45215000E+00  2.22588000E+00  3.18649000E+00
  1.14427000E+00  4.20377000E-01  1.42657000E-01  4.83000000E-02  7.50000000E-01
  1.87311370E+01  2.82539436E+00  6.40121692E-01  1.61277759E-01  3.60000000E-02
  1.10000000E+00  1.87311370E+01  2.82539436E+00  6.40121692E-01  1.61277759E-01
  3.60000000E-02  1.10000000E+00  1.87311370E+01  2.82539436E+00  6.40121692E-01
  1.61277759E-01  3.60000000E-02  1.10000000E+00  3.04752488E+03  4.57369518E+02
  1.03948685E+02  2.92101553E+01  9.28666296E+00  3.16392696E+00  7.86827235E+00
  1.88128854E+00  5.44249258E-01  1.68714478E-01  4.38000000E-02  8.00000000E-01
  4.17351146E+03  6.27457911E+02  1.42902093E+02  4.02343293E+01  1.28202129E+01
  4.39043701E+00  1.16263619E+01  2.71627981E+00  7.72218397E-01  2.12031498E-01
  6.39000000E-02  8.00000000E-01
Contraction coefficients                   R   N=          72
  1.83473713E-03  1.40373228E-02  6.88426223E-02  2.32184443E-01  4.67941348E-01
  3.62311985E-01 -1.19332420E-01 -1.60854152E-01  1.14345644E+00  1.00000000E+00
  1.00000000E+00  1.00000000E+00  1.83295985E-03  1.40341988E-02  6.90973943E-02
  2.37451980E-01  4.83033960E-01  3.39855972E-01 -2.29739142E-03 -3.07137189E-02
 -1.12528069E-01  4.50163278E-02  5.89353363E-01  4.65206287E-01 -2.51828028E-01
  6.15892514E-02  1.06018433E+00  1.00000000E+00  1.00000000E+00  1.00000000E+00
  3.34946043E-02  2.34726953E-01  8.13757326E-01  1.00000000E+00  1.00000000E+00
  1.00000000E+00  3.34946043E-02  2.34726953E-01  8.13757326E-01  1.00000000E+00
  1.00000000E+00  1.00000000E+00  3.34946043E-02  2.34726953E-01  8.13757326E-01
  1.00000000E+00  1.00000000E+00  1.00000000E+00  1.83473713E-03  1.40373228E-02
  6.88426223E-02  2.32184443E-01  4.67941348E-01  3.62311985E-01 -1.19332420E-01
 -1.60854152E-01  1.14345644E+00  1.00000000E+00  1.00000000E+00  1.00000000E+00
  1.83477216E-03  1.39946270E-02  6.85865518E-02  2.32240873E-01  4.69069948E-01
  3.60455199E-01 -1.14961182E-01 -1.69117479E-01  1.14585195E+00  1.00000000E+00
  1.00000000E+00  1.00000000E+00
P(S=P) Contraction coefficients            R   N=          72
  0.00000000E+00  0.00000000E+00  0.00000000E+00  0.00000000E+00  0.00000000E+00
  0.00000000E+00  6.89990666E-02  3.16423961E-01  7.44308291E-01  1.00000000E+00
  1.00000000E+00  0.00000000E+00  0.00000000E+00  0.00000000E+00  0.00000000E+00
  0.00000000E+00  0.00000000E+00  0.00000000E+00  3.98940088E-03  3.03177067E-02
  1.29880029E-01  3.27951072E-01  4.53527100E-01  2.52154056E-01 -1.42993147E-02
  3.23572333E-01  7.43507765E-01  1.00000000E+00  1.00000000E+00  0.00000000E+00
  0.00000000E+00  0.00000000E+00  0.00000000E+00  0.00000000E+00  0.00000000E+00
  0.00000000E+00  0.00000000E+00  0.00000000E+00  0.00000000E+00  0.00000000E+00
  0.00000000E+00  0.00000000E+00  0.00000000E+00  0.00000000E+00  0.00000000E+00
  0.00000000E+00  0.00000000E+00  0.00000000E+00  0.00000000E+00  0.00000000E+00
  0.00000000E+00  0.00000000E+00  0.00000000E+00  0.00000000E+00  6.89990666E-02
  3.16423961E-01  7.44308291E-01  1.00000000E+00  1.00000000E+00  0.00000000E+00
  0.00000000E+00  0.00000000E+00  0.00000000E+00  0.00000000E+00  0.00000000E+00
  0.00000000E+00  6.75797439E-02  3.23907296E-01  7.40895140E-01  1.00000000E+00
  1.00000000E+00  0.00000000E+00
Coordinates of each shell                  R   N=          99
  1.08916633E+00  9.44863062E-06 -3.34481524E-04  1.08916633E+00  9.44863062E-06
 -3.34481524E-04  1.08916633E+00  9.44863062E-06 -3.34481524E-04  1.08916633E+00
  9.44863062E-06 -3.34481524E-04  1.08916633E+00  9.44863062E-06 -3.34481524E-04
 -4.29135071E+00  0.00000000E+00  1.39839733E-04 -4.29135071E+00  0.00000000E+00
  1.39839733E-04 -4.29135071E+00  0.00000000E+00  1.39839733E-04 -4.29135071E+00
  0.00000000E+00  1.39839733E-04 -4.29135071E+00  0.00000000E+00  1.39839733E-04
 -4.29135071E+00  0.00000000E+00  1.39839733E-04  4.05480424E-01  4.52778379E-03
 -1.94053897E+00  4.05480424E-01  4.52778379E-03 -1.94053897E+00  4.05480424E-01
  4.52778379E-03 -1.94053897E+00  4.05480424E-01  4.52778379E-03 -1.94053897E+00
  4.06451744E-01  1.67803333E+00  9.74382474E-01  4.06451744E-01  1.67803333E+00
  9.74382474E-01  4.06451744E-01  1.67803333E+00  9.74382474E-01  4.06451744E-01
  1.67803333E+00  9.74382474E-01  4.06429067E-01 -1.68253088E+00  9.66557118E-01
  4.06429067E-01 -1.68253088E+00  9.66557118E-01  4.06429067E-01 -1.68253088E+00
  9.66557118E-01  4.06429067E-01 -1.68253088E+00  9.66557118E-01  4.02706495E+00
  1.88972612E-06 -3.72276047E-04  4.02706495E+00  1.88972612E-06 -3.72276047E-04
  4.02706495E+00  1.88972612E-06 -3.72276047E-04  4.02706495E+00  1.88972612E-06
 -3.72276047E-04  4.02706495E+00  1.88972612E-06 -3.72276047E-04  6.24441101E+00
 -9.44863062E-06  2.26767135E-04  6.24441101E+00 -9.44863062E-06  2.26767135E-04
  6.24441101E+00 -9.44863062E-06  2.26767135E-04  6.24441101E+00 -9.44863062E-06
  2.26767135E-04  6.24441101E+00 -9.44863062E-06  2.26767135E-04
Num ILSW                                   I              100
ILSW                                       I   N=         100
           0           1           0           0           2           0
           0           0           0           0         402          -1
           5           0           0           0           2           0
           0           0           0           0           1           0
           1           1           0           0           0           0
           0           0      100000           0          -1           0
           0           0           0           0           0           0
           0           0           0           1           0           0
           0 -2000000000           1           0           0           0
           0           0           4          52           0           0
           0           0           5           0           0           0
           0           0           0           7           0           1
           0           0           0           0           0           0
           0           0           0           0           0           0
           0           0           0           0           0           0
           0           0           0           0           0           0
           0           0           0           0
Num RLSW                                   I               52
RLSW                                       R   N=          52
  8.00000000E-01  7.20000000E-01  1.00000000E+00  8.10000000E-01  2.00000000E-01
  0.00000000E+00  0.00000000E+00  1.00000000E+00  0.00000000E+00  0.00000000E+00
  0.00000000E+00  0.00000000E+00  1.00000000E+00  0.00000000E+00  0.00000000E+00
  0.00000000E+00  0.00000000E+00  1.00000000E+00  0.00000000E+00  0.00000000E+00
  0.00000000E+00  0.00000000E+00  1.00000000E+00  0.00000000E+00  0.00000000E+00
  0.00000000E+00  0.00000000E+00  1.00000000E+00  0.00000000E+00  0.00000000E+00
  0.00000000E+00  0.00000000E+00  1.00000000E+00  0.00000000E+00  0.00000000E+00
  0.00000000E+00  0.00000000E+00  0.00000000E+00  1.00000000E+00  1.00000000E+00
  0.00000000E+00  1.00000000E+00  0.00000000E+00  0.00000000E+00  0.00000000E+00
  0.00000000E+00  0.00000000E+00  0.00000000E+00  0.00000000E+00  0.00000000E+00
  0.00000000E+00  0.00000000E+00
MxBond                                     I                4
NBond                                      I   N=           7
           4           0           1           1           1           2
           1
IBond                                      I   N=          28
           3           4           5           6           0           0
           0           0           1           0           0           0
           1           0           0           0           1           0
           0           0           1           7           0           0
           6           0           0           0
RBond                                      R   N=          28
  1.00000000E+00  1.00000000E+00  1.00000000E+00  1.00000000E+00  0.00000000E+00
  0.00000000E+00  0.00000000E+00  0.00000000E+00  1.00000000E+00  0.00000000E+00
  0.00000000E+00  0.00000000E+00  1.00000000E+00  0.00000000E+00  0.00000000E+00
  0.00000000E+00  1.00000000E+00  0.00000000E+00  0.00000000E+00  0.00000000E+00
  1.00000000E+00  3.00000000E+00  0.00000000E+00  0.00000000E+00  3.00000000E+00
  0.00000000E+00  0.00000000E+00  0.00000000E+00
Virial Ratio                               R      2.004861723633144E+00
SCF Energy                                 R     -5.930514512680666E+02
Total Energy                               R     -5.930514512680666E+02
RMS Force                                  R      1.238674315157160E-02
RMS Density                                R      1.748102135514636E-09
NImag                                      I                0
Job Status                                 I                1
Nuclear derivative order                   I                2
External E-field                           R   N=          35
  0.00000000E+00  0.00000000E+00  0.00000000E+00  0.00000000E+00  0.00000000E+00
  0.00000000E+00  0.00000000E+00  0.00000000E+00  0.00000000E+00  0.00000000E+00
  0.00000000E+00  0.00000000E+00  0.00000000E+00  0.00000000E+00  0.00000000E+00
  0.00000000E+00  0.00000000E+00  0.00000000E+00  0.00000000E+00  0.00000000E+00
  0.00000000E+00  0.00000000E+00  0.00000000E+00  0.00000000E+00  0.00000000E+00
  0.00000000E+00  0.00000000E+00  0.00000000E+00  0.00000000E+00  0.00000000E+00
  0.00000000E+00  0.00000000E+00  0.00000000E+00  0.00000000E+00  0.00000000E+00
IOpCl                                      I                0
IROHF                                      I                0
Alpha Orbital Energies                     R   N=          98
 -1.01256308E+02 -1.42222320E+01 -1.01191742E+01 -1.00900305E+01 -9.17054841E+00
 -6.92838458E+00 -6.92838435E+00 -6.92801195E+00 -7.82626880E-01 -6.14669936E-01
 -5.11982204E-01 -3.59034185E-01 -3.07972365E-01 -3.07927007E-01 -2.48934157E-01
 -2.09595162E-01 -2.09580267E-01 -5.71839169E-02 -5.71826408E-02 -5.51832277E-02
  1.05938641E-01  1.45080263E-01  1.45085679E-01  1.45952610E-01  1.49759926E-01
  1.49772516E-01  2.03838511E-01  2.09681444E-01  2.09685024E-01  2.16756999E-01
  2.39265917E-01  2.39297768E-01  2.57261548E-01  2.61262185E-01  2.61264455E-01
  2.87744399E-01  3.20757075E-01  3.41345535E-01  3.41350146E-01  3.49934809E-01
  3.50006104E-01  3.56710671E-01  3.93113732E-01  4.16754318E-01  4.87131715E-01
  7.03694632E-01  7.90897990E-01  7.90902861E-01  8.43520092E-01  8.43612024E-01
  8.61460961E-01  8.61463735E-01  8.65511978E-01  8.93164140E-01  9.78733751E-01
  1.02592992E+00  1.03281397E+00  1.03284949E+00  1.10065857E+00  1.12457792E+00
  1.12460938E+00  1.15011078E+00  1.15011890E+00  1.16986986E+00  1.16992352E+00
  1.23442979E+00  1.26485632E+00  1.34440427E+00  1.47526893E+00  1.47527770E+00
  1.53243135E+00  1.64308240E+00  1.64308346E+00  1.83531221E+00  1.83542665E+00
  1.89708475E+00  2.06416879E+00  2.06418084E+00  2.15859402E+00  2.23701005E+00
  2.24247150E+00  2.24263787E+00  2.41038656E+00  2.41052141E+00  2.79700199E+00
  2.79727744E+00  2.83308440E+00  3.00964180E+00  3.04702480E+00  3.04703945E+00
  3.25115087E+00  3.45718371E+00  3.55792282E+00  3.55796811E+00  4.23637543E+00
  4.41328106E+00  4.58866231E+00  4.77250679E+00
Alpha MO coefficients                      R   N=        9604
 -6.87361837E-07  2.71840988E-05  1.69816817E-05  2.00641430E-10  7.21176045E-10
 -1.75551856E-04 -2.26900885E-04  5.32025053E-11  5.96690899E-08  1.24640331E-03
  6.32765457E-04 -5.27287399E-10  3.71985944E-09 -3.83796021E-05 -4.63066941E-06
 -4.63917483E-06  5.96480386E-11  2.11001031E-10  8.11490565E-11  9.95997705E-01
  1.51444325E-02  1.94328311E-06 -2.80236452E-11 -5.56963166E-11 -2.10637031E-02
 -3.78038150E-06  6.98740476E-11  1.37028095E-09  1.94074287E-03 -6.74214014E-06
 -1.93541484E-10 -1.19471550E-09 -2.08420512E-04  2.43975533E-05  4.21642372E-10
 -1.14621806E-08  7.50452915E-03  7.51432062E-03  7.51432072E-03 -2.85541389E-11
  4.69270821E-10 -1.15978959E-12 -7.60191281E-06 -4.90313521E-05  8.15493953E-05
  2.20991182E-05  2.21891224E-08 -9.50426694E-06 -7.58704308E-06 -4.90844523E-05
  8.15350404E-05  2.20891696E-05  8.22491450E-06  4.77327427E-06 -7.58800668E-06
 -4.90835624E-05  8.15361699E-05  2.20894439E-05 -8.24686846E-06  4.73488827E-06
 -2.46559022E-06 -1.90301045E-05  4.18692947E-06 -4.65264261E-11  8.72073442E-10
 -9.76338642E-05 -4.14361889E-04  1.84442376E-09 -5.79396124E-08 -1.72196595E-03
  4.03739714E-04 -1.53992315E-09 -5.09624021E-08  8.89415048E-06 -2.41321422E-06
 -2.41403138E-06 -4.12039778E-12 -4.31285059E-09  1.50502682E-11 -5.17284973E-06
 -2.41956199E-05  3.50617514E-06 -2.63558500E-11  5.25960235E-09  3.45919070E-04
 -1.37948334E-04  7.66683900E-10 -6.26957500E-08  2.78673996E-04 -9.68135175E-05
  6.22715796E-10 -3.36836681E-10 -4.51748721E-06 -1.01161952E-05 -1.01162463E-05
 -3.67503660E-11  4.28731491E-09 -1.98493146E-13 -5.41531685E-08 -2.24558250E-04
  1.57491602E-04 -5.24720763E-10 -1.96132085E-08  8.84770371E-04  6.17418863E-04
 -5.79493711E-10 -7.62326315E-08  9.99984755E-03  3.37549443E-03 -4.10464976E-09
 -1.54074032E-07  3.57529076E-04  1.55668520E-05  1.55942209E-05 -4.73462573E-10
 -4.31976980E-08 -1.00924818E-10 -5.48618003E-08 -4.66801575E-06  3.54405534E-06
  2.02197572E-11 -1.05428486E-09 -5.57630773E-06 -2.51612625E-05 -1.18260894E-10
  6.47826174E-09  1.21086099E-05  1.07351311E-04  3.61653655E-10 -2.50564119E-08
  6.81615959E-04  1.80846959E-04  7.67729714E-10  1.38886301E-08  7.03606237E-06
 -1.61211339E-05 -1.61203116E-05  6.87032841E-11 -2.70882541E-09 -1.10572827E-11
  1.88175729E-06 -7.59093549E-05 -1.30413875E-04 -7.77445401E-06 -8.67869178E-09
  3.70709124E-06  1.89525521E-06 -7.58653232E-05 -1.30648289E-04 -7.76409144E-06
 -3.22836031E-06 -1.86981665E-06  1.89549281E-06 -7.58647706E-05 -1.30649611E-04
 -7.76387771E-06  3.23658853E-06 -1.85456389E-06  8.42267343E-05  3.50309122E-04
 -5.05668154E-04  2.54642185E-09 -1.29328695E-07  1.54585212E-04  1.23641549E-03
 -3.89561304E-09  5.24854569E-08 -8.25423602E-03  4.49113319E-03 -1.78383001E-08
  3.19818844E-07 -1.20916725E-03  1.47277374E-05  1.47276172E-05  6.55459237E-09
 -3.06970854E-07  1.94903373E-11  9.92767092E-01  3.45961903E-02 -1.98377154E-03
  1.09838904E-08 -5.81800674E-07  3.55411294E-03  8.72855716E-04 -5.60268485E-09
  3.17011447E-07 -3.22993775E-03 -5.13432584E-04  2.45302614E-09  4.26044988E-08
 -7.41084280E-03 -8.33106237E-03 -8.33106569E-03 -5.43826371E-09  2.88432300E-07
  9.53472587E-12  2.94242398E-03  7.99587991E-05 -2.45651203E-04  2.76761325E-10
 -5.35008806E-08  5.74473892E-03  2.42408111E-03 -9.10161021E-09  3.44799327E-07
  7.70466968E-02  3.48420072E-02 -4.42275489E-08 -1.25156965E-06 -7.92923631E-04
 -1.54901117E-04 -1.54773678E-04  1.85146674E-09 -6.69871648E-09 -9.93839660E-10
 -2.93468768E-07 -9.51757300E-06  2.70260022E-05  1.31815758E-10 -4.52936240E-09
 -1.80021754E-05 -1.72104033E-04 -7.47587413E-10  2.87785222E-08 -1.95929062E-04
  7.39006321E-04  1.96888375E-09 -1.10350132E-07  8.70855226E-03  2.89302253E-03
  1.69254312E-08 -4.73332618E-07  3.68709322E-05 -4.51307966E-05 -4.51261779E-05
  5.30912554E-10 -2.17200101E-08 -8.22925700E-11 -1.22855617E-04 -6.42730155E-04
  6.97924566E-04  8.08044723E-07 -7.96749637E-09  3.41536869E-06 -1.22856308E-04
 -6.43047999E-04  6.98642500E-04  1.06971358E-06 -2.90838707E-06 -1.72032419E-06
 -1.22856738E-04 -6.43051243E-04  6.98642767E-04  1.06558588E-06  2.91560815E-06
 -1.70634565E-06  9.92843505E-01  4.99826037E-02  4.16005358E-04 -2.79900093E-09
  3.75083303E-07 -1.06760095E-02  6.32219433E-03 -1.88723847E-08  8.07185012E-08
 -9.21136581E-02  2.61925333E-02 -9.65975968E-08 -1.27942564E-06 -8.12030391E-03
 -9.72017086E-03 -9.72017150E-03 -8.71166976E-09  3.97770773E-07  9.77823654E-11
 -4.13806630E-04  3.93087241E-04  2.59713619E-04 -9.67043829E-10  7.78977823E-08
 -6.93493098E-03  2.78740074E-03 -1.99720858E-08  1.11288936E-06  9.59575781E-03
 -6.86310362E-03  3.72679808E-08 -2.06119603E-07  3.01541425E-05  3.33459750E-04
  3.33460173E-04  3.03361000E-09 -2.31579803E-07 -6.83791718E-12  9.93080503E-01
  5.02746922E-02  6.68818720E-04  2.60379565E-09  3.62594155E-07 -2.30866745E-02
 -4.22615615E-03  4.42677359E-09 -1.77406346E-06  4.08787744E-02  2.14396706E-02
 -1.15637457E-08 -2.17245548E-06 -9.08035768E-03 -8.71910121E-03 -8.71892105E-03
  8.85674408E-10  1.59006474E-07  1.55451587E-09  1.54225363E-06  2.15448291E-05
  9.63456412E-08  2.22444481E-10  6.42727662E-09  7.52863460E-05 -1.39402819E-05
 -1.41662864E-09 -4.05464141E-08 -4.70910451E-04  1.38998631E-04  4.63364994E-09
  1.53503656E-07  6.18751762E-03  2.10432831E-03  1.11545498E-08 -3.60743358E-07
  3.85292282E-05  3.33519542E-05  3.33340539E-05  1.21258442E-09  2.47236234E-08
  3.59520105E-10 -2.77690860E-05  3.18640819E-03  3.67501191E-04  2.68788247E-05
  3.00623716E-07 -1.28653008E-04 -2.74891652E-05  3.18807532E-03  3.69872463E-04
  2.68156568E-05  1.11233821E-04  6.46655024E-05 -2.74891896E-05  3.18806515E-03
  3.69882843E-04  2.68188751E-05 -1.11533057E-04  6.41477119E-05 -3.16570948E-03
 -1.73618831E-04  1.10853629E-04  8.31777473E-10  2.51838519E-08  1.52139366E-03
 -9.27819526E-03  2.67777037E-08 -6.45355526E-07 -5.13462964E-02  1.34294051E-02
 -6.55118462E-08 -5.53067484E-07 -8.02571026E-04 -3.07957896E-05 -3.07685722E-05
  3.70134822E-09 -1.09244183E-07 -5.99941767E-10 -3.04224728E-05 -1.12019452E-04
 -2.52370672E-04  9.58334878E-10 -2.00715580E-08  5.84706641E-03 -2.08048417E-03
  1.73565730E-08 -1.36468026E-06  5.21943340E-03 -2.58648209E-03  2.26992276E-08
  1.12088350E-07  1.66425200E-04 -9.18376128E-05 -9.18333917E-05 -3.43057501E-09
  2.57228500E-07  2.10803657E-11  5.02072736E-05  2.32226491E-04  2.71570243E-04
 -5.60566772E-10 -1.03797392E-07 -4.16283702E-03 -4.25611899E-03  1.26941047E-08
  1.03652176E-06  9.12584698E-03  9.29638521E-03 -2.60252774E-10 -3.72659984E-07
 -2.49323299E-05  9.11249945E-05  9.11097348E-05  1.47430877E-10 -3.77527484E-08
 -1.06842395E-10 -2.84632933E-01  1.02269484E+00  5.31670490E-05 -1.51290959E-09
 -5.38675740E-09  7.53151275E-02  5.04177558E-04  4.00745345E-10 -5.29570521E-08
 -2.20690390E-02 -1.62890955E-03 -9.61867317E-10  1.44334595E-07  1.52482946E-02
  5.15660076E-03  7.08217773E-10 -5.02651110E-07 -1.56426322E-02 -1.55358433E-02
 -1.55358184E-02 -4.72056670E-10  1.30006015E-08 -1.91863785E-12 -6.71198634E-05
 -3.52272702E-04 -2.61518592E-03  6.52110562E-05  3.30398935E-08 -1.45711997E-05
 -6.70691178E-05 -3.53312446E-04 -2.61465951E-03  6.53300734E-05  1.26799948E-05
  7.30726901E-06 -6.70726958E-05 -3.53287707E-04 -2.61474539E-03  6.53235191E-05
 -1.27125217E-05  7.24634368E-06 -4.36096950E-05 -2.58132059E-04 -1.92325523E-05
 -3.11302358E-11 -4.35713796E-09 -1.36627463E-04 -5.89825648E-03  2.16923069E-08
 -7.14053153E-07 -7.60193293E-03  1.57019524E-03 -3.59443868E-08  9.29530499E-07
  5.71296052E-05 -4.24537571E-05 -4.24657910E-05  7.50846448E-11 -3.43675019E-08
  1.93753636E-10 -1.12434516E-04 -4.47372962E-04  1.11947730E-05 -1.60791742E-10
  4.24787594E-08  5.73401197E-03 -1.73305262E-03  1.07098175E-08 -7.97092089E-07
 -2.07374574E-03  8.97796664E-04  7.71146932E-09 -1.82336519E-07 -1.69661060E-04
 -2.26831033E-04 -2.26829566E-04 -7.97392146E-10  6.89585638E-08 -4.71995823E-11
 -3.57460509E-08 -1.64731159E-07  4.46774580E-08  2.01729829E-07 -2.25698507E-05
  8.52541022E-07 -9.58149402E-07  5.48794879E-06 -6.13596689E-04 -1.36038784E-05
 -8.60884411E-06 -3.43151782E-06  3.84058791E-04 -2.76385974E-09 -3.65838979E-05
  3.64416630E-05 -1.54111133E-07  1.72271756E-05  8.28089128E-08  8.18324861E-09
 -1.05336448E-08  2.01878558E-04 -8.86331297E-03  9.90765085E-01  1.51629039E-07
  6.14095095E-06 -2.65770041E-04  2.97085181E-02 -2.65737429E-07 -2.70035451E-06
  1.03398740E-04 -1.15581191E-02 -2.50594343E-06  1.36218161E-07 -4.57719245E-05
  5.11631657E-03 -1.29595437E-08  1.81156412E-06 -1.82154476E-06 -3.48346709E-07
  3.89721477E-05 -3.53485605E-09  1.53481763E-04 -1.29207335E-03  4.74436150E-03
  9.34773517E-05  9.20083894E-08 -1.32459205E-04 -7.59075009E-05  6.37597394E-04
 -2.34664379E-03 -4.61604526E-05 -7.08595006E-05 -8.29398833E-06 -7.76673099E-05
  6.52402856E-04 -2.40104194E-03 -4.72327769E-05  7.21065161E-05 -8.90642572E-06
 -8.45368783E-09 -3.89826618E-08 -2.91483841E-08 -4.83806888E-07  5.40857829E-05
 -1.17414372E-07 -6.55018525E-07  1.23157825E-06 -1.37684743E-04  2.17462512E-05
 -5.12642395E-06 -1.03672522E-05  1.15899656E-03 -2.23604333E-08 -6.41588081E-06
  6.40547026E-06  1.67614491E-07 -1.87462905E-05  1.47321135E-08 -3.09039231E-08
 -1.12881566E-07  6.48534164E-09  1.34620717E-07 -1.50641734E-05  1.14279033E-06
 -3.77266337E-07 -8.88918974E-07  9.94373611E-05 -2.47555620E-06  1.02376052E-06
  3.52507168E-06 -3.94272783E-04 -2.41511633E-08  3.53775189E-06 -3.69093367E-06
  1.25955260E-07 -1.40761585E-05 -8.15368468E-09 -1.24351732E-09 -5.31928950E-09
  1.21905590E-09 -2.27462925E-05 -2.03666084E-07  3.90777108E-08 -2.76662123E-08
 -6.11872823E-04 -5.47498907E-06 -1.34483168E-07 -1.24845253E-07  3.82202200E-04
  3.42339979E-06 -2.16457513E-09 -7.30096883E-08  6.97056391E-08  1.70671007E-05
  1.52682297E-07 -4.20862238E-05 -6.92723679E-10  2.24149697E-09 -3.41566325E-06
  9.90765145E-01  8.86331399E-03 -2.83941320E-09 -1.03170535E-07  2.97083374E-02
  2.65768876E-04  5.55602480E-09  3.74504314E-08 -1.15576783E-02 -1.03393519E-04
 -6.38401365E-08 -3.73972581E-08  5.11553424E-03  4.57614816E-05 -4.77434475E-10
  4.18878410E-09 -3.22382289E-09  3.89753269E-05  3.48966098E-07  2.07385247E-06
  1.01727441E-06 -8.57104056E-06  3.13548607E-05  6.19999078E-07  3.26604317E-05
 -8.01574308E-07 -1.33670619E-04  1.12165573E-03 -4.12203281E-03 -8.12096528E-05
 -9.13888910E-05 -7.17047299E-05  1.32653029E-04 -1.11318870E-03  4.09062002E-03
  8.05971308E-05 -9.07789685E-05  7.11690018E-05 -1.48224334E-10 -8.46701856E-10
  1.88594448E-10  5.40944340E-05  4.83965283E-07 -1.46649868E-08 -2.38863848E-08
 -1.38071950E-04 -1.23533197E-06  3.02093393E-07 -8.11656065E-08  1.15829951E-03
  1.03630887E-05 -4.36477900E-10 -1.23956009E-08  1.24213730E-08 -1.86885632E-05
 -1.67274842E-07 -7.41697783E-06 -7.95175986E-10 -3.14907966E-09  1.38527516E-10
 -1.50659417E-05 -1.34921192E-07  3.42870892E-08 -1.20194416E-08  9.94910296E-05
  8.90676817E-07 -2.84940839E-08  1.96305709E-08 -3.93620358E-04 -3.52335688E-06
 -8.39438693E-10  5.39037614E-09 -8.83616603E-09 -1.41041200E-05 -1.26143112E-07
  4.17297170E-06 -3.02015728E-05 -1.89868880E-04  1.19599507E-04 -1.75294855E-09
 -1.77274364E-08 -2.46413949E-03 -3.66756078E-03  1.14260501E-08  1.05548714E-08
 -1.21288110E-01 -5.83540282E-02  6.61910970E-08  2.63102142E-06  7.74971505E-05
 -9.72741496E-05 -9.72094808E-05 -1.08504482E-10 -8.24777579E-08 -9.29879979E-10
  6.04589883E-05 -5.67866262E-05  9.90679418E-01  5.22156085E-06 -2.01844486E-04
  4.46155182E-04  3.04108550E-02  1.57955559E-07 -6.11628645E-06 -1.62566380E-03
 -1.38279522E-02 -6.51381146E-08  2.54806404E-06 -1.30816683E-02  2.11346152E-04
 -2.87512774E-09 -1.30423918E-07  1.48131538E-04  3.20574844E-04  3.20588441E-04
 -9.63323659E-10  2.14561446E-08  1.17013800E-10 -1.48606432E-04  5.20410295E-04
 -2.87572078E-03 -1.31001145E-05 -1.82728122E-07  7.78630312E-05 -1.48605670E-04
  5.20262615E-04 -2.87635441E-03 -1.28501331E-05 -6.72854402E-05 -3.90907132E-05
 -1.48600561E-04  5.20269574E-04 -2.87632258E-03 -1.28617270E-05  6.74668146E-05
 -3.87786859E-05 -1.39704885E-04 -6.01147589E-04  4.64528557E-06  4.13856218E-11