 Entering Gaussian System, Link 0=g16
 Initial command:
 /usr/local/g16_AVX//g16/l1.exe "/scratch/alanqf/0059-54501.ixchel.mda.cinvestav.mx/Gau-34060.inp" -scrdir="/scratch/alanqf/0059-54501.ixchel.mda.cinvestav.mx/"
 Entering Link 1 = /usr/local/g16_AVX//g16/l1.exe PID=     34061.
  
 Copyright (c) 1988-2017, Gaussian, Inc.  All Rights Reserved.
  
 This is part of the Gaussian(R) 16 program.  It is based on
 the Gaussian(R) 09 system (copyright 2009, Gaussian, Inc.),
 the Gaussian(R) 03 system (copyright 2003, Gaussian, Inc.),
 the Gaussian(R) 98 system (copyright 1998, Gaussian, Inc.),
 the Gaussian(R) 94 system (copyright 1995, Gaussian, Inc.),
 the Gaussian 92(TM) system (copyright 1992, Gaussian, Inc.),
 the Gaussian 90(TM) system (copyright 1990, Gaussian, Inc.),
 the Gaussian 88(TM) system (copyright 1988, Gaussian, Inc.),
 the Gaussian 86(TM) system (copyright 1986, Carnegie Mellon
 University), and the Gaussian 82(TM) system (copyright 1983,
 Carnegie Mellon University). Gaussian is a federally registered
 trademark of Gaussian, Inc.
  
 This software contains proprietary and confidential information,
 including trade secrets, belonging to Gaussian, Inc.
  
 This software is provided under written license and may be
 used, copied, transmitted, or stored only in accord with that
 written license.
  
 The following legend is applicable only to US Government
 contracts under FAR:
  
                    RESTRICTED RIGHTS LEGEND
  
 Use, reproduction and disclosure by the US Government is
 subject to restrictions as set forth in subparagraphs (a)
 and (c) of the Commercial Computer Software - Restricted
 Rights clause in FAR 52.227-19.
  
 Gaussian, Inc.
 340 Quinnipiac St., Bldg. 40, Wallingford CT 06492
  
  
 ---------------------------------------------------------------
 Warning -- This program may not be used in any manner that
 competes with the business of Gaussian, Inc. or will provide
 assistance to any competitor of Gaussian, Inc.  The licensee
 of this program is prohibited from giving any competitor of
 Gaussian, Inc. access to this program.  By using this program,
 the user acknowledges that Gaussian, Inc. is engaged in the
 business of creating and licensing software in the field of
 computational chemistry and represents and warrants to the
 licensee that it is not a competitor of Gaussian, Inc. and that
 it will not use this program in any manner prohibited above.
 ---------------------------------------------------------------
  

 Cite this work as:
 Gaussian 16, Revision B.01,
 M. J. Frisch, G. W. Trucks, H. B. Schlegel, G. E. Scuseria, 
 M. A. Robb, J. R. Cheeseman, G. Scalmani, V. Barone, 
 G. A. Petersson, H. Nakatsuji, X. Li, M. Caricato, A. V. Marenich, 
 J. Bloino, B. G. Janesko, R. Gomperts, B. Mennucci, H. P. Hratchian, 
 J. V. Ortiz, A. F. Izmaylov, J. L. Sonnenberg, D. Williams-Young, 
 F. Ding, F. Lipparini, F. Egidi, J. Goings, B. Peng, A. Petrone, 
 T. Henderson, D. Ranasinghe, V. G. Zakrzewski, J. Gao, N. Rega, 
 G. Zheng, W. Liang, M. Hada, M. Ehara, K. Toyota, R. Fukuda, 
 J. Hasegawa, M. Ishida, T. Nakajima, Y. Honda, O. Kitao, H. Nakai, 
 T. Vreven, K. Throssell, J. A. Montgomery, Jr., J. E. Peralta, 
 F. Ogliaro, M. J. Bearpark, J. J. Heyd, E. N. Brothers, K. N. Kudin, 
 V. N. Staroverov, T. A. Keith, R. Kobayashi, J. Normand, 
 K. Raghavachari, A. P. Rendell, J. C. Burant, S. S. Iyengar, 
 J. Tomasi, M. Cossi, J. M. Millam, M. Klene, C. Adamo, R. Cammi, 
 J. W. Ochterski, R. L. Martin, K. Morokuma, O. Farkas, 
 J. B. Foresman, and D. J. Fox, Gaussian, Inc., Wallingford CT, 2016.
 
 ******************************************
 Gaussian 16:  ES64L-G16RevB.01 20-Dec-2017
                13-Oct-2024 
 ******************************************
 %NProcShared=26
 Will use up to   26 processors via shared memory.
 %MEM=20GB
 %chk=CHKfiles/0059.chk
 ---------------------------------------------------------------------
 #p b3lyp 6-31++g(d,p) scf=verytight NoSymm freq=noraman int=ultrafine
 ---------------------------------------------------------------------
 1/10=4,30=1,38=1/1,3;
 2/12=2,15=1,17=6,18=5,40=1/2;
 3/5=1,6=6,7=1111,11=2,25=1,30=1,71=2,74=-5,75=-5,140=1/1,2,3;
 4//1;
 5/5=2,17=3,38=5,98=1/2;
 8/6=4,10=90,11=11/1;
 11/6=1,8=1,9=11,15=111,16=1,31=1/1,2,10;
 10/6=1,31=1/2;
 6/7=2,8=2,9=2,10=2,28=1/1;
 7/8=1,10=1,25=1,30=1/1,2,3,16;
 1/10=4,30=1/3;
 99//99;
 Leave Link    1 at Sun Oct 13 09:49:07 2024, MaxMem=  2684354560 cpu:               1.2 elap:               0.1
 (Enter /usr/local/g16_AVX//g16/l101.exe)
 ------------------------
 RxCoord=-4.19909 DE=8.51
 ------------------------
 Symbolic Z-matrix:
 Charge = -1 Multiplicity = 1
 C                     0.57636   0.00001  -0.00018 
 Cl                   -2.27089   0.        0.00007 
 H                     0.21457   0.0024   -1.02689 
 H                     0.21509   0.88798   0.51562 
 H                     0.21507  -0.89036   0.51148 
 C                     2.13103   0.       -0.0002 
 N                     3.3044   -0.00001   0.00012 
 
 ITRead=  0  0  0  0  0  0  0
 MicOpt= -1 -1 -1 -1 -1 -1 -1
 NAtoms=      7 NQM=        7 NQMF=       0 NMMI=      0 NMMIF=      0
                NMic=       0 NMicF=      0.
                    Isotopes and Nuclear Properties:
 (Nuclear quadrupole moments (NQMom) in fm**2, nuclear magnetic moments (NMagM)
  in nuclear magnetons)

  Atom         1           2           3           4           5           6           7
 IAtWgt=          12          35           1           1           1          12          14
 AtmWgt=  12.0000000  34.9688527   1.0078250   1.0078250   1.0078250  12.0000000  14.0030740
 NucSpn=           0           3           1           1           1           0           2
 AtZEff=  -0.0000000  -0.0000000  -0.0000000  -0.0000000  -0.0000000  -0.0000000  -0.0000000
 NQMom=    0.0000000  -8.1650000   0.0000000   0.0000000   0.0000000   0.0000000   2.0440000
 NMagM=    0.0000000   0.8218740   2.7928460   2.7928460   2.7928460   0.0000000   0.4037610
 AtZNuc=   6.0000000  17.0000000   1.0000000   1.0000000   1.0000000   6.0000000   7.0000000
 Leave Link  101 at Sun Oct 13 09:49:07 2024, MaxMem=  2684354560 cpu:               2.4 elap:               0.1
 (Enter /usr/local/g16_AVX//g16/l103.exe)

 GradGradGradGradGradGradGradGradGradGradGradGradGradGradGradGradGradGrad
 Berny optimization.
 Initialization pass.
 Trust Radius=3.00D-01 FncErr=1.00D-07 GrdErr=1.00D-07 EigMax=2.50D+02 EigMin=1.00D-04
 Number of steps in this run=      2 maximum allowed number of steps=      2.
 GradGradGradGradGradGradGradGradGradGradGradGradGradGradGradGradGradGrad

 Leave Link  103 at Sun Oct 13 09:49:08 2024, MaxMem=  2684354560 cpu:               0.4 elap:               0.0
 (Enter /usr/local/g16_AVX//g16/l202.exe)
                          Input orientation:                          
 ---------------------------------------------------------------------
 Center     Atomic      Atomic             Coordinates (Angstroms)
 Number     Number       Type             X           Y           Z
 ---------------------------------------------------------------------
      1          6           0        0.576362    0.000005   -0.000177
      2         17           0       -2.270885    0.000000    0.000074
      3          1           0        0.214571    0.002396   -1.026889
      4          1           0        0.215085    0.887977    0.515621
      5          1           0        0.215073   -0.890357    0.511480
      6          6           0        2.131031    0.000001   -0.000197
      7          7           0        3.304400   -0.000005    0.000120
 ---------------------------------------------------------------------
                    Distance matrix (angstroms):
                    1          2          3          4          5
     1  C    0.000000
     2  Cl   2.847247   0.000000
     3  H    1.088594   2.689266   0.000000
     4  H    1.088606   2.689673   1.778649   0.000000
     5  H    1.088608   2.689658   1.778648   1.778339   0.000000
     6  C    1.554669   4.401916   2.174148   2.173803   2.173809
     7  N    2.728038   5.575285   3.256040   3.255475   3.255481
                    6          7
     6  C    0.000000
     7  N    1.173369   0.000000
 Symmetry turned off by external request.
 Stoichiometry    C2H3ClN(1-)
 Framework group  C1[X(C2H3ClN)]
 Deg. of freedom    15
 Full point group                 C1      NOp   1
 Rotational constants (GHZ):         158.5266151           1.2844906           1.2844882
 Leave Link  202 at Sun Oct 13 09:49:08 2024, MaxMem=  2684354560 cpu:               0.2 elap:               0.0
 (Enter /usr/local/g16_AVX//g16/l301.exe)
 Standard basis: 6-31++G(d,p) (6D, 7F)
 Ernie: Thresh=  0.10000D-02 Tol=  0.10000D-05 Strict=F.
    98 basis functions,   176 primitive gaussians,    98 cartesian basis functions
    20 alpha electrons       20 beta electrons
       nuclear repulsion energy       109.3282836340 Hartrees.
 IExCor=  402 DFT=T Ex+Corr=B3LYP ExCW=0 ScaHFX=  0.200000
 ScaDFX=  0.800000  0.720000  1.000000  0.810000 ScalE2=  1.000000  1.000000
 IRadAn=      5 IRanWt=     -1 IRanGd=            0 ICorTp=0 IEmpDi=  4
 NAtoms=    7 NActive=    7 NUniq=    7 SFac= 1.00D+00 NAtFMM=   60 NAOKFM=F Big=F
 Integral buffers will be    131072 words long.
 Raffenetti 2 integral format.
 Two-electron integral symmetry is turned off.
 Leave Link  301 at Sun Oct 13 09:49:08 2024, MaxMem=  2684354560 cpu:               0.9 elap:               0.1
 (Enter /usr/local/g16_AVX//g16/l302.exe)
 NPDir=0 NMtPBC=     1 NCelOv=     1 NCel=       1 NClECP=     1 NCelD=      1
         NCelK=      1 NCelE2=     1 NClLst=     1 CellRange=     0.0.
 One-electron integrals computed using PRISM.
 NBasis=    98 RedAO= T EigKep=  1.66D-05  NBF=    98
 NBsUse=    98 1.00D-06 EigRej= -1.00D+00 NBFU=    98
 Precomputing XC quadrature grid using
 IXCGrd= 4 IRadAn=           5 IRanWt=          -1 IRanGd=           0 AccXCQ= 0.00D+00.
 Generated NRdTot=       0 NPtTot=           0 NUsed=           0 NTot=          32
 NSgBfM=    98    98    98    98    98 MxSgAt=     7 MxSgA2=     7.
 Leave Link  302 at Sun Oct 13 09:49:08 2024, MaxMem=  2684354560 cpu:               3.2 elap:               0.2
 (Enter /usr/local/g16_AVX//g16/l303.exe)
 DipDrv:  MaxL=1.
 Leave Link  303 at Sun Oct 13 09:49:08 2024, MaxMem=  2684354560 cpu:               0.6 elap:               0.1
 (Enter /usr/local/g16_AVX//g16/l401.exe)
 ExpMin= 3.60D-02 ExpMax= 2.52D+04 ExpMxC= 3.78D+03 IAcc=3 IRadAn=         5 AccDes= 0.00D+00
 Harris functional with IExCor=  402 and IRadAn=       5 diagonalized for initial guess.
 HarFok:  IExCor=  402 AccDes= 0.00D+00 IRadAn=         5 IDoV= 1 UseB2=F ITyADJ=14
 ICtDFT=  3500011 ScaDFX=  1.000000  1.000000  1.000000  1.000000
 FoFCou: FMM=F IPFlag=           0 FMFlag=      100000 FMFlg1=           0
         NFxFlg=           0 DoJE=T BraDBF=F KetDBF=T FulRan=T
         wScrn=  0.000000 ICntrl=       500 IOpCl=  0 I1Cent=   200000004 NGrid=           0
         NMat0=    1 NMatS0=      1 NMatT0=    0 NMatD0=    1 NMtDS0=    0 NMtDT0=    0
 Symmetry not used in FoFCou.
 Harris En= -593.100683046022    
 JPrj=0 DoOrth=F DoCkMO=F.
 Leave Link  401 at Sun Oct 13 09:49:08 2024, MaxMem=  2684354560 cpu:               6.0 elap:               0.3
 (Enter /usr/local/g16_AVX//g16/l502.exe)
 Keep R1 ints in memory in canonical form, NReq=35752935.
 FoFCou: FMM=F IPFlag=           0 FMFlag=           0 FMFlg1=           0
         NFxFlg=           0 DoJE=F BraDBF=F KetDBF=F FulRan=T
         wScrn=  0.000000 ICntrl=       600 IOpCl=  0 I1Cent=           0 NGrid=           0
         NMat0=    1 NMatS0=   4851 NMatT0=    0 NMatD0=    1 NMtDS0=    0 NMtDT0=    0
 Symmetry not used in FoFCou.
 Two-electron integral symmetry not used.
 Closed shell SCF:
 Using DIIS extrapolation, IDIIS=  1040.
 NGot=  2684354560 LenX=  2672563405 LenY=  2672553360
 Requested convergence on RMS density matrix=1.00D-08 within 128 cycles.
 Requested convergence on MAX density matrix=1.00D-06.
 Requested convergence on             energy=1.00D-06.
 No special actions if energy rises.

 Cycle   1  Pass 1  IDiag  1:
 E= -592.943094583271    
 DIIS: error= 3.07D-02 at cycle   1 NSaved=   1.
 NSaved= 1 IEnMin= 1 EnMin= -592.943094583271     IErMin= 1 ErrMin= 3.07D-02
 ErrMax= 3.07D-02  0.00D+00 EMaxC= 1.00D-01 BMatC= 1.04D-01 BMatP= 1.04D-01
 IDIUse=3 WtCom= 6.93D-01 WtEn= 3.07D-01
 Coeff-Com:  0.100D+01
 Coeff-En:   0.100D+01
 Coeff:      0.100D+01
 Gap=     0.167 Goal=   None    Shift=    0.000
 GapD=    0.167 DampG=1.000 DampE=0.500 DampFc=0.5000 IDamp=-1.
 Damping current iteration by 5.00D-01
 RMSDP=1.12D-02 MaxDP=1.79D-01              OVMax= 1.67D-01

 Cycle   2  Pass 1  IDiag  1:
 E= -592.978278197111     Delta-E=       -0.035183613840 Rises=F Damp=T
 DIIS: error= 1.80D-02 at cycle   2 NSaved=   2.
 NSaved= 2 IEnMin= 2 EnMin= -592.978278197111     IErMin= 2 ErrMin= 1.80D-02
 ErrMax= 1.80D-02  0.00D+00 EMaxC= 1.00D-01 BMatC= 1.78D-02 BMatP= 1.04D-01
 IDIUse=3 WtCom= 8.20D-01 WtEn= 1.80D-01
 Coeff-Com:  0.196D+00 0.804D+00
 Coeff-En:   0.288D+00 0.712D+00
 Coeff:      0.213D+00 0.787D+00
 Gap=     0.149 Goal=   None    Shift=    0.000
 RMSDP=4.90D-03 MaxDP=1.40D-01 DE=-3.52D-02 OVMax= 1.54D-01

 Cycle   3  Pass 1  IDiag  1:
 E= -593.031357553880     Delta-E=       -0.053079356769 Rises=F Damp=F
 DIIS: error= 1.41D-02 at cycle   3 NSaved=   3.
 NSaved= 3 IEnMin= 3 EnMin= -593.031357553880     IErMin= 3 ErrMin= 1.41D-02
 ErrMax= 1.41D-02  0.00D+00 EMaxC= 1.00D-01 BMatC= 2.14D-02 BMatP= 1.78D-02
 IDIUse=2 WtCom= 0.00D+00 WtEn= 1.00D+00
 Coeff-En:   0.000D+00 0.000D+00 0.100D+01
 Coeff:      0.000D+00 0.000D+00 0.100D+01
 Gap=     0.172 Goal=   None    Shift=    0.000
 RMSDP=7.57D-03 MaxDP=2.51D-01 DE=-5.31D-02 OVMax= 1.74D-01

 Cycle   4  Pass 1  IDiag  1:
 E= -592.923120441613     Delta-E=        0.108237112267 Rises=F Damp=F
 DIIS: error= 3.42D-02 at cycle   4 NSaved=   4.
 NSaved= 4 IEnMin= 3 EnMin= -593.031357553880     IErMin= 3 ErrMin= 1.41D-02
 ErrMax= 3.42D-02  0.00D+00 EMaxC= 1.00D-01 BMatC= 1.42D-01 BMatP= 1.78D-02
 IDIUse=2 WtCom= 0.00D+00 WtEn= 1.00D+00
 Coeff-En:   0.000D+00 0.000D+00 0.805D+00 0.195D+00
 Coeff:      0.000D+00 0.000D+00 0.805D+00 0.195D+00
 Gap=     0.166 Goal=   None    Shift=    0.000
 RMSDP=3.66D-03 MaxDP=1.22D-01 DE= 1.08D-01 OVMax= 8.98D-02

 Cycle   5  Pass 1  IDiag  1:
 E= -593.040833141034     Delta-E=       -0.117712699421 Rises=F Damp=F
 DIIS: error= 9.51D-03 at cycle   5 NSaved=   5.
 NSaved= 5 IEnMin= 5 EnMin= -593.040833141034     IErMin= 5 ErrMin= 9.51D-03
 ErrMax= 9.51D-03  0.00D+00 EMaxC= 1.00D-01 BMatC= 1.17D-02 BMatP= 1.78D-02
 IDIUse=3 WtCom= 9.05D-01 WtEn= 9.51D-02
 Coeff-Com: -0.493D-02 0.331D-01 0.309D+00-0.115D+00 0.778D+00
 Coeff-En:   0.000D+00 0.000D+00 0.387D+00 0.000D+00 0.613D+00
 Coeff:     -0.446D-02 0.299D-01 0.316D+00-0.104D+00 0.762D+00
 Gap=     0.162 Goal=   None    Shift=    0.000
 RMSDP=1.56D-03 MaxDP=5.08D-02 DE=-1.18D-01 OVMax= 3.47D-02

 Cycle   6  Pass 1  IDiag  1:
 E= -593.051445261844     Delta-E=       -0.010612120809 Rises=F Damp=F
 DIIS: error= 1.84D-04 at cycle   6 NSaved=   6.
 NSaved= 6 IEnMin= 6 EnMin= -593.051445261844     IErMin= 6 ErrMin= 1.84D-04
 ErrMax= 1.84D-04  0.00D+00 EMaxC= 1.00D-01 BMatC= 5.85D-06 BMatP= 1.17D-02
 IDIUse=3 WtCom= 9.98D-01 WtEn= 1.84D-03
 Coeff-Com: -0.304D-02 0.116D-01 0.121D+00-0.505D-01 0.328D+00 0.593D+00
 Coeff-En:   0.000D+00 0.000D+00 0.000D+00 0.000D+00 0.000D+00 0.100D+01
 Coeff:     -0.303D-02 0.115D-01 0.121D+00-0.504D-01 0.327D+00 0.594D+00
 Gap=     0.161 Goal=   None    Shift=    0.000
 RMSDP=4.59D-05 MaxDP=7.36D-04 DE=-1.06D-02 OVMax= 7.28D-04

 Cycle   7  Pass 1  IDiag  1:
 E= -593.051450342996     Delta-E=       -0.000005081152 Rises=F Damp=F
 DIIS: error= 8.12D-05 at cycle   7 NSaved=   7.
 NSaved= 7 IEnMin= 7 EnMin= -593.051450342996     IErMin= 7 ErrMin= 8.12D-05
 ErrMax= 8.12D-05  0.00D+00 EMaxC= 1.00D-01 BMatC= 9.29D-07 BMatP= 5.85D-06
 IDIUse=1 WtCom= 1.00D+00 WtEn= 0.00D+00
 Coeff-Com: -0.362D-03 0.820D-03 0.192D-01-0.894D-02 0.519D-01 0.221D+00
 Coeff-Com:  0.716D+00
 Coeff:     -0.362D-03 0.820D-03 0.192D-01-0.894D-02 0.519D-01 0.221D+00
 Coeff:      0.716D+00
 Gap=     0.161 Goal=   None    Shift=    0.000
 RMSDP=1.96D-05 MaxDP=6.22D-04 DE=-5.08D-06 OVMax= 3.01D-04

 Cycle   8  Pass 1  IDiag  1:
 E= -593.051451258902     Delta-E=       -0.000000915906 Rises=F Damp=F
 DIIS: error= 1.01D-05 at cycle   8 NSaved=   8.
 NSaved= 8 IEnMin= 8 EnMin= -593.051451258902     IErMin= 8 ErrMin= 1.01D-05
 ErrMax= 1.01D-05  0.00D+00 EMaxC= 1.00D-01 BMatC= 8.58D-09 BMatP= 9.29D-07
 IDIUse=1 WtCom= 1.00D+00 WtEn= 0.00D+00
 Coeff-Com:  0.535D-04-0.194D-03 0.189D-02-0.960D-03 0.473D-02 0.340D-01
 Coeff-Com:  0.148D+00 0.812D+00
 Coeff:      0.535D-04-0.194D-03 0.189D-02-0.960D-03 0.473D-02 0.340D-01
 Coeff:      0.148D+00 0.812D+00
 Gap=     0.161 Goal=   None    Shift=    0.000
 RMSDP=4.37D-06 MaxDP=1.28D-04 DE=-9.16D-07 OVMax= 3.04D-05

 Cycle   9  Pass 1  IDiag  1:
 E= -593.051451267138     Delta-E=       -0.000000008235 Rises=F Damp=F
 DIIS: error= 2.53D-06 at cycle   9 NSaved=   9.
 NSaved= 9 IEnMin= 9 EnMin= -593.051451267138     IErMin= 9 ErrMin= 2.53D-06
 ErrMax= 2.53D-06  0.00D+00 EMaxC= 1.00D-01 BMatC= 8.06D-10 BMatP= 8.58D-09
 IDIUse=1 WtCom= 1.00D+00 WtEn= 0.00D+00
 Coeff-Com:  0.438D-04-0.106D-03-0.898D-03 0.179D-03-0.204D-02-0.787D-03
 Coeff-Com:  0.152D-01 0.328D+00 0.661D+00
 Coeff:      0.438D-04-0.106D-03-0.898D-03 0.179D-03-0.204D-02-0.787D-03
 Coeff:      0.152D-01 0.328D+00 0.661D+00
 Gap=     0.161 Goal=   None    Shift=    0.000
 RMSDP=1.26D-06 MaxDP=4.29D-05 DE=-8.24D-09 OVMax= 9.60D-06

 Cycle  10  Pass 1  IDiag  1:
 E= -593.051451268022     Delta-E=       -0.000000000884 Rises=F Damp=F
 DIIS: error= 5.82D-07 at cycle  10 NSaved=  10.
 NSaved=10 IEnMin=10 EnMin= -593.051451268022     IErMin=10 ErrMin= 5.82D-07
 ErrMax= 5.82D-07  0.00D+00 EMaxC= 1.00D-01 BMatC= 4.20D-11 BMatP= 8.06D-10
 IDIUse=1 WtCom= 1.00D+00 WtEn= 0.00D+00
 Coeff-Com:  0.833D-05-0.228D-04-0.154D-03 0.663D-04-0.389D-03-0.645D-03
 Coeff-Com: -0.311D-02 0.418D-01 0.169D+00 0.794D+00
 Coeff:      0.833D-05-0.228D-04-0.154D-03 0.663D-04-0.389D-03-0.645D-03
 Coeff:     -0.311D-02 0.418D-01 0.169D+00 0.794D+00
 Gap=     0.161 Goal=   None    Shift=    0.000
 RMSDP=1.31D-07 MaxDP=3.52D-06 DE=-8.84D-10 OVMax= 2.10D-06

 Cycle  11  Pass 1  IDiag  1:
 E= -593.051451268065     Delta-E=       -0.000000000043 Rises=F Damp=F
 DIIS: error= 1.09D-07 at cycle  11 NSaved=  11.
 NSaved=11 IEnMin=11 EnMin= -593.051451268065     IErMin=11 ErrMin= 1.09D-07
 ErrMax= 1.09D-07  0.00D+00 EMaxC= 1.00D-01 BMatC= 9.20D-13 BMatP= 4.20D-11
 IDIUse=1 WtCom= 1.00D+00 WtEn= 0.00D+00
 Coeff-Com: -0.589D-06 0.908D-06-0.234D-04 0.116D-04-0.499D-04-0.236D-03
 Coeff-Com: -0.163D-02-0.209D-02 0.175D-01 0.160D+00 0.827D+00
 Coeff:     -0.589D-06 0.908D-06-0.234D-04 0.116D-04-0.499D-04-0.236D-03
 Coeff:     -0.163D-02-0.209D-02 0.175D-01 0.160D+00 0.827D+00
 Gap=     0.161 Goal=   None    Shift=    0.000
 RMSDP=1.23D-07 MaxDP=4.37D-06 DE=-4.30D-11 OVMax= 3.18D-07

 Cycle  12  Pass 1  IDiag  1:
 E= -593.051451268067     Delta-E=       -0.000000000003 Rises=F Damp=F
 DIIS: error= 2.98D-08 at cycle  12 NSaved=  12.
 NSaved=12 IEnMin=12 EnMin= -593.051451268067     IErMin=12 ErrMin= 2.98D-08
 ErrMax= 2.98D-08  0.00D+00 EMaxC= 1.00D-01 BMatC= 3.10D-14 BMatP= 9.20D-13
 IDIUse=1 WtCom= 1.00D+00 WtEn= 0.00D+00
 Coeff-Com: -0.725D-06 0.159D-05-0.779D-06-0.168D-06 0.284D-05-0.376D-04
 Coeff-Com: -0.252D-03-0.208D-02-0.213D-02 0.100D-01 0.231D+00 0.764D+00
 Coeff:     -0.725D-06 0.159D-05-0.779D-06-0.168D-06 0.284D-05-0.376D-04
 Coeff:     -0.252D-03-0.208D-02-0.213D-02 0.100D-01 0.231D+00 0.764D+00
 Gap=     0.161 Goal=   None    Shift=    0.000
 RMSDP=1.86D-08 MaxDP=6.68D-07 DE=-2.50D-12 OVMax= 6.86D-08

 Cycle  13  Pass 1  IDiag  1:
 E= -593.051451268067     Delta-E=        0.000000000000 Rises=F Damp=F
 DIIS: error= 1.69D-09 at cycle  13 NSaved=  13.
 NSaved=13 IEnMin=12 EnMin= -593.051451268067     IErMin=13 ErrMin= 1.69D-09
 ErrMax= 1.69D-09  0.00D+00 EMaxC= 1.00D-01 BMatC= 4.27D-16 BMatP= 3.10D-14
 IDIUse=1 WtCom= 1.00D+00 WtEn= 0.00D+00
 Coeff-Com: -0.118D-07 0.449D-08 0.397D-06-0.656D-07 0.530D-06-0.154D-05
 Coeff-Com:  0.207D-04-0.552D-04-0.447D-03 0.748D-04-0.879D-02 0.125D-01
 Coeff-Com:  0.997D+00
 Coeff:     -0.118D-07 0.449D-08 0.397D-06-0.656D-07 0.530D-06-0.154D-05
 Coeff:      0.207D-04-0.552D-04-0.447D-03 0.748D-04-0.879D-02 0.125D-01
 Coeff:      0.997D+00
 Gap=     0.161 Goal=   None    Shift=    0.000
 RMSDP=1.75D-09 MaxDP=4.84D-08 DE= 4.55D-13 OVMax= 1.18D-08

 SCF Done:  E(RB3LYP) =  -593.051451268     A.U. after   13 cycles
            NFock= 13  Conv=0.17D-08     -V/T= 2.0049
 KE= 5.901821487675D+02 PE=-1.629016106827D+03 EE= 3.364542231578D+02
 Leave Link  502 at Sun Oct 13 09:49:11 2024, MaxMem=  2684354560 cpu:              51.1 elap:               2.2
 (Enter /usr/local/g16_AVX//g16/l801.exe)
 DoSCS=F DFT=T ScalE2(SS,OS)=  1.000000  1.000000
 Range of M.O.s used for correlation:     1    98
 NBasis=    98 NAE=    20 NBE=    20 NFC=     0 NFV=     0
 NROrb=     98 NOA=    20 NOB=    20 NVA=    78 NVB=    78

 **** Warning!!: The largest alpha MO coefficient is  0.10421657D+03

 Leave Link  801 at Sun Oct 13 09:49:11 2024, MaxMem=  2684354560 cpu:               0.7 elap:               0.1
 (Enter /usr/local/g16_AVX//g16/l1101.exe)
 Using compressed storage, NAtomX=     7.
 Will process      8 centers per pass.
 Leave Link 1101 at Sun Oct 13 09:49:11 2024, MaxMem=  2684354560 cpu:               3.5 elap:               0.2
 (Enter /usr/local/g16_AVX//g16/l1102.exe)
 Symmetrizing basis deriv contribution to polar:
 IMax=3 JMax=2 DiffMx= 0.00D+00
 Leave Link 1102 at Sun Oct 13 09:49:11 2024, MaxMem=  2684354560 cpu:               0.5 elap:               0.1
 (Enter /usr/local/g16_AVX//g16/l1110.exe)
 Forming Gx(P) for the SCF density, NAtomX=     7.
 Integral derivatives from FoFJK, PRISM(SPDF).
 Do as many integral derivatives as possible in FoFJK.
 G2DrvN: MDV=    2684353864.
 G2DrvN: will do     8 centers at a time, making    1 passes.
 Calling FoFCou, ICntrl=  3107 FMM=F I1Cent=   0 AccDes= 0.00D+00.
 FoFJK:  IHMeth= 1 ICntrl=    3107 DoSepK=F KAlg= 0 I1Cent=           0 FoldK=F
 IRaf=         0 NMat=       1 IRICut=       1 DoRegI=T DoRafI=F ISym2E= 0 IDoP0=0 IntGTp=1.
 FoFCou: FMM=F IPFlag=           0 FMFlag=      100000 FMFlg1=           0
         NFxFlg=           0 DoJE=F BraDBF=F KetDBF=F FulRan=T
         wScrn=  0.000000 ICntrl=      3107 IOpCl=  0 I1Cent=           0 NGrid=           0
         NMat0=    1 NMatS0=      1 NMatT0=    0 NMatD0=    1 NMtDS0=    0 NMtDT0=    0
 Symmetry not used in FoFCou.
 End of G2Drv F.D. properties file   721 does not exist.
 End of G2Drv F.D. properties file   722 does not exist.
 End of G2Drv F.D. properties file   788 does not exist.
 Leave Link 1110 at Sun Oct 13 09:49:13 2024, MaxMem=  2684354560 cpu:              57.3 elap:               2.3
 (Enter /usr/local/g16_AVX//g16/l1002.exe)
 Minotr:  Closed shell wavefunction.
          IDoAtm=1111111
          Direct CPHF calculation.
          Differentiating once with respect to electric field.
                with respect to dipole field.
          Differentiating once with respect to nuclear coordinates.
          Requested convergence is 1.0D-08 RMS, and 1.0D-07 maximum.
          Secondary convergence is 1.0D-12 RMS, and 1.0D-12 maximum.
          NewPWx=T KeepS1=F KeepF1=F KeepIn=T MapXYZ=F SortEE=F KeepMc=T.
         2122 words used for storage of precomputed grid.
 Keep R1 ints in memory in canonical form, NReq=35668383.
 FoFCou: FMM=F IPFlag=           0 FMFlag=           0 FMFlg1=           0
         NFxFlg=           0 DoJE=F BraDBF=F KetDBF=F FulRan=T
         wScrn=  0.000000 ICntrl=       600 IOpCl=  0 I1Cent=           0 NGrid=           0
         NMat0=    1 NMatS0=   4851 NMatT0=    0 NMatD0=    1 NMtDS0=    0 NMtDT0=    0
 Symmetry not used in FoFCou.
 Two-electron integral symmetry not used.
          MDV=    2684354560 using IRadAn=       1.
          Solving linear equations simultaneously, MaxMat=       0.
          There are    24 degrees of freedom in the 1st order CPHF.  IDoFFX=6 NUNeed=     3.
     21 vectors produced by pass  0 Test12= 6.50D-15 4.17D-09 XBig12= 7.27D+01 3.28D+00.
 AX will form    21 AO Fock derivatives at one time.
     21 vectors produced by pass  1 Test12= 6.50D-15 4.17D-09 XBig12= 5.16D+01 2.76D+00.
     21 vectors produced by pass  2 Test12= 6.50D-15 4.17D-09 XBig12= 1.78D+00 3.41D-01.
     21 vectors produced by pass  3 Test12= 6.50D-15 4.17D-09 XBig12= 1.51D-02 2.59D-02.
     21 vectors produced by pass  4 Test12= 6.50D-15 4.17D-09 XBig12= 2.55D-05 1.31D-03.
     20 vectors produced by pass  5 Test12= 6.50D-15 4.17D-09 XBig12= 3.87D-08 4.04D-05.
      5 vectors produced by pass  6 Test12= 6.50D-15 4.17D-09 XBig12= 8.06D-11 1.60D-06.
      1 vectors produced by pass  7 Test12= 6.50D-15 4.17D-09 XBig12= 1.37D-13 1.12D-07.
      1 vectors produced by pass  8 Test12= 6.50D-15 4.17D-09 XBig12= 2.79D-16 4.41D-09.
 InvSVY:  IOpt=1 It=  1 EMax= 3.55D-15
 Solved reduced A of dimension   132 with    24 vectors.
 FullF1:  Do perturbations      1 to       3.
 Isotropic polarizability for W=    0.000000       55.12 Bohr**3.
 End of Minotr F.D. properties file   721 does not exist.
 End of Minotr F.D. properties file   722 does not exist.
 End of Minotr F.D. properties file   788 does not exist.
 Leave Link 1002 at Sun Oct 13 09:49:16 2024, MaxMem=  2684354560 cpu:              71.0 elap:               2.8
 (Enter /usr/local/g16_AVX//g16/l601.exe)
 Copying SCF densities to generalized density rwf, IOpCl= 0 IROHF=0.

 **********************************************************************

            Population analysis using the SCF Density.

 **********************************************************************

 Alpha  occ. eigenvalues -- -101.25631 -14.22223 -10.11917 -10.09003  -9.17055
 Alpha  occ. eigenvalues --   -6.92838  -6.92838  -6.92801  -0.78263  -0.61467
 Alpha  occ. eigenvalues --   -0.51198  -0.35903  -0.30797  -0.30793  -0.24893
 Alpha  occ. eigenvalues --   -0.20960  -0.20958  -0.05718  -0.05718  -0.05518
 Alpha virt. eigenvalues --    0.10594   0.14508   0.14509   0.14595   0.14976
 Alpha virt. eigenvalues --    0.14977   0.20384   0.20968   0.20969   0.21676
 Alpha virt. eigenvalues --    0.23927   0.23930   0.25726   0.26126   0.26126
 Alpha virt. eigenvalues --    0.28774   0.32076   0.34135   0.34135   0.34993
 Alpha virt. eigenvalues --    0.35001   0.35671   0.39311   0.41675   0.48713
 Alpha virt. eigenvalues --    0.70369   0.79090   0.79090   0.84352   0.84361
 Alpha virt. eigenvalues --    0.86146   0.86146   0.86551   0.89316   0.97873
 Alpha virt. eigenvalues --    1.02593   1.03281   1.03285   1.10066   1.12458
 Alpha virt. eigenvalues --    1.12461   1.15011   1.15012   1.16987   1.16992
 Alpha virt. eigenvalues --    1.23443   1.26486   1.34440   1.47527   1.47528
 Alpha virt. eigenvalues --    1.53243   1.64308   1.64308   1.83531   1.83543
 Alpha virt. eigenvalues --    1.89708   2.06417   2.06418   2.15859   2.23701
 Alpha virt. eigenvalues --    2.24247   2.24264   2.41039   2.41052   2.79700
 Alpha virt. eigenvalues --    2.79728   2.83308   3.00964   3.04702   3.04704
 Alpha virt. eigenvalues --    3.25115   3.45718   3.55792   3.55797   4.23638
 Alpha virt. eigenvalues --    4.41328   4.58866   4.77251
          Condensed to atoms (all electrons):
               1          2          3          4          5          6
     1  C    5.913059  -0.157916   0.428208   0.428085   0.428083  -0.978751
     2  Cl  -0.157916  17.974495  -0.017533  -0.017556  -0.017555   0.121300
     3  H    0.428208  -0.017533   0.483536  -0.022927  -0.022927  -0.062219
     4  H    0.428085  -0.017556  -0.022927   0.483645  -0.022980  -0.062092
     5  H    0.428083  -0.017555  -0.022927  -0.022980   0.483643  -0.062088
     6  C   -0.978751   0.121300  -0.062219  -0.062092  -0.062088   6.747956
     7  N   -0.105226   0.002789  -0.005363  -0.005387  -0.005387   0.544855
               7
     1  C   -0.105226
     2  Cl   0.002789
     3  H   -0.005363
     4  H   -0.005387
     5  H   -0.005387
     6  C    0.544855
     7  N    7.138836
 Mulliken charges:
               1
     1  C    0.044456
     2  Cl  -0.888024
     3  H    0.219224
     4  H    0.219211
     5  H    0.219212
     6  C   -0.248962
     7  N   -0.565117
 Sum of Mulliken charges =  -1.00000
 Mulliken charges with hydrogens summed into heavy atoms:
               1
     1  C    0.702103
     2  Cl  -0.888024
     6  C   -0.248962
     7  N   -0.565117
 APT charges:
               1
     1  C    0.165873
     2  Cl  -0.986301
     3  H    0.077894
     4  H    0.077732
     5  H    0.077736
     6  C    0.084431
     7  N   -0.497365
 Sum of APT charges =  -1.00000
 APT charges with hydrogens summed into heavy atoms:
               1
     1  C    0.399235
     2  Cl  -0.986301
     6  C    0.084431
     7  N   -0.497365
 Electronic spatial extent (au):  <R**2>=            817.3112
 Charge=             -1.0000 electrons
 Dipole moment (field-independent basis, Debye):
    X=              4.7994    Y=              0.0000    Z=             -0.0006  Tot=              4.7994
 Quadrupole moment (field-independent basis, Debye-Ang):
   XX=            -83.8622   YY=            -35.4653   ZZ=            -35.4639
   XY=              0.0000   XZ=              0.0002   YZ=             -0.0000
 Traceless Quadrupole moment (field-independent basis, Debye-Ang):
   XX=            -32.2651   YY=             16.1318   ZZ=             16.1332
   XY=              0.0000   XZ=              0.0002   YZ=             -0.0000
 Octapole moment (field-independent basis, Debye-Ang**2):
  XXX=            -20.0889  YYY=             -0.0060  ZZZ=             -0.8571  XYY=              3.1103
  XXY=              0.0001  XXZ=             -0.0056  XZZ=              3.1100  YZZ=              0.0060
  YYZ=              0.8566  XYZ=              0.0000
 Hexadecapole moment (field-independent basis, Debye-Ang**3):
 XXXX=          -1604.0708 YYYY=            -57.6343 ZZZZ=            -57.6343 XXXY=              0.0007
 XXXZ=             -0.0007 YYYX=             -0.0005 YYYZ=              0.0000 ZZZX=             -0.0925
 ZZZY=              0.0000 XXYY=           -206.4305 XXZZ=           -206.4303 YYZZ=            -19.2111
 XXYZ=              0.0000 YYXZ=              0.1049 ZZXY=              0.0008
 N-N= 1.093282836340D+02 E-N=-1.629016106476D+03  KE= 5.901821487675D+02
  Exact polarizability:  83.016  -0.000  41.167   0.001  -0.000  41.169
 Approx polarizability: 102.274  -0.000  50.447   0.006  -0.000  50.449
 No NMR shielding tensors so no spin-rotation constants.
 Leave Link  601 at Sun Oct 13 09:49:16 2024, MaxMem=  2684354560 cpu:               2.8 elap:               0.1
 (Enter /usr/local/g16_AVX//g16/l701.exe)
 ... and contract with generalized density number  0.
 Compute integral second derivatives.
 Leave Link  701 at Sun Oct 13 09:49:16 2024, MaxMem=  2684354560 cpu:               4.3 elap:               0.2
 (Enter /usr/local/g16_AVX//g16/l702.exe)
 L702 exits ... SP integral derivatives will be done elsewhere.
 Leave Link  702 at Sun Oct 13 09:49:16 2024, MaxMem=  2684354560 cpu:               0.4 elap:               0.0
 (Enter /usr/local/g16_AVX//g16/l703.exe)
 Integral derivatives from FoFJK, PRISM(SPDF).
 Compute integral second derivatives, UseDBF=F ICtDFT=           0.
 Calling FoFJK, ICntrl=    100127 FMM=F ISym2X=0 I1Cent= 0 IOpClX= 0 NMat=1 NMatS=1 NMatT=0.
 FoFJK:  IHMeth= 1 ICntrl=  100127 DoSepK=F KAlg= 0 I1Cent=           0 FoldK=F
 IRaf=         0 NMat=       1 IRICut=       1 DoRegI=T DoRafI=F ISym2E= 0 IDoP0=0 IntGTp=1.
 FoFCou: FMM=F IPFlag=           0 FMFlag=      100000 FMFlg1=         800
         NFxFlg=           0 DoJE=F BraDBF=F KetDBF=F FulRan=T
         wScrn=  0.000000 ICntrl=    100127 IOpCl=  0 I1Cent=           0 NGrid=           0
         NMat0=    1 NMatS0=      1 NMatT0=    0 NMatD0=    1 NMtDS0=    0 NMtDT0=    0
 Symmetry not used in FoFCou.
 Leave Link  703 at Sun Oct 13 09:49:21 2024, MaxMem=  2684354560 cpu:             103.2 elap:               4.0
 (Enter /usr/local/g16_AVX//g16/l716.exe)
 Dipole        = 1.88824030D+00 5.85782658D-06-2.17659543D-04
 Polarizability= 8.30163584D+01-6.58016218D-05 4.11665604D+01
                 1.21471049D-03-1.50289665D-05 4.11691621D+01
 Full mass-weighted force constant matrix:
 Low frequencies ---  -52.4164  -52.1185    0.0033    0.0050    0.0059  137.3158
 Low frequencies ---  146.0409  146.1690  213.2011
 Diagonal vibrational polarizability:
       14.6842001      34.0261298      34.1404148
 Harmonic frequencies (cm**-1), IR intensities (KM/Mole), Raman scattering
 activities (A**4/AMU), depolarization ratios for plane and unpolarized
 incident light, reduced masses (AMU), force constants (mDyne/A),
 and normal coordinates:
                      1                      2                      3
                      A                      A                      A
 Frequencies --    131.9078               132.1194               213.2011
 Red. masses --      4.1151                 4.1175                13.4913
 Frc consts  --      0.0422                 0.0423                 0.3613
 IR Inten    --     21.9349                21.9310                19.7072
  Atom  AN      X      Y      Z        X      Y      Z        X      Y      Z
     1   6     0.00   0.01   0.40     0.00   0.40  -0.01    -0.35   0.00   0.00
     2  17    -0.00  -0.00  -0.10    -0.00  -0.10   0.00     0.46  -0.00  -0.00
     3   1    -0.22   0.01   0.48     0.00   0.47  -0.01    -0.33   0.00  -0.00
     4   1     0.11   0.01   0.47     0.19   0.48  -0.00    -0.33   0.00   0.00
     5   1     0.11  -0.00   0.47    -0.19   0.48  -0.01    -0.33  -0.00   0.00
     6   6    -0.00   0.00   0.08     0.00   0.08  -0.00    -0.41   0.00  -0.00
     7   7     0.00  -0.00  -0.27     0.00  -0.27   0.00    -0.41  -0.00  -0.00
                      4                      5                      6
                      A                      A                      A
 Frequencies --    435.4974               435.6061               670.9531
 Red. masses --      3.3487                 3.3496                 7.3739
 Frc consts  --      0.3742                 0.3745                 1.9558
 IR Inten    --      0.3875                 0.3865                42.1253
  Atom  AN      X      Y      Z        X      Y      Z        X      Y      Z
     1   6    -0.00  -0.00  -0.10     0.00  -0.10   0.00     0.61  -0.00  -0.00
     2  17     0.00   0.00   0.01    -0.00   0.01  -0.00    -0.02   0.00   0.00
     3   1     0.58  -0.01  -0.31    -0.02  -0.30   0.01     0.38  -0.00   0.07
     4   1    -0.31  -0.01  -0.31    -0.50  -0.31   0.00     0.38  -0.06  -0.03
     5   1    -0.28  -0.00  -0.31     0.51  -0.31   0.01     0.38   0.06  -0.03
     6   6    -0.00   0.01   0.39     0.00   0.39  -0.01    -0.27   0.00   0.00
     7   7     0.00  -0.01  -0.20    -0.00  -0.20   0.01    -0.34   0.00  -0.00
                      7                      8                      9
                      A                      A                      A
 Frequencies --   1020.6919              1020.8393              1300.4289
 Red. masses --      1.4439                 1.4436                 1.1155
 Frc consts  --      0.8863                 0.8864                 1.1115
 IR Inten    --      0.9122                 0.9191                23.4857
  Atom  AN      X      Y      Z        X      Y      Z        X      Y      Z
     1   6    -0.00   0.00   0.15     0.00   0.15  -0.00    -0.10   0.00  -0.00
     2  17     0.00  -0.00  -0.00    -0.00  -0.00   0.00    -0.00   0.00  -0.00
     3   1     0.73  -0.01  -0.11    -0.02  -0.30   0.00     0.54   0.00  -0.21
     4   1    -0.38   0.08  -0.25    -0.63  -0.16   0.08     0.54   0.18   0.10
     5   1    -0.35  -0.08  -0.25     0.64  -0.16  -0.07     0.54  -0.18   0.10
     6   6     0.00  -0.00  -0.13    -0.00  -0.13   0.00    -0.01   0.00   0.00
     7   7    -0.00   0.00   0.02     0.00   0.02  -0.00    -0.02   0.00  -0.00
                     10                     11                     12
                      A                      A                      A
 Frequencies --   1439.7793              1439.9312              2227.1522
 Red. masses --      1.0458                 1.0459                12.4067
 Frc consts  --      1.2773                 1.2777                36.2583
 IR Inten    --     10.4383                10.4270                22.2251
  Atom  AN      X      Y      Z        X      Y      Z        X      Y      Z
     1   6    -0.00  -0.06   0.00     0.00  -0.00  -0.06    -0.04   0.00  -0.00
     2  17    -0.00  -0.00   0.00     0.00  -0.00  -0.00    -0.00  -0.00   0.00
     3   1    -0.00   0.73   0.00     0.34   0.00  -0.15    -0.09  -0.00   0.05
     4   1    -0.29   0.07  -0.38    -0.17  -0.38   0.51    -0.09  -0.04  -0.02
     5   1     0.29   0.07   0.38    -0.17   0.38   0.51    -0.09   0.04  -0.02
     6   6    -0.00  -0.02   0.00     0.00  -0.00  -0.02     0.77  -0.00   0.00
     7   7    -0.00   0.00  -0.00     0.00   0.00   0.00    -0.61   0.00  -0.00
                     13                     14                     15
                      A                      A                      A
 Frequencies --   3106.4314              3206.6308              3206.8724
 Red. masses --      1.0285                 1.1070                 1.1070
 Frc consts  --      5.8477                 6.7064                 6.7077
 IR Inten    --      1.4764                 0.3673                 0.3716
  Atom  AN      X      Y      Z        X      Y      Z        X      Y      Z
     1   6    -0.04  -0.00   0.00     0.00  -0.09   0.00    -0.00  -0.00  -0.09
     2  17    -0.00   0.00  -0.00     0.00   0.00  -0.00    -0.00   0.00   0.00
     3   1     0.18  -0.00   0.55    -0.01  -0.02  -0.02     0.27  -0.00   0.77
     4   1     0.18  -0.47  -0.28    -0.23   0.56   0.34    -0.14   0.35   0.18
     5   1     0.18   0.48  -0.27     0.23   0.58  -0.34    -0.13  -0.33   0.17
     6   6    -0.00   0.00  -0.00     0.00   0.00  -0.00     0.00   0.00   0.00
     7   7     0.00  -0.00  -0.00    -0.00  -0.00   0.00    -0.00  -0.00  -0.00

 -------------------
 - Thermochemistry -
 -------------------
 Temperature   298.150 Kelvin.  Pressure   1.00000 Atm.
 Atom     1 has atomic number  6 and mass  12.00000
 Atom     2 has atomic number 17 and mass  34.96885
 Atom     3 has atomic number  1 and mass   1.00783
 Atom     4 has atomic number  1 and mass   1.00783
 Atom     5 has atomic number  1 and mass   1.00783
 Atom     6 has atomic number  6 and mass  12.00000
 Atom     7 has atomic number  7 and mass  14.00307
 Molecular mass:    75.99540 amu.
 Principal axes and moments of inertia in atomic units:
                           1         2         3
     Eigenvalues --    11.384471405.024821405.02747
           X            1.00000   0.00002   0.00000
           Y           -0.00000  -0.00090   1.00000
           Z           -0.00002   1.00000   0.00090
 This molecule is an asymmetric top.
 Rotational symmetry number  1.
 Rotational temperatures (Kelvin)      7.60808     0.06165     0.06165
 Rotational constants (GHZ):         158.52662     1.28449     1.28449
 Zero-point vibrational energy     119555.0 (Joules/Mol)
                                   28.57434 (Kcal/Mol)
 Warning -- explicit consideration of   5 degrees of freedom as
           vibrations may cause significant error
 Vibrational temperatures:    189.79   190.09   306.75   626.58   626.74
          (Kelvin)            965.35  1468.55  1468.76  1871.03  2071.52
                             2071.74  3204.38  4469.46  4613.63  4613.97
 
 Zero-point correction=                           0.045536 (Hartree/Particle)
 Thermal correction to Energy=                    0.051029
 Thermal correction to Enthalpy=                  0.051973
 Thermal correction to Gibbs Free Energy=         0.016991
 Sum of electronic and zero-point Energies=           -593.005915
 Sum of electronic and thermal Energies=              -593.000422
 Sum of electronic and thermal Enthalpies=            -592.999478
 Sum of electronic and thermal Free Energies=         -593.034460
 
                     E (Thermal)             CV                S
                      KCal/Mol        Cal/Mol-Kelvin    Cal/Mol-Kelvin
 Total                   32.021             16.344             73.625
 Electronic               0.000              0.000              0.000
 Translational            0.889              2.981             38.900
 Rotational               0.889              2.981             24.622
 Vibrational             30.244             10.383             10.103
 Vibration     1          0.612              1.921              2.918
 Vibration     2          0.612              1.921              2.915
 Vibration     3          0.644              1.821              2.016
 Vibration     4          0.796              1.393              0.841
 Vibration     5          0.796              1.393              0.841
                       Q            Log10(Q)             Ln(Q)
 Total Bot       0.152951D-07         -7.815449        -17.995736
 Total V=0       0.134800D+14         13.129690         30.232228
 Vib (Bot)       0.109454D-19        -19.960770        -45.961371
 Vib (Bot)    1  0.154477D+01          0.188863          0.434874
 Vib (Bot)    2  0.154221D+01          0.188144          0.433217
 Vib (Bot)    3  0.930387D+00         -0.031336         -0.072155
 Vib (Bot)    4  0.398369D+00         -0.399714         -0.920376
 Vib (Bot)    5  0.398236D+00         -0.399860         -0.920712
 Vib (V=0)       0.964647D+01          0.984368          2.266592
 Vib (V=0)    1  0.212367D+01          0.327087          0.753146
 Vib (V=0)    2  0.212124D+01          0.326590          0.752000
 Vib (V=0)    3  0.155623D+01          0.192074          0.442266
 Vib (V=0)    4  0.113929D+01          0.056636          0.130410
 Vib (V=0)    5  0.113921D+01          0.056604          0.130336
 Electronic      0.100000D+01          0.000000          0.000000
 Translational   0.260396D+08          7.415635         17.075130
 Rotational      0.536644D+05          4.729686         10.890505
 
                                                       RxCoord=-4.19909 DE=8.51
                                                             IR Spectrum
 
      3  3                                  2                              1     1          1                                        
      2  1                                  2                              4     3          0             6        4        2  1     
      0  0                                  2                              4     0          2             7        3        1  3     
      7  6                                  7                              0     0          1             1        5        3  2     
 
      X  X                                  X                              X     X          X             X        X        X  X     
                                            X                              X     X                        X                 X  X     
                                            X                              X     X                        X                 X  X     
                                            X                              X     X                        X                 X  X     
                                            X                              X     X                        X                 X  X     
                                            X                              X     X                        X                 X  X     
                                            X                              X     X                        X                 X  X     
                                            X                              X     X                        X                 X  X     
                                            X                              X     X                        X                 X  X     
                                            X                              X     X                        X                    X     
                                                                                 X                        X                    X     
                                                                                                          X                    X     
                                                                                                          X                    X     
                                                                                                          X                    X     
                                                                                                          X                    X     
                                                                                                          X                    X     
                                                                                                          X                    X     
                                                                                                          X                    X     
                                                                                                          X                    X     
                                                                                                                               X     
 
 -------------------------------------------------------------------
 Center     Atomic                   Forces (Hartrees/Bohr)
 Number     Number              X              Y              Z
 -------------------------------------------------------------------
      1        6           0.049143531   -0.000001044    0.000055027
      2       17          -0.014872477   -0.000000127    0.000006845
      3        1          -0.000261328   -0.000003075    0.001378747
      4        1          -0.000277000   -0.001179317   -0.000716383
      5        1          -0.000276035    0.001183785   -0.000711259
      6        6          -0.013552613   -0.000000440   -0.000000512
      7        7          -0.019904078    0.000000218   -0.000012465
 -------------------------------------------------------------------
 Cartesian Forces:  Max     0.049143531 RMS     0.012386743
 Z-matrix is all fixed cartesians, so copy forces.
 Force constants in Cartesian coordinates: 
                1             2             3             4             5 
      1  0.301152D+00
      2  0.000000D+00  0.586730D+00
      3  0.125437D-03  0.131859D-05  0.586994D+00
      4 -0.117994D-01  0.000000D+00  0.315260D-05  0.335801D-01
      5  0.000000D+00 -0.175893D-03  0.000000D+00  0.000000D+00 -0.184706D-02
      6  0.244184D-05  0.000000D+00 -0.176898D-03 -0.435745D-05  0.000000D+00
      7 -0.615517D-01  0.208554D-03 -0.896390D-01 -0.424316D-02  0.000000D+00
      8  0.203086D-03 -0.414375D-01  0.618013D-03  0.341674D-05 -0.113630D-02
      9 -0.873293D-01  0.617977D-03 -0.306770D+00 -0.144176D-02 -0.466455D-05
     10 -0.614827D-01  0.774031D-01  0.449479D-01 -0.425021D-02  0.215127D-03
     11  0.754058D-01 -0.239866D+00 -0.115252D+00  0.124596D-02  0.442814D-03
     12  0.437852D-01 -0.115257D+00 -0.108387D+00  0.724890D-03  0.931222D-03
     13 -0.614843D-01 -0.776123D-01  0.445874D-01 -0.425049D-02 -0.215760D-03
     14 -0.756096D-01 -0.240932D+00  0.114633D+00 -0.124911D-02  0.451132D-03
     15  0.434340D-01  0.114637D+00 -0.107316D+00  0.719223D-03 -0.926294D-03
     16 -0.105734D+00  0.000000D+00 -0.199090D-04 -0.526015D-02  0.000000D+00
     17  0.000000D+00 -0.836049D-01  0.000000D+00  0.000000D+00  0.285711D-02
     18 -0.324130D-04  0.000000D+00 -0.836364D-01  0.000000D+00  0.000000D+00
     19  0.900264D-03  0.000000D+00 -0.500369D-05 -0.377667D-02  0.000000D+00
     20  0.000000D+00  0.192865D-01  0.000000D+00  0.000000D+00 -0.591794D-03
     21  0.146862D-04  0.000000D+00  0.192925D-01 -0.116817D-05  0.000000D+00
                6             7             8             9            10 
      6 -0.186981D-02
      7 -0.248834D-03  0.786532D-01
      8 -0.463801D-05 -0.222899D-03  0.434108D-01
      9  0.975010D-03  0.957408D-01 -0.652678D-03  0.323419D+00
     10  0.125495D-03  0.395116D-02 -0.867626D-02 -0.432614D-02  0.786037D-01
     11  0.931345D-03 -0.637454D-03  0.763605D-03  0.178569D-02 -0.826806D-01
     12 -0.592929D-03  0.965904D-02 -0.242074D-01 -0.123277D-01 -0.480180D-01
     13  0.124421D-03  0.395095D-02  0.869637D-02 -0.428565D-02  0.394337D-02
     14 -0.926431D-03  0.592378D-03  0.658598D-03 -0.172494D-02 -0.804884D-02
     15 -0.601738D-03  0.966206D-02  0.242680D-01 -0.122232D-01 -0.537957D-02
     16  0.000000D+00 -0.205527D-01  0.294783D-05 -0.122947D-02 -0.205567D-01
     17  0.000000D+00  0.666957D-04 -0.328697D-02 -0.285285D-04  0.247863D-01
     18  0.285855D-02 -0.286359D-01 -0.283548D-04  0.897207D-02  0.143916D-01
     19  0.000000D+00 -0.207740D-03 -0.666183D-05  0.287156D-02 -0.208709D-03
     20  0.000000D+00 -0.805909D-05  0.102781D-02  0.714072D-05 -0.299877D-02
     21 -0.592186D-03  0.346184D-02  0.713634D-05 -0.204510D-02 -0.174134D-02
               11            12            13            14            15 
     11  0.252845D+00
     12  0.121615D+00  0.114050D+00
     13  0.807357D-02 -0.534184D-02  0.786057D-01
     14 -0.187863D-01  0.129405D-01  0.829038D-01  0.253970D+00
     15 -0.130615D-01  0.720354D-02 -0.476329D-01 -0.120962D+00  0.112920D+00
     16  0.107468D-02  0.633784D-03 -0.205567D-01 -0.107732D-02  0.628668D-03
     17  0.586942D-02  0.531002D-02 -0.248525D-01  0.591913D-02 -0.528163D-02
     18  0.531551D-02 -0.197767D-03  0.142758D-01 -0.528724D-02 -0.247146D-03
     19 -0.248192D-02 -0.144308D-02 -0.208528D-03  0.248864D-02 -0.143150D-02
     20 -0.126858D-02 -0.133266D-02  0.300677D-02 -0.128104D-02  0.132554D-02
     21 -0.133377D-02  0.252484D-03 -0.172731D-02  0.132665D-02  0.264869D-03
               16            17            18            19            20 
     16  0.132938D+01
     17 -0.607195D-05  0.114694D+00
     18  0.289933D-03  0.000000D+00  0.114697D+00
     19 -0.115672D+01  0.542234D-05 -0.289100D-03  0.116023D+01
     20  0.567890D-05 -0.424478D-01  0.000000D+00 -0.563841D-05  0.252749D-01
     21 -0.303539D-03  0.000000D+00 -0.424460D-01  0.296829D-03  0.000000D+00
               21 
     21  0.252735D-01
 Leave Link  716 at Sun Oct 13 09:49:21 2024, MaxMem=  2684354560 cpu:               0.8 elap:               0.1
 (Enter /usr/local/g16_AVX//g16/l103.exe)

 GradGradGradGradGradGradGradGradGradGradGradGradGradGradGradGradGradGrad
 Berny optimization.
 Search for a local minimum.
 Step number   1 out of a maximum of    2
 All quantities printed in internal units (Hartrees-Bohrs-Radians)
 Second derivative matrix not updated -- analytic derivatives used.
 ITU=  0
     Eigenvalues ---    0.00283   0.00285   0.02972   0.02973   0.03301
     Eigenvalues ---    0.08814   0.09703   0.09705   0.16462   0.16462
     Eigenvalues ---    0.18759   0.50877   0.85924   0.85953   2.40698
 Quadratic step=4.780D-01 exceeds max=3.000D-01 adjusted using Lamda=-3.037D-02.
 Angle between NR and scaled steps=  13.85 degrees.
 Angle between quadratic step and forces=  36.66 degrees.
 Linear search not attempted -- first point.
 B after Tr=    -0.034516   -0.000001    0.000036
         Rot=    1.000000   -0.000000   -0.000005   -0.000000 Ang=  -0.00 deg.
 Variable       Old X    -DE/DX   Delta X   Delta X   Delta X     New X
                                 (Linear)    (Quad)   (Total)
    X1        1.08917   0.04914   0.00000   0.21177   0.17726   1.26642
    Y1        0.00001  -0.00000   0.00000   0.00000  -0.00000   0.00001
    Z1       -0.00033   0.00006   0.00000   0.00015   0.00018  -0.00016
    X2       -4.29135  -0.01487   0.00000  -0.14711  -0.18163  -4.47298
    Y2        0.00000  -0.00000   0.00000  -0.00000  -0.00000  -0.00000
    Z2        0.00014   0.00001   0.00000   0.00001   0.00008   0.00022
    X3        0.40548  -0.00026   0.00000   0.07812   0.04359   0.44907
    Y3        0.00453  -0.00000   0.00000  -0.00008  -0.00008   0.00445
    Z3       -1.94054   0.00138   0.00000   0.03573   0.03576  -1.90478
    X4        0.40645  -0.00028   0.00000   0.07770   0.04320   0.44965
    Y4        1.67803  -0.00118   0.00000  -0.03068  -0.03068   1.64735
    Z4        0.97438  -0.00072   0.00000  -0.01809  -0.01806   0.95632
    X5        0.40643  -0.00028   0.00000   0.07771   0.04320   0.44963
    Y5       -1.68253   0.00118   0.00000   0.03077   0.03077  -1.65176
    Z5        0.96656  -0.00071   0.00000  -0.01795  -0.01792   0.94864
    X6        4.02706  -0.01355   0.00000  -0.02036  -0.05487   3.97219
    Y6        0.00000  -0.00000   0.00000  -0.00000  -0.00000  -0.00000
    Z6       -0.00037  -0.00000   0.00000   0.00011   0.00011  -0.00026
    X7        6.24441  -0.01990   0.00000  -0.03623  -0.07075   6.17367
    Y7       -0.00001   0.00000   0.00000  -0.00000  -0.00000  -0.00001
    Z7        0.00023  -0.00001   0.00000  -0.00014  -0.00016   0.00007
         Item               Value     Threshold  Converged?
 Maximum Force            0.049144     0.000450     NO 
 RMS     Force            0.012387     0.000300     NO 
 Maximum Displacement     0.181625     0.001800     NO 
 RMS     Displacement     0.062439     0.001200     NO 
 Predicted change in Energy=-8.208276D-03
 GradGradGradGradGradGradGradGradGradGradGradGradGradGradGradGradGradGrad

 Leave Link  103 at Sun Oct 13 09:49:21 2024, MaxMem=  2684354560 cpu:               0.5 elap:               0.1
 (Enter /usr/local/g16_AVX//g16/l9999.exe)

 ----------------------------------------------------------------------

 Electric dipole moment (input orientation):
 (Debye = 10**-18 statcoulomb cm , SI units = C m)
                  (au)            (Debye)         (10**-30 SI)
   Tot        0.188824D+01      0.479943D+01      0.160092D+02
   x          0.188824D+01      0.479943D+01      0.160092D+02
   y          0.000000D+00      0.000000D+00      0.000000D+00
   z         -0.217660D-03     -0.553235D-03     -0.184539D-02

 Dipole polarizability, Alpha (input orientation).
 (esu units = cm**3 , SI units = C**2 m**2 J**-1)
 Alpha(0;0):
               (au)            (10**-24 esu)      (10**-40 SI)
   iso        0.551174D+02      0.816755D+01      0.908763D+01
   aniso      0.418485D+02      0.620131D+01      0.689989D+01
   xx         0.830164D+02      0.123018D+02      0.136875D+02
   yx        -0.658016D-04     -0.975079D-05     -0.108492D-04
   yy         0.411666D+02      0.610025D+01      0.678745D+01
   zx         0.121471D-02      0.180002D-03      0.200279D-03
   zy        -0.150290D-04     -0.222706D-05     -0.247794D-05
   zz         0.411692D+02      0.610064D+01      0.678788D+01

 ----------------------------------------------------------------------

 Dipole orientation:
     6          0.00020893          0.00000607          1.08916636
    17          0.00035483          0.00001331         -4.29135070
     1          1.94049220          0.00453255          0.40570412
     1         -0.97443453          1.67802905          0.40634463
     1         -0.96659874         -1.68253514          0.40631243
     6         -0.00009193         -0.00001060          4.02706497
     7         -0.00094657         -0.00002882          6.24441094

 Electric dipole moment (dipole orientation):
 (Debye = 10**-18 statcoulomb cm , SI units = C m)
                  (au)            (Debye)         (10**-30 SI)
   Tot        0.188824D+01      0.479943D+01      0.160092D+02
   x          0.000000D+00      0.000000D+00      0.000000D+00
   y          0.000000D+00      0.000000D+00      0.000000D+00
   z          0.188824D+01      0.479943D+01      0.160092D+02

 Dipole polarizability, Alpha (dipole orientation).
 (esu units = cm**3 , SI units = C**2 m**2 J**-1)
 Alpha(0;0):
               (au)            (10**-24 esu)      (10**-40 SI)
   iso        0.551174D+02      0.816755D+01      0.908763D+01
   aniso      0.418485D+02      0.620131D+01      0.689989D+01
   xx         0.411692D+02      0.610064D+01      0.678788D+01
   yx         0.150634D-04      0.223216D-05      0.248361D-05
   yy         0.411666D+02      0.610025D+01      0.678745D+01
   zx        -0.603848D-02     -0.894811D-03     -0.995611D-03
   zy        -0.195648D-03     -0.289920D-04     -0.322580D-04
   zz         0.830164D+02      0.123018D+02      0.136875D+02

 ----------------------------------------------------------------------
 1\1\GINC-NODO11\Freq\RB3LYP\6-31++G(d,p)\C2H3Cl1N1(1-)\ALANQF\13-Oct-2
 024\0\\#p b3lyp 6-31++g(d,p) scf=verytight NoSymm freq=noraman int=ult
 rafine\\RxCoord=-4.19909 DE=8.51\\-1,1\C,0.576362,0.000005,-0.000177\C
 l,-2.270885,0.,0.000074\H,0.214571,0.002396,-1.026889\H,0.215085,0.887
 977,0.515621\H,0.215073,-0.890357,0.51148\C,2.131031,0.000001,-0.00019
 7\N,3.3044,-0.000005,0.00012\\Version=ES64L-G16RevB.01\HF=-593.0514513
 \RMSD=1.748e-09\RMSF=1.239e-02\ZeroPoint=0.0455361\Thermal=0.0510289\D
 ipole=1.9567958,0.0000067,-0.0002145\DipoleDeriv=0.3593044,0.0000003,0
 .0000455,-0.0000047,0.0691287,0.,0.0001634,0.0000001,0.069186,-1.13450
 65,0.0000003,0.000016,0.0000018,-0.9121833,0.,0.0000355,0.,-0.912213,0
 .1116294,-0.0000298,0.013002,0.0000054,0.1002213,0.0001827,-0.0018439,
 0.0001828,0.0218313,0.1113051,-0.0112666,-0.0065712,0.0016429,0.041496
 7,-0.034073,0.0008898,-0.0340929,0.0803946,0.1113159,0.0112967,-0.0065
 178,-0.0016445,0.0411805,0.0338903,0.0008822,0.0339102,0.0807113,0.170
 7152,-0.0000001,-0.0001132,-0.0000038,0.0413297,-0.0000002,-0.0000152,
 -0.0000003,0.0412491,-0.7297634,-0.0000008,0.0001386,0.000003,-0.38117
 37,0.,-0.0001119,0.,-0.3811592\Polar=83.0163584,-0.0000658,41.1665604,
 0.0012147,-0.000015,41.1691621\Quadrupole=-23.9882825,11.9936241,11.99
 46584,0.0000343,0.0001496,-0.000001\PG=C01 [X(C2H3Cl1N1)]\NImag=0\\0.3
 0115207,0.00000036,0.58672951,0.00012544,0.00000132,0.58699401,-0.0117
 9943,0.,0.00000315,0.03358012,0.00000011,-0.00017589,0.00000001,-0.000
 00023,-0.00184706,0.00000244,0.,-0.00017690,-0.00000436,-0.00000026,-0
 .00186981,-0.06155168,0.00020855,-0.08963900,-0.00424316,0.00000079,-0
 .00024883,0.07865318,0.00020309,-0.04143753,0.00061801,0.00000342,-0.0
 0113630,-0.00000464,-0.00022290,0.04341079,-0.08732930,0.00061798,-0.3
 0677002,-0.00144176,-0.00000466,0.00097501,0.09574077,-0.00065268,0.32
 341894,-0.06148269,0.07740307,0.04494791,-0.00425021,0.00021513,0.0001
 2550,0.00395116,-0.00867626,-0.00432614,0.07860373,0.07540577,-0.23986
 575,-0.11525243,0.00124596,0.00044281,0.00093134,-0.00063745,0.0007636
 1,0.00178569,-0.08268061,0.25284476,0.04378517,-0.11525679,-0.10838729
 ,0.00072489,0.00093122,-0.00059293,0.00965904,-0.02420743,-0.01232770,
 -0.04801796,0.12161510,0.11404966,-0.06148430,-0.07761227,0.04458742,-
 0.00425049,-0.00021576,0.00012442,0.00395095,0.00869637,-0.00428565,0.
 00394337,0.00807357,-0.00534184,0.07860573,-0.07560955,-0.24093193,0.1
 1463297,-0.00124911,0.00045113,-0.00092643,0.00059238,0.00065860,-0.00
 172494,-0.00804884,-0.01878628,0.01294053,0.08290380,0.25397039,0.0434
 3398,0.11463742,-0.10731591,0.00071922,-0.00092629,-0.00060174,0.00966
 206,0.02426795,-0.01222320,-0.00537957,-0.01306145,0.00720354,-0.04763
 287,-0.12096154,0.11291958,-0.10573424,0.00000013,-0.00001991,-0.00526
 015,-0.00000004,0.00000054,-0.02055271,0.00000295,-0.00122947,-0.02055
 666,0.00107468,0.00063378,-0.02055673,-0.00107732,0.00062867,1.3293845
 9,0.00000025,-0.08360488,0.00000013,-0.00000009,0.00285711,-0.00000002
 ,0.00006670,-0.00328697,-0.00002853,0.02478627,0.00586942,0.00531002,-
 0.02485249,0.00591913,-0.00528163,-0.00000607,0.11469397,-0.00003241,0
 .00000008,-0.08363636,0.00000002,-0.00000002,0.00285855,-0.02863586,-0
 .00002835,0.00897207,0.01439160,0.00531551,-0.00019777,0.01427582,-0.0
 0528724,-0.00024715,0.00028993,0.00000003,0.11469664,0.00090026,0.0000
 0016,-0.00000500,-0.00377667,0.,0.00000030,-0.00020774,-0.00000666,0.0
 0287156,-0.00020871,-0.00248192,-0.00144308,-0.00020853,0.00248864,-0.
 00143150,-1.15672410,0.00000542,-0.00028910,1.16022549,-0.00000003,0.0
 1928648,-0.00000001,0.00000005,-0.00059179,0.,-0.00000806,0.00102781,0
 .00000714,-0.00299877,-0.00126858,-0.00133266,0.00300677,-0.00128104,0
 .00132554,0.00000568,-0.04244777,0.,-0.00000564,0.02527489,0.00001469,
 -0.00000002,0.01929245,-0.00000117,0.,-0.00059219,0.00346184,0.0000071
 4,-0.00204510,-0.00174134,-0.00133377,0.00025248,-0.00172731,0.0013266
 5,0.00026487,-0.00030354,0.,-0.04244599,0.00029683,0.,0.02527348\\-0.0
 4914353,0.00000104,-0.00005503,0.01487248,0.00000013,-0.00000685,0.000
 26133,0.00000308,-0.00137875,0.00027700,0.00117932,0.00071638,0.000276
 04,-0.00118379,0.00071126,0.01355261,0.00000044,0.00000051,0.01990408,
 -0.00000022,0.00001247\\\@


 HO!  SUCH BUGS AND GOBLINS IN MY LIFE!

                            -- HAMLET, ACT 5, SCENE 2
 Job cpu time:       0 days  0 hours  5 minutes 11.8 seconds.
 Elapsed time:       0 days  0 hours  0 minutes 13.0 seconds.
 File lengths (MBytes):  RWF=     88 Int=      0 D2E=      0 Chk=      2 Scr=      2
 Normal termination of Gaussian 16 at Sun Oct 13 09:49:21 2024.
