RxCoord=-4.09911 DE=9.64                                                
Freq      RB3LYP                                                      6-31++G(d,p)        
Number of atoms                            I                7
Info1-9                                    I   N=           9
          16          16           0           0           0         100
           6          18        -502
Full Title                                 C   N=           2
RxCoord=-4.09911 DE=9.64
Route                                      C   N=           6
#p b3lyp 6-31++g(d,p) scf=verytight NoSymm freq=noraman int=
ultrafine   
Charge                                     I               -1
Multiplicity                               I                1
Number of electrons                        I               40
Number of alpha electrons                  I               20
Number of beta electrons                   I               20
Number of basis functions                  I               98
Number of independent functions            I               98
Number of point charges in /Mol/           I                0
Number of translation vectors              I                0
Atomic numbers                             I   N=           7
           6          17           1           1           1           6
           7
Nuclear charges                            R   N=           7
  6.00000000E+00  1.70000000E+01  1.00000000E+00  1.00000000E+00  1.00000000E+00
  6.00000000E+00  7.00000000E+00
Current cartesian coordinates              R   N=          21
  1.06497217E+00  9.44863062E-06 -3.68496594E-04 -4.28837628E+00  0.00000000E+00
  1.54957542E-04  3.91507789E-01  4.53156325E-03 -1.94353797E+00  3.92392181E-01
  1.68058069E+00  9.75763864E-01  3.92367615E-01 -1.68508201E+00  9.67927170E-01
  4.03471267E+00  1.88972612E-06 -3.64717142E-04  6.25419223E+00 -9.44863062E-06
  2.32436313E-04
Number of symbols in /Mol/                 I                0
Force Field                                I                0
Atom Types                                 C   N=           7
                                                            
                        
Int Atom Types                             I   N=           7
           0           0           0           0           0           0
           0
MM charges                                 R   N=           7
  0.00000000E+00  0.00000000E+00  0.00000000E+00  0.00000000E+00  0.00000000E+00
  0.00000000E+00  0.00000000E+00
Integer atomic weights                     I   N=           7
          12          35           1           1           1          12
          14
Real atomic weights                        R   N=           7
  1.20000000E+01  3.49688527E+01  1.00782504E+00  1.00782504E+00  1.00782504E+00
  1.20000000E+01  1.40030740E+01
Atom fragment info                         I   N=           7
           0           0           0           0           0           0
           0
Atom residue num                           I   N=           7
           0           0           0           0           0           0
           0
Nuclear spins                              I   N=           7
           0           3           1           1           1           0
           2
Nuclear ZEff                               R   N=           7
 -3.60000000E+00 -1.42400000E+01 -1.00000000E+00 -1.00000000E+00 -1.00000000E+00
 -3.60000000E+00 -4.55000000E+00
Nuclear ZNuc                               R   N=           7
  6.00000000E+00  1.70000000E+01  1.00000000E+00  1.00000000E+00  1.00000000E+00
  6.00000000E+00  7.00000000E+00
Nuclear QMom                               R   N=           7
  0.00000000E+00 -8.16500000E+00  0.00000000E+00  0.00000000E+00  0.00000000E+00
  0.00000000E+00  2.04400000E+00
Nuclear GFac                               R   N=           7
  0.00000000E+00  8.21874000E-01  2.79284600E+00  2.79284600E+00  2.79284600E+00
  0.00000000E+00  4.03761000E-01
MicOpt                                     I   N=           7
          -1          -1          -1          -1          -1          -1
          -1
Number of residues                         I                0
Number of secondary structures             I                0
Number of contracted shells                I               33
Number of primitive shells                 I               72
Pure/Cartesian d shells                    I                1
Pure/Cartesian f shells                    I                0
Highest angular momentum                   I                2
Largest degree of contraction              I                6
Shell types                                I   N=          33
           0          -1          -1          -1           2           0
          -1          -1          -1          -1           2           0
           0           0           1           0           0           0
           1           0           0           0           1           0
          -1          -1          -1           2           0          -1
          -1          -1           2
Number of primitives per shell             I   N=          33
           6           3           1           1           1           6
           6           3           1           1           1           3
           1           1           1           3           1           1
           1           3           1           1           1           6
           3           1           1           1           6           3
           1           1           1
Shell to atom map                          I   N=          33
           1           1           1           1           1           2
           2           2           2           2           2           3
           3           3           3           4           4           4
           4           5           5           5           5           6
           6           6           6           6           7           7
           7           7           7
Primitive exponents                        R   N=          72
  3.04752488E+03  4.57369518E+02  1.03948685E+02  2.92101553E+01  9.28666296E+00
  3.16392696E+00  7.86827235E+00  1.88128854E+00  5.44249258E-01  1.68714478E-01
  4.38000000E-02  8.00000000E-01  2.51801000E+04  3.78035000E+03  8.60474000E+02
  2.42145000E+02  7.73349000E+01  2.62470000E+01  4.91765000E+02  1.16984000E+02
  3.74153000E+01  1.37834000E+01  5.45215000E+00  2.22588000E+00  3.18649000E+00
  1.14427000E+00  4.20377000E-01  1.42657000E-01  4.83000000E-02  7.50000000E-01
  1.87311370E+01  2.82539436E+00  6.40121692E-01  1.61277759E-01  3.60000000E-02
  1.10000000E+00  1.87311370E+01  2.82539436E+00  6.40121692E-01  1.61277759E-01
  3.60000000E-02  1.10000000E+00  1.87311370E+01  2.82539436E+00  6.40121692E-01
  1.61277759E-01  3.60000000E-02  1.10000000E+00  3.04752488E+03  4.57369518E+02
  1.03948685E+02  2.92101553E+01  9.28666296E+00  3.16392696E+00  7.86827235E+00
  1.88128854E+00  5.44249258E-01  1.68714478E-01  4.38000000E-02  8.00000000E-01
  4.17351146E+03  6.27457911E+02  1.42902093E+02  4.02343293E+01  1.28202129E+01
  4.39043701E+00  1.16263619E+01  2.71627981E+00  7.72218397E-01  2.12031498E-01
  6.39000000E-02  8.00000000E-01
Contraction coefficients                   R   N=          72
  1.83473713E-03  1.40373228E-02  6.88426223E-02  2.32184443E-01  4.67941348E-01
  3.62311985E-01 -1.19332420E-01 -1.60854152E-01  1.14345644E+00  1.00000000E+00
  1.00000000E+00  1.00000000E+00  1.83295985E-03  1.40341988E-02  6.90973943E-02
  2.37451980E-01  4.83033960E-01  3.39855972E-01 -2.29739142E-03 -3.07137189E-02
 -1.12528069E-01  4.50163278E-02  5.89353363E-01  4.65206287E-01 -2.51828028E-01
  6.15892514E-02  1.06018433E+00  1.00000000E+00  1.00000000E+00  1.00000000E+00
  3.34946043E-02  2.34726953E-01  8.13757326E-01  1.00000000E+00  1.00000000E+00
  1.00000000E+00  3.34946043E-02  2.34726953E-01  8.13757326E-01  1.00000000E+00
  1.00000000E+00  1.00000000E+00  3.34946043E-02  2.34726953E-01  8.13757326E-01
  1.00000000E+00  1.00000000E+00  1.00000000E+00  1.83473713E-03  1.40373228E-02
  6.88426223E-02  2.32184443E-01  4.67941348E-01  3.62311985E-01 -1.19332420E-01
 -1.60854152E-01  1.14345644E+00  1.00000000E+00  1.00000000E+00  1.00000000E+00
  1.83477216E-03  1.39946270E-02  6.85865518E-02  2.32240873E-01  4.69069948E-01
  3.60455199E-01 -1.14961182E-01 -1.69117479E-01  1.14585195E+00  1.00000000E+00
  1.00000000E+00  1.00000000E+00
P(S=P) Contraction coefficients            R   N=          72
  0.00000000E+00  0.00000000E+00  0.00000000E+00  0.00000000E+00  0.00000000E+00
  0.00000000E+00  6.89990666E-02  3.16423961E-01  7.44308291E-01  1.00000000E+00
  1.00000000E+00  0.00000000E+00  0.00000000E+00  0.00000000E+00  0.00000000E+00
  0.00000000E+00  0.00000000E+00  0.00000000E+00  3.98940088E-03  3.03177067E-02
  1.29880029E-01  3.27951072E-01  4.53527100E-01  2.52154056E-01 -1.42993147E-02
  3.23572333E-01  7.43507765E-01  1.00000000E+00  1.00000000E+00  0.00000000E+00
  0.00000000E+00  0.00000000E+00  0.00000000E+00  0.00000000E+00  0.00000000E+00
  0.00000000E+00  0.00000000E+00  0.00000000E+00  0.00000000E+00  0.00000000E+00
  0.00000000E+00  0.00000000E+00  0.00000000E+00  0.00000000E+00  0.00000000E+00
  0.00000000E+00  0.00000000E+00  0.00000000E+00  0.00000000E+00  0.00000000E+00
  0.00000000E+00  0.00000000E+00  0.00000000E+00  0.00000000E+00  6.89990666E-02
  3.16423961E-01  7.44308291E-01  1.00000000E+00  1.00000000E+00  0.00000000E+00
  0.00000000E+00  0.00000000E+00  0.00000000E+00  0.00000000E+00  0.00000000E+00
  0.00000000E+00  6.75797439E-02  3.23907296E-01  7.40895140E-01  1.00000000E+00
  1.00000000E+00  0.00000000E+00
Coordinates of each shell                  R   N=          99
  1.06497217E+00  9.44863062E-06 -3.68496594E-04  1.06497217E+00  9.44863062E-06
 -3.68496594E-04  1.06497217E+00  9.44863062E-06 -3.68496594E-04  1.06497217E+00
  9.44863062E-06 -3.68496594E-04  1.06497217E+00  9.44863062E-06 -3.68496594E-04
 -4.28837628E+00  0.00000000E+00  1.54957542E-04 -4.28837628E+00  0.00000000E+00
  1.54957542E-04 -4.28837628E+00  0.00000000E+00  1.54957542E-04 -4.28837628E+00
  0.00000000E+00  1.54957542E-04 -4.28837628E+00  0.00000000E+00  1.54957542E-04
 -4.28837628E+00  0.00000000E+00  1.54957542E-04  3.91507789E-01  4.53156325E-03
 -1.94353797E+00  3.91507789E-01  4.53156325E-03 -1.94353797E+00  3.91507789E-01
  4.53156325E-03 -1.94353797E+00  3.91507789E-01  4.53156325E-03 -1.94353797E+00
  3.92392181E-01  1.68058069E+00  9.75763864E-01  3.92392181E-01  1.68058069E+00
  9.75763864E-01  3.92392181E-01  1.68058069E+00  9.75763864E-01  3.92392181E-01
  1.68058069E+00  9.75763864E-01  3.92367615E-01 -1.68508201E+00  9.67927170E-01
  3.92367615E-01 -1.68508201E+00  9.67927170E-01  3.92367615E-01 -1.68508201E+00
  9.67927170E-01  3.92367615E-01 -1.68508201E+00  9.67927170E-01  4.03471267E+00
  1.88972612E-06 -3.64717142E-04  4.03471267E+00  1.88972612E-06 -3.64717142E-04
  4.03471267E+00  1.88972612E-06 -3.64717142E-04  4.03471267E+00  1.88972612E-06
 -3.64717142E-04  4.03471267E+00  1.88972612E-06 -3.64717142E-04  6.25419223E+00
 -9.44863062E-06  2.32436313E-04  6.25419223E+00 -9.44863062E-06  2.32436313E-04
  6.25419223E+00 -9.44863062E-06  2.32436313E-04  6.25419223E+00 -9.44863062E-06
  2.32436313E-04  6.25419223E+00 -9.44863062E-06  2.32436313E-04
Num ILSW                                   I              100
ILSW                                       I   N=         100
           0           1           0           0           2           0
           0           0           0           0         402          -1
           5           0           0           0           2           0
           0           0           0           0           1           0
           1           1           0           0           0           0
           0           0      100000           0          -1           0
           0           0           0           0           0           0
           0           0           0           1           0           0
           0 -2000000000           1           0           0           0
           0           0           4          52           0           0
           0           0           5           0           0           0
           0           0           0           7           0           1
           0           0           0           0           0           0
           0           0           0           0           0           0
           0           0           0           0           0           0
           0           0           0           0           0           0
           0           0           0           0
Num RLSW                                   I               52
RLSW                                       R   N=          52
  8.00000000E-01  7.20000000E-01  1.00000000E+00  8.10000000E-01  2.00000000E-01
  0.00000000E+00  0.00000000E+00  1.00000000E+00  0.00000000E+00  0.00000000E+00
  0.00000000E+00  0.00000000E+00  1.00000000E+00  0.00000000E+00  0.00000000E+00
  0.00000000E+00  0.00000000E+00  1.00000000E+00  0.00000000E+00  0.00000000E+00
  0.00000000E+00  0.00000000E+00  1.00000000E+00  0.00000000E+00  0.00000000E+00
  0.00000000E+00  0.00000000E+00  1.00000000E+00  0.00000000E+00  0.00000000E+00
  0.00000000E+00  0.00000000E+00  1.00000000E+00  0.00000000E+00  0.00000000E+00
  0.00000000E+00  0.00000000E+00  0.00000000E+00  1.00000000E+00  1.00000000E+00
  0.00000000E+00  1.00000000E+00  0.00000000E+00  0.00000000E+00  0.00000000E+00
  0.00000000E+00  0.00000000E+00  0.00000000E+00  0.00000000E+00  0.00000000E+00
  0.00000000E+00  0.00000000E+00
MxBond                                     I                4
NBond                                      I   N=           7
           4           0           1           1           1           2
           1
IBond                                      I   N=          28
           3           4           5           6           0           0
           0           0           1           0           0           0
           1           0           0           0           1           0
           0           0           1           7           0           0
           6           0           0           0
RBond                                      R   N=          28
  1.00000000E+00  1.00000000E+00  1.00000000E+00  1.00000000E+00  0.00000000E+00
  0.00000000E+00  0.00000000E+00  0.00000000E+00  1.00000000E+00  0.00000000E+00
  0.00000000E+00  0.00000000E+00  1.00000000E+00  0.00000000E+00  0.00000000E+00
  0.00000000E+00  1.00000000E+00  0.00000000E+00  0.00000000E+00  0.00000000E+00
  1.00000000E+00  3.00000000E+00  0.00000000E+00  0.00000000E+00  3.00000000E+00
  0.00000000E+00  0.00000000E+00  0.00000000E+00
Virial Ratio                               R      2.004891504466889E+00
SCF Energy                                 R     -5.930498399622218E+02
Total Energy                               R     -5.930498399622218E+02
RMS Force                                  R      1.354196935102703E-02
RMS Density                                R      1.720949359044323E-09
NImag                                      I                0
Job Status                                 I                1
Nuclear derivative order                   I                2
External E-field                           R   N=          35
  0.00000000E+00  0.00000000E+00  0.00000000E+00  0.00000000E+00  0.00000000E+00
  0.00000000E+00  0.00000000E+00  0.00000000E+00  0.00000000E+00  0.00000000E+00
  0.00000000E+00  0.00000000E+00  0.00000000E+00  0.00000000E+00  0.00000000E+00
  0.00000000E+00  0.00000000E+00  0.00000000E+00  0.00000000E+00  0.00000000E+00
  0.00000000E+00  0.00000000E+00  0.00000000E+00  0.00000000E+00  0.00000000E+00
  0.00000000E+00  0.00000000E+00  0.00000000E+00  0.00000000E+00  0.00000000E+00
  0.00000000E+00  0.00000000E+00  0.00000000E+00  0.00000000E+00  0.00000000E+00
IOpCl                                      I                0
IROHF                                      I                0
Alpha Orbital Energies                     R   N=          98
 -1.01256649E+02 -1.42222429E+01 -1.01191233E+01 -1.00912729E+01 -9.17091646E+00
 -6.92874225E+00 -6.92874205E+00 -6.92839245E+00 -7.81539371E-01 -6.12045128E-01
 -5.12339928E-01 -3.56775007E-01 -3.07082422E-01 -3.07040620E-01 -2.48239375E-01
 -2.09667607E-01 -2.09654477E-01 -5.75686714E-02 -5.75675355E-02 -5.55189428E-02
  1.06015933E-01  1.45581680E-01  1.45588513E-01  1.45999740E-01  1.49411875E-01
  1.49422844E-01  2.04077944E-01  2.09702534E-01  2.09705150E-01  2.16097511E-01
  2.39443328E-01  2.39473980E-01  2.56711739E-01  2.61231354E-01  2.61234043E-01
  2.83666959E-01  3.19540518E-01  3.41210119E-01  3.41213964E-01  3.49505702E-01
  3.49569864E-01  3.55436598E-01  3.92869797E-01  4.17175280E-01  4.86449996E-01
  7.05473536E-01  7.90453396E-01  7.90457991E-01  8.42696184E-01  8.42780253E-01
  8.61385499E-01  8.61388465E-01  8.64477049E-01  8.90681261E-01  9.78641780E-01
  1.02375201E+00  1.03370787E+00  1.03374040E+00  1.10131639E+00  1.12415571E+00
  1.12418549E+00  1.14972530E+00  1.14973310E+00  1.17007985E+00  1.17012783E+00
  1.23482196E+00  1.26299703E+00  1.34584440E+00  1.47805523E+00  1.47806150E+00
  1.53031019E+00  1.64441284E+00  1.64441344E+00  1.82983133E+00  1.82993510E+00
  1.89180136E+00  2.06498123E+00  2.06499133E+00  2.15762125E+00  2.22112309E+00
  2.24023854E+00  2.24040351E+00  2.41270661E+00  2.41283159E+00  2.79502062E+00
  2.79527351E+00  2.83092292E+00  3.00042680E+00  3.03934937E+00  3.03937513E+00
  3.24413877E+00  3.45667405E+00  3.55661403E+00  3.55667632E+00  4.23208132E+00
  4.40740829E+00  4.58800297E+00  4.76327276E+00
Alpha MO coefficients                      R   N=        9604
 -8.92466560E-07  2.59950825E-05  1.83467975E-05  2.14983790E-10 -2.47621361E-10
 -1.63250499E-04 -2.27010647E-04 -9.11013890E-11  5.39671161E-08  1.17686679E-03
  6.16679940E-04 -3.95597319E-10  6.47224667E-09 -3.82028120E-05 -5.00608319E-06
 -5.01316148E-06  9.95717444E-11 -1.06283643E-10  7.78306791E-11  9.95997696E-01
  1.51446171E-02  1.96287569E-06 -3.42410048E-11 -6.94137878E-11 -2.10635306E-02
 -3.66660844E-06  8.26827357E-11  1.11735602E-09  1.93874075E-03 -8.17649536E-06
 -2.24779148E-10 -3.43990738E-10 -2.06512434E-04  2.55056663E-05  4.42211110E-10
 -1.29988714E-08  7.50446890E-03  7.51471159E-03  7.51471168E-03 -3.21198963E-11
  6.68285932E-10 -1.35989565E-12 -8.15364642E-06 -4.98841446E-05  8.12979321E-05
  2.25105645E-05  2.24322285E-08 -9.61048401E-06 -8.14148557E-06 -4.99317190E-05
  8.12863721E-05  2.25024985E-05  8.31579861E-06  4.82560970E-06 -8.14259181E-06
 -4.99308915E-05  8.12877187E-05  2.25027706E-05 -8.33798091E-06  4.78681524E-06
 -2.52884758E-06 -1.89751080E-05  4.45466991E-06 -5.17379523E-11  7.83585094E-10
 -1.03093785E-04 -4.10335257E-04  1.87397605E-09 -6.01909262E-08 -1.65130926E-03
  3.86483335E-04 -1.47397003E-09 -3.65641146E-08  7.88730321E-06 -2.52518623E-06
 -2.52595173E-06  4.75079691E-13 -4.10294399E-09  1.64473101E-11 -5.17910598E-06
 -2.41483411E-05  3.28369524E-06 -2.23267401E-11  4.81404760E-09  3.45140138E-04
 -1.38482413E-04  7.46356446E-10 -6.04583499E-08  2.75922993E-04 -9.43750808E-05
  6.02198266E-10 -4.47753633E-09 -4.18422972E-06 -1.02464026E-05 -1.02464434E-05
 -3.43740428E-11  4.26964150E-09 -4.47137181E-13 -1.29669887E-06 -2.24508169E-04
  1.43232505E-04 -5.00138598E-10 -1.49616207E-08  8.51520957E-04  5.95545354E-04
 -6.21020366E-10 -5.70188522E-08  9.63358660E-03  3.30008022E-03 -4.13223042E-09
 -1.21280273E-07  3.38813544E-04  1.27316912E-05  1.27559680E-05 -4.29639274E-10
 -3.29203797E-08 -8.67735422E-11 -5.38059373E-08 -4.52865888E-06  3.40871521E-06
  1.82048554E-11 -1.15219833E-09 -5.63752576E-06 -2.43620992E-05 -1.06761522E-10
  7.04878355E-09  1.09366897E-05  1.05618691E-04  3.34300161E-10 -2.65014083E-08
  6.82896655E-04  1.81071918E-04  7.42724915E-10  5.19462004E-09  7.37126811E-06
 -1.56696956E-05 -1.56689866E-05  6.17291044E-11 -3.29653516E-09 -1.15398523E-11
  2.29652959E-06 -7.99389506E-05 -1.28490109E-04 -8.14945737E-06 -1.03694207E-08
  4.43583328E-06  2.30747527E-06 -7.99026797E-05 -1.28720685E-04 -8.14003772E-06
 -3.85585559E-06 -2.23489856E-06  2.30776471E-06 -7.99023370E-05 -1.28722456E-04
 -8.13977919E-06  3.86575000E-06 -2.21671067E-06  8.44943618E-05  3.46906387E-04
 -4.99955725E-04  2.48605531E-09 -1.26351260E-07  1.76780888E-04  1.18567124E-03
 -3.60655421E-09  6.14281105E-08 -7.89591509E-03  4.40661047E-03 -1.73105882E-08
  3.85167306E-07 -1.17994239E-03  1.39992372E-05  1.39990139E-05  6.40459255E-09
 -3.05016967E-07  2.25193792E-11  9.92766802E-01  3.45806923E-02 -1.96537601E-03
  1.09250589E-08 -5.70308804E-07  3.58653457E-03  8.65588505E-04 -5.59797537E-09
  3.08759439E-07 -3.22779621E-03 -5.08565807E-04  2.36104384E-09  2.19940843E-08
 -7.42290682E-03 -8.32889754E-03 -8.32890055E-03 -5.33199840E-09  2.81898770E-07
  8.97598871E-12  2.77105343E-03  8.42856739E-05 -2.19363578E-04  1.91242420E-10
 -5.61216284E-08  5.47817461E-03  2.33461313E-03 -1.02586552E-08  3.77527800E-07
  7.37648921E-02  3.41677985E-02 -4.22152779E-08 -9.88761710E-07 -7.61007848E-04
 -1.50168359E-04 -1.50049694E-04  1.84789283E-09 -1.60964392E-08 -9.80099385E-10
 -2.67294380E-07 -9.07612178E-06  2.69658632E-05  1.18807254E-10 -5.59221179E-09
 -1.65574892E-05 -1.71682556E-04 -6.69532826E-10  3.47880099E-08 -2.05282069E-04
  7.38160096E-04  1.73680029E-09 -1.25616456E-07  8.80522099E-03  2.91761736E-03
  1.71586822E-08 -5.62101634E-07  3.73073201E-05 -4.43151772E-05 -4.43114174E-05
  4.92537914E-10 -2.53240662E-08 -8.64037019E-11 -1.21890858E-04 -6.42065851E-04
  6.88327269E-04 -1.94964780E-06 -2.78874371E-09  1.22049905E-06 -1.21892857E-04
 -6.42386282E-04  6.88923939E-04 -1.69672936E-06 -1.01240185E-06 -6.18864944E-07
 -1.21893432E-04 -6.42391606E-04  6.88925569E-04 -1.70158262E-06  1.01467976E-06
 -6.13746396E-07  9.92847980E-01  4.99221854E-02  4.34106846E-04 -2.66910498E-09
  3.55336822E-07 -1.06393433E-02  6.04479074E-03 -1.73739278E-08  1.48319590E-07
 -8.89030291E-02  2.54073805E-02 -9.26815007E-08 -5.70810816E-07 -8.16555114E-03
 -9.70517767E-03 -9.70517899E-03 -8.50808368E-09  3.94733514E-07  1.19007529E-10
 -4.09830485E-04  3.91820621E-04  2.48427430E-04 -8.91429822E-10  6.92684743E-08
 -6.72660826E-03  2.69447592E-03 -1.95274174E-08  1.06717755E-06  9.63652189E-03
 -6.80443883E-03  3.66071145E-08 -4.29081239E-07  4.11121672E-05  3.29634476E-04
  3.29634834E-04  2.94645179E-09 -2.10980548E-07 -8.82055809E-12  9.93088676E-01
  5.02218571E-02  6.56974496E-04  1.76029609E-09  3.23793624E-07 -2.28568345E-02
 -4.17963598E-03  9.93753861E-09 -1.67948512E-06  3.89549441E-02  2.09399856E-02
 -4.22729830E-09 -1.89054177E-06 -9.10408335E-03 -8.69622498E-03 -8.69605725E-03
  1.49898182E-09  1.45915958E-07  1.84769906E-09  1.49466446E-06  2.14687749E-05
 -2.66429854E-07  2.70831102E-10  5.50611437E-09  7.29501331E-05 -1.30223468E-05
 -1.71265124E-09 -3.43102524E-08 -4.69055549E-04  1.39867214E-04  5.47637097E-09
  1.28308006E-07  6.20277055E-03  2.09874533E-03  1.09607376E-08 -4.11664561E-07
  4.14657099E-05  3.30243811E-05  3.30092573E-05  1.39319829E-09  1.87348085E-08
  3.85223098E-10 -3.28173247E-05  3.18046126E-03  3.51577789E-04  2.64281395E-05
  3.06204196E-07 -1.31120337E-04 -3.25607752E-05  3.18203534E-03  3.53669694E-04
  2.63726806E-05  1.13363665E-04  6.58948802E-05 -3.25614394E-05  3.18203630E-03
  3.53689989E-04  2.63769128E-05 -1.13667705E-04  6.53668418E-05 -2.98648768E-03
 -1.58058996E-04  8.99439780E-05  1.15312422E-09  2.30365846E-08  1.24743051E-03
 -9.24103856E-03  2.41982581E-08 -7.63001555E-07 -4.93534753E-02  1.29910152E-02
 -6.68451635E-08 -1.70989270E-07 -7.84234426E-04 -3.37686735E-05 -3.37420458E-05
  3.87681352E-09 -1.18665943E-07 -6.39560803E-10 -3.27708495E-05 -1.24715462E-04
 -2.48991373E-04  8.07451378E-10 -2.25198334E-08  5.92500563E-03 -2.12636490E-03
  1.83916273E-08 -1.30997498E-06  5.18147494E-03 -2.54843387E-03  2.39317532E-08
 -1.14488791E-08  1.64937151E-04 -9.52309662E-05 -9.52273292E-05 -3.57669765E-09
  2.45845437E-07  2.85288950E-11  4.89523157E-05  2.18903649E-04  2.75495735E-04
 -7.75698302E-10 -9.65664696E-08 -3.94743632E-03 -4.16449244E-03  1.22839401E-08
  8.90935187E-07  9.19751894E-03  9.50612886E-03 -4.79579171E-09 -4.75637025E-07
 -1.28558753E-05  8.99368145E-05  8.99238912E-05  1.83580645E-10 -4.12185732E-08
 -1.71603932E-10 -2.84632671E-01  1.02269533E+00  5.80511760E-05 -2.10382650E-09
 -1.17489603E-08  7.53233490E-02  5.04799993E-04  2.73346981E-10 -5.77950008E-08
 -2.20987172E-02 -1.63397870E-03 -6.64795216E-10  1.57390627E-07  1.54190593E-02
  5.21650696E-03  4.14488001E-11 -5.25755008E-07 -1.56424997E-02 -1.55348854E-02
 -1.55348635E-02 -5.04001465E-10  1.51527117E-08  1.92517705E-12 -6.76476623E-05
 -3.40223532E-04 -2.59138659E-03  6.22938740E-05  2.86133211E-08 -1.26689740E-05
 -6.76076575E-05 -3.41087821E-04 -2.59119632E-03  6.23880329E-05  1.10208668E-05
  6.35224462E-06 -6.76113887E-05 -3.41064362E-04 -2.59129407E-03  6.23809380E-05
 -1.10490026E-05  6.29911734E-06 -4.21244689E-05 -2.49102026E-04 -1.77702936E-05
 -1.11201454E-10 -4.51976944E-09 -2.60047175E-04 -5.71664137E-03  2.14034195E-08
 -7.34932957E-07 -7.93422580E-03  1.73836795E-03 -3.54200991E-08  1.09764282E-06
  5.44188240E-05 -4.06927124E-05 -4.07029379E-05  1.09837351E-10 -3.16610671E-08
  1.90668064E-10 -1.11143764E-04 -4.41348556E-04  1.01233659E-05 -1.49096284E-10
  3.77979600E-08  5.62448058E-03 -1.70219861E-03  1.03772551E-08 -7.52232416E-07
 -2.05372027E-03  8.59948315E-04  7.68261277E-09 -2.27264793E-07 -1.66915253E-04
 -2.25168184E-04 -2.25167183E-04 -7.70080541E-10  6.51658115E-08 -4.49557536E-11
 -3.22901829E-08 -1.54738268E-07  3.93939714E-08  2.07459226E-07 -2.31084307E-05
  8.65914747E-07 -7.16496429E-07  5.43551251E-06 -6.04491651E-04 -8.53272065E-06
 -6.20010061E-06 -3.46450366E-06  3.85691969E-04  6.81553232E-09 -3.61633483E-05
  3.60360920E-05 -1.29863807E-07  1.44267546E-05  8.39876128E-08  6.36003471E-09
 -5.32047968E-09  2.06234695E-04 -8.90868117E-03  9.90764139E-01  1.43296825E-07
  6.25883379E-06 -2.67150375E-04  2.97106908E-02 -2.61836352E-07 -2.69035320E-06
  1.03962877E-04 -1.15619391E-02 -1.87227757E-06  3.72494081E-07 -4.60605575E-05
  5.12227623E-03 -7.52946201E-09  1.76444525E-06 -1.78117001E-06 -3.56350043E-07
  3.96655571E-05 -3.56423747E-09  1.53050101E-04 -1.28970125E-03  4.74472066E-03
  9.71489930E-05  8.76423989E-08 -1.31895454E-04 -7.56849380E-05  6.36551510E-04
 -2.34641546E-03 -4.79874555E-05 -7.07083685E-05 -8.00409555E-06 -7.74516575E-05
  6.51438144E-04 -2.40120811E-03 -4.91099858E-05  7.19565020E-05 -8.62185926E-06
 -2.23016696E-09 -1.03071969E-08 -2.95526661E-08 -4.86262782E-07  5.40883543E-05
 -8.51701410E-08 -2.82204227E-07  1.27477781E-06 -1.41841785E-04  1.53578543E-05
 -3.25699337E-06 -1.03698887E-05  1.15336003E-03 -1.13181366E-08 -6.19881898E-06
  6.20306942E-06  1.66846646E-07 -1.85616276E-05  1.46089708E-08 -2.32240674E-08
 -8.04162517E-08  4.63232251E-09  1.36499670E-07 -1.51983960E-05  7.41627223E-07
 -2.18661293E-07 -9.04915116E-07  1.00727164E-04 -2.17561566E-06  7.01972819E-07
  3.53104335E-06 -3.92895753E-04 -2.11866232E-08  3.53188952E-06 -3.65188468E-06
  1.28681773E-07 -1.43114340E-05 -8.30124019E-09 -1.40944867E-09 -5.93316774E-09
  1.29380022E-09 -2.32622269E-05 -2.09494183E-07  5.13044711E-08 -2.34058524E-08
 -6.02986875E-04 -5.42177936E-06  1.02762635E-07 -1.63506402E-08  3.84068156E-04
  3.45697272E-06 -2.51506109E-09 -7.40261893E-08  7.04145610E-08  1.42862136E-05
  1.28314726E-07 -4.16179982E-05 -9.66994438E-10  3.02767023E-09 -4.59770240E-06
  9.90764195E-01  8.90868249E-03 -3.32439784E-09 -1.39695483E-07  2.97105339E-02
  2.67149109E-04  7.53089191E-09  5.44573910E-08 -1.15615613E-02 -1.03957346E-04
 -4.17626929E-08 -3.52981456E-08  5.12161803E-03  4.60497544E-05 -7.28742272E-10
  3.67482460E-09 -3.68376470E-09  3.96672117E-05  3.56988864E-07  2.02142611E-06
  1.02153542E-06 -8.61938480E-06  3.15819817E-05  6.49032988E-07  3.28599704E-05
 -8.03870434E-07 -1.33271174E-04  1.11985999E-03 -4.12288178E-03 -8.44180162E-05
 -9.09319635E-05 -7.15519068E-05  1.32249018E-04 -1.11135583E-03  4.09125721E-03
  8.37770078E-05 -9.03170925E-05  7.10218153E-05  1.40219588E-10  4.01845991E-10
  2.02692582E-10  5.40983522E-05  4.86522592E-07 -1.88966976E-08 -1.33407746E-08
 -1.42185185E-04 -1.27912492E-06  2.34063074E-08  2.75945025E-09  1.15279368E-03
  1.03664001E-05 -2.02972438E-11 -1.18582241E-08  1.27296240E-08 -1.85098827E-05
 -1.66489914E-07 -7.17539266E-06 -6.54678015E-10 -2.48941535E-09  8.85533730E-11
 -1.52001947E-05 -1.36836251E-07  2.52153457E-08 -8.28369721E-09  1.00775298E-04
  9.06938655E-07 -1.73774206E-08  6.47747756E-09 -3.92333212E-04 -3.52951584E-06
 -8.77282765E-10  5.79586338E-09 -8.69258059E-09 -1.43363011E-05 -1.28910722E-07
  4.14672859E-06 -3.10460958E-05 -2.07164368E-04  1.06358880E-04 -1.94969301E-09
 -6.98130132E-09 -2.21567526E-03 -3.49838417E-03  1.10167836E-08 -9.04636406E-08
 -1.18537246E-01 -5.83869126E-02  6.25286273E-08  2.24880920E-06  9.81485589E-05
 -9.77584064E-05 -9.76979988E-05 -3.59661711E-10 -8.34443504E-08 -1.01023837E-09
  6.20084342E-05 -6.38076063E-05  9.90677839E-01  6.45217376E-06 -2.06184994E-04
  4.46063488E-04  3.04165468E-02  1.94735689E-07 -6.25981042E-06 -1.59831734E-03
 -1.38398954E-02 -7.91924989E-08  2.63502043E-06 -1.35156261E-02  7.51164861E-05
  2.33926343E-09  8.83642696E-09  1.46940583E-04  3.17531753E-04  3.17544996E-04
 -9.51671636E-10  2.82775739E-08  1.11331875E-10 -1.45562009E-04  5.48511284E-04
 -2.89410629E-03 -2.07383216E-05 -1.92352866E-07  8.20676737E-05 -1.45547751E-04
  5.48485090E-04 -2.89464855E-03 -2.05410905E-05 -7.09376677E-05 -4.11976873E-05
 -1.45541225E-04  5.48488460E-04 -2.89461300E-03 -2.05531568E-05  7.11286430E-05
 -4.08685851E-05 -1.37648325E-04 -5.86514573E-04  4.02685424E-06  1.96916558E-10