 Entering Gaussian System, Link 0=g16
 Initial command:
 /usr/local/g16_AVX//g16/l1.exe "/scratch/alanqf/0060-54502.ixchel.mda.cinvestav.mx/Gau-19720.inp" -scrdir="/scratch/alanqf/0060-54502.ixchel.mda.cinvestav.mx/"
 Entering Link 1 = /usr/local/g16_AVX//g16/l1.exe PID=     19721.
  
 Copyright (c) 1988-2017, Gaussian, Inc.  All Rights Reserved.
  
 This is part of the Gaussian(R) 16 program.  It is based on
 the Gaussian(R) 09 system (copyright 2009, Gaussian, Inc.),
 the Gaussian(R) 03 system (copyright 2003, Gaussian, Inc.),
 the Gaussian(R) 98 system (copyright 1998, Gaussian, Inc.),
 the Gaussian(R) 94 system (copyright 1995, Gaussian, Inc.),
 the Gaussian 92(TM) system (copyright 1992, Gaussian, Inc.),
 the Gaussian 90(TM) system (copyright 1990, Gaussian, Inc.),
 the Gaussian 88(TM) system (copyright 1988, Gaussian, Inc.),
 the Gaussian 86(TM) system (copyright 1986, Carnegie Mellon
 University), and the Gaussian 82(TM) system (copyright 1983,
 Carnegie Mellon University). Gaussian is a federally registered
 trademark of Gaussian, Inc.
  
 This software contains proprietary and confidential information,
 including trade secrets, belonging to Gaussian, Inc.
  
 This software is provided under written license and may be
 used, copied, transmitted, or stored only in accord with that
 written license.
  
 The following legend is applicable only to US Government
 contracts under FAR:
  
                    RESTRICTED RIGHTS LEGEND
  
 Use, reproduction and disclosure by the US Government is
 subject to restrictions as set forth in subparagraphs (a)
 and (c) of the Commercial Computer Software - Restricted
 Rights clause in FAR 52.227-19.
  
 Gaussian, Inc.
 340 Quinnipiac St., Bldg. 40, Wallingford CT 06492
  
  
 ---------------------------------------------------------------
 Warning -- This program may not be used in any manner that
 competes with the business of Gaussian, Inc. or will provide
 assistance to any competitor of Gaussian, Inc.  The licensee
 of this program is prohibited from giving any competitor of
 Gaussian, Inc. access to this program.  By using this program,
 the user acknowledges that Gaussian, Inc. is engaged in the
 business of creating and licensing software in the field of
 computational chemistry and represents and warrants to the
 licensee that it is not a competitor of Gaussian, Inc. and that
 it will not use this program in any manner prohibited above.
 ---------------------------------------------------------------
  

 Cite this work as:
 Gaussian 16, Revision B.01,
 M. J. Frisch, G. W. Trucks, H. B. Schlegel, G. E. Scuseria, 
 M. A. Robb, J. R. Cheeseman, G. Scalmani, V. Barone, 
 G. A. Petersson, H. Nakatsuji, X. Li, M. Caricato, A. V. Marenich, 
 J. Bloino, B. G. Janesko, R. Gomperts, B. Mennucci, H. P. Hratchian, 
 J. V. Ortiz, A. F. Izmaylov, J. L. Sonnenberg, D. Williams-Young, 
 F. Ding, F. Lipparini, F. Egidi, J. Goings, B. Peng, A. Petrone, 
 T. Henderson, D. Ranasinghe, V. G. Zakrzewski, J. Gao, N. Rega, 
 G. Zheng, W. Liang, M. Hada, M. Ehara, K. Toyota, R. Fukuda, 
 J. Hasegawa, M. Ishida, T. Nakajima, Y. Honda, O. Kitao, H. Nakai, 
 T. Vreven, K. Throssell, J. A. Montgomery, Jr., J. E. Peralta, 
 F. Ogliaro, M. J. Bearpark, J. J. Heyd, E. N. Brothers, K. N. Kudin, 
 V. N. Staroverov, T. A. Keith, R. Kobayashi, J. Normand, 
 K. Raghavachari, A. P. Rendell, J. C. Burant, S. S. Iyengar, 
 J. Tomasi, M. Cossi, J. M. Millam, M. Klene, C. Adamo, R. Cammi, 
 J. W. Ochterski, R. L. Martin, K. Morokuma, O. Farkas, 
 J. B. Foresman, and D. J. Fox, Gaussian, Inc., Wallingford CT, 2016.
 
 ******************************************
 Gaussian 16:  ES64L-G16RevB.01 20-Dec-2017
                13-Oct-2024 
 ******************************************
 %NProcShared=26
 Will use up to   26 processors via shared memory.
 %MEM=20GB
 %chk=CHKfiles/0060.chk
 ---------------------------------------------------------------------
 #p b3lyp 6-31++g(d,p) scf=verytight NoSymm freq=noraman int=ultrafine
 ---------------------------------------------------------------------
 1/10=4,30=1,38=1/1,3;
 2/12=2,15=1,17=6,18=5,40=1/2;
 3/5=1,6=6,7=1111,11=2,25=1,30=1,71=2,74=-5,75=-5,140=1/1,2,3;
 4//1;
 5/5=2,17=3,38=5,98=1/2;
 8/6=4,10=90,11=11/1;
 11/6=1,8=1,9=11,15=111,16=1,31=1/1,2,10;
 10/6=1,31=1/2;
 6/7=2,8=2,9=2,10=2,28=1/1;
 7/8=1,10=1,25=1,30=1/1,2,3,16;
 1/10=4,30=1/3;
 99//99;
 Leave Link    1 at Sun Oct 13 09:49:07 2024, MaxMem=  2684354560 cpu:               1.8 elap:               0.1
 (Enter /usr/local/g16_AVX//g16/l101.exe)
 ------------------------
 RxCoord=-4.09911 DE=9.64
 ------------------------
 Symbolic Z-matrix:
 Charge = -1 Multiplicity = 1
 C                     0.56356   0.00001  -0.0002 
 Cl                   -2.26931   0.        0.00008 
 H                     0.20718   0.0024   -1.02848 
 H                     0.20765   0.88933   0.51635 
 H                     0.20763  -0.89171   0.51221 
 C                     2.13508   0.       -0.00019 
 N                     3.30958  -0.00001   0.00012 
 
 ITRead=  0  0  0  0  0  0  0
 MicOpt= -1 -1 -1 -1 -1 -1 -1
 NAtoms=      7 NQM=        7 NQMF=       0 NMMI=      0 NMMIF=      0
                NMic=       0 NMicF=      0.
                    Isotopes and Nuclear Properties:
 (Nuclear quadrupole moments (NQMom) in fm**2, nuclear magnetic moments (NMagM)
  in nuclear magnetons)

  Atom         1           2           3           4           5           6           7
 IAtWgt=          12          35           1           1           1          12          14
 AtmWgt=  12.0000000  34.9688527   1.0078250   1.0078250   1.0078250  12.0000000  14.0030740
 NucSpn=           0           3           1           1           1           0           2
 AtZEff=  -0.0000000  -0.0000000  -0.0000000  -0.0000000  -0.0000000  -0.0000000  -0.0000000
 NQMom=    0.0000000  -8.1650000   0.0000000   0.0000000   0.0000000   0.0000000   2.0440000
 NMagM=    0.0000000   0.8218740   2.7928460   2.7928460   2.7928460   0.0000000   0.4037610
 AtZNuc=   6.0000000  17.0000000   1.0000000   1.0000000   1.0000000   6.0000000   7.0000000
 Leave Link  101 at Sun Oct 13 09:49:08 2024, MaxMem=  2684354560 cpu:               3.3 elap:               0.2
 (Enter /usr/local/g16_AVX//g16/l103.exe)

 GradGradGradGradGradGradGradGradGradGradGradGradGradGradGradGradGradGrad
 Berny optimization.
 Initialization pass.
 Trust Radius=3.00D-01 FncErr=1.00D-07 GrdErr=1.00D-07 EigMax=2.50D+02 EigMin=1.00D-04
 Number of steps in this run=      2 maximum allowed number of steps=      2.
 GradGradGradGradGradGradGradGradGradGradGradGradGradGradGradGradGradGrad

 Leave Link  103 at Sun Oct 13 09:49:08 2024, MaxMem=  2684354560 cpu:               0.5 elap:               0.1
 (Enter /usr/local/g16_AVX//g16/l202.exe)
                          Input orientation:                          
 ---------------------------------------------------------------------
 Center     Atomic      Atomic             Coordinates (Angstroms)
 Number     Number       Type             X           Y           Z
 ---------------------------------------------------------------------
      1          6           0        0.563559    0.000005   -0.000195
      2         17           0       -2.269311    0.000000    0.000082
      3          1           0        0.207177    0.002398   -1.028476
      4          1           0        0.207645    0.889325    0.516352
      5          1           0        0.207632   -0.891707    0.512205
      6          6           0        2.135078    0.000001   -0.000193
      7          7           0        3.309576   -0.000005    0.000123
 ---------------------------------------------------------------------
                    Distance matrix (angstroms):
                    1          2          3          4          5
     1  C    0.000000
     2  Cl   2.832870   0.000000
     3  H    1.088290   2.681591   0.000000
     4  H    1.088295   2.681929   1.781329   0.000000
     5  H    1.088296   2.681913   1.781326   1.781037   0.000000
     6  C    1.571519   4.404389   2.184988   2.184654   2.184661
     7  N    2.746017   5.578887   3.268471   3.267931   3.267938
                    6          7
     6  C    0.000000
     7  N    1.174498   0.000000
 Symmetry turned off by external request.
 Stoichiometry    C2H3ClN(1-)
 Framework group  C1[X(C2H3ClN)]
 Deg. of freedom    15
 Full point group                 C1      NOp   1
 Rotational constants (GHZ):         158.0489490           1.2836525           1.2836502
 Leave Link  202 at Sun Oct 13 09:49:08 2024, MaxMem=  2684354560 cpu:               0.2 elap:               0.1
 (Enter /usr/local/g16_AVX//g16/l301.exe)
 Standard basis: 6-31++G(d,p) (6D, 7F)
 Ernie: Thresh=  0.10000D-02 Tol=  0.10000D-05 Strict=F.
    98 basis functions,   176 primitive gaussians,    98 cartesian basis functions
    20 alpha electrons       20 beta electrons
       nuclear repulsion energy       109.2026515699 Hartrees.
 IExCor=  402 DFT=T Ex+Corr=B3LYP ExCW=0 ScaHFX=  0.200000
 ScaDFX=  0.800000  0.720000  1.000000  0.810000 ScalE2=  1.000000  1.000000
 IRadAn=      5 IRanWt=     -1 IRanGd=            0 ICorTp=0 IEmpDi=  4
 NAtoms=    7 NActive=    7 NUniq=    7 SFac= 1.00D+00 NAtFMM=   60 NAOKFM=F Big=F
 Integral buffers will be    131072 words long.
 Raffenetti 2 integral format.
 Two-electron integral symmetry is turned off.
 Leave Link  301 at Sun Oct 13 09:49:08 2024, MaxMem=  2684354560 cpu:               1.3 elap:               0.1
 (Enter /usr/local/g16_AVX//g16/l302.exe)
 NPDir=0 NMtPBC=     1 NCelOv=     1 NCel=       1 NClECP=     1 NCelD=      1
         NCelK=      1 NCelE2=     1 NClLst=     1 CellRange=     0.0.
 One-electron integrals computed using PRISM.
 NBasis=    98 RedAO= T EigKep=  1.75D-05  NBF=    98
 NBsUse=    98 1.00D-06 EigRej= -1.00D+00 NBFU=    98
 Precomputing XC quadrature grid using
 IXCGrd= 4 IRadAn=           5 IRanWt=          -1 IRanGd=           0 AccXCQ= 0.00D+00.
 Generated NRdTot=       0 NPtTot=           0 NUsed=           0 NTot=          32
 NSgBfM=    98    98    98    98    98 MxSgAt=     7 MxSgA2=     7.
 Leave Link  302 at Sun Oct 13 09:49:08 2024, MaxMem=  2684354560 cpu:               3.9 elap:               0.2
 (Enter /usr/local/g16_AVX//g16/l303.exe)
 DipDrv:  MaxL=1.
 Leave Link  303 at Sun Oct 13 09:49:08 2024, MaxMem=  2684354560 cpu:               0.7 elap:               0.1
 (Enter /usr/local/g16_AVX//g16/l401.exe)
 ExpMin= 3.60D-02 ExpMax= 2.52D+04 ExpMxC= 3.78D+03 IAcc=3 IRadAn=         5 AccDes= 0.00D+00
 Harris functional with IExCor=  402 and IRadAn=       5 diagonalized for initial guess.
 HarFok:  IExCor=  402 AccDes= 0.00D+00 IRadAn=         5 IDoV= 1 UseB2=F ITyADJ=14
 ICtDFT=  3500011 ScaDFX=  1.000000  1.000000  1.000000  1.000000
 FoFCou: FMM=F IPFlag=           0 FMFlag=      100000 FMFlg1=           0
         NFxFlg=           0 DoJE=T BraDBF=F KetDBF=T FulRan=T
         wScrn=  0.000000 ICntrl=       500 IOpCl=  0 I1Cent=   200000004 NGrid=           0
         NMat0=    1 NMatS0=      1 NMatT0=    0 NMatD0=    1 NMtDS0=    0 NMtDT0=    0
 Symmetry not used in FoFCou.
 Harris En= -593.098473406056    
 JPrj=0 DoOrth=F DoCkMO=F.
 Leave Link  401 at Sun Oct 13 09:49:09 2024, MaxMem=  2684354560 cpu:               5.9 elap:               0.3
 (Enter /usr/local/g16_AVX//g16/l502.exe)
 Keep R1 ints in memory in canonical form, NReq=35752935.
 FoFCou: FMM=F IPFlag=           0 FMFlag=           0 FMFlg1=           0
         NFxFlg=           0 DoJE=F BraDBF=F KetDBF=F FulRan=T
         wScrn=  0.000000 ICntrl=       600 IOpCl=  0 I1Cent=           0 NGrid=           0
         NMat0=    1 NMatS0=   4851 NMatT0=    0 NMatD0=    1 NMtDS0=    0 NMtDT0=    0
 Symmetry not used in FoFCou.
 Two-electron integral symmetry not used.
 Closed shell SCF:
 Using DIIS extrapolation, IDIIS=  1040.
 NGot=  2684354560 LenX=  2672563405 LenY=  2672553360
 Requested convergence on RMS density matrix=1.00D-08 within 128 cycles.
 Requested convergence on MAX density matrix=1.00D-06.
 Requested convergence on             energy=1.00D-06.
 No special actions if energy rises.

 Cycle   1  Pass 1  IDiag  1:
 E= -592.941678817163    
 DIIS: error= 3.09D-02 at cycle   1 NSaved=   1.
 NSaved= 1 IEnMin= 1 EnMin= -592.941678817163     IErMin= 1 ErrMin= 3.09D-02
 ErrMax= 3.09D-02  0.00D+00 EMaxC= 1.00D-01 BMatC= 1.04D-01 BMatP= 1.04D-01
 IDIUse=3 WtCom= 6.91D-01 WtEn= 3.09D-01
 Coeff-Com:  0.100D+01
 Coeff-En:   0.100D+01
 Coeff:      0.100D+01
 Gap=     0.166 Goal=   None    Shift=    0.000
 GapD=    0.166 DampG=1.000 DampE=0.500 DampFc=0.5000 IDamp=-1.
 Damping current iteration by 5.00D-01
 RMSDP=1.10D-02 MaxDP=1.75D-01              OVMax= 1.69D-01

 Cycle   2  Pass 1  IDiag  1:
 E= -592.975789591384     Delta-E=       -0.034110774221 Rises=F Damp=T
 DIIS: error= 1.83D-02 at cycle   2 NSaved=   2.
 NSaved= 2 IEnMin= 2 EnMin= -592.975789591384     IErMin= 2 ErrMin= 1.83D-02
 ErrMax= 1.83D-02  0.00D+00 EMaxC= 1.00D-01 BMatC= 1.85D-02 BMatP= 1.04D-01
 IDIUse=3 WtCom= 8.17D-01 WtEn= 1.83D-01
 Coeff-Com:  0.204D+00 0.796D+00
 Coeff-En:   0.298D+00 0.702D+00
 Coeff:      0.221D+00 0.779D+00
 Gap=     0.149 Goal=   None    Shift=    0.000
 RMSDP=4.79D-03 MaxDP=1.35D-01 DE=-3.41D-02 OVMax= 1.57D-01

 Cycle   3  Pass 1  IDiag  1:
 E= -593.029587812904     Delta-E=       -0.053798221520 Rises=F Damp=F
 DIIS: error= 1.41D-02 at cycle   3 NSaved=   3.
 NSaved= 3 IEnMin= 3 EnMin= -593.029587812904     IErMin= 3 ErrMin= 1.41D-02
 ErrMax= 1.41D-02  0.00D+00 EMaxC= 1.00D-01 BMatC= 2.14D-02 BMatP= 1.85D-02
 IDIUse=2 WtCom= 0.00D+00 WtEn= 1.00D+00
 Coeff-En:   0.000D+00 0.000D+00 0.100D+01
 Coeff:      0.000D+00 0.000D+00 0.100D+01
 Gap=     0.173 Goal=   None    Shift=    0.000
 RMSDP=7.44D-03 MaxDP=2.41D-01 DE=-5.38D-02 OVMax= 1.74D-01

 Cycle   4  Pass 1  IDiag  1:
 E= -592.920869686586     Delta-E=        0.108718126317 Rises=F Damp=F
 DIIS: error= 3.63D-02 at cycle   4 NSaved=   4.
 NSaved= 4 IEnMin= 3 EnMin= -593.029587812904     IErMin= 3 ErrMin= 1.41D-02
 ErrMax= 3.63D-02  0.00D+00 EMaxC= 1.00D-01 BMatC= 1.43D-01 BMatP= 1.85D-02
 IDIUse=2 WtCom= 0.00D+00 WtEn= 1.00D+00
 Coeff-En:   0.000D+00 0.000D+00 0.805D+00 0.195D+00
 Coeff:      0.000D+00 0.000D+00 0.805D+00 0.195D+00
 Gap=     0.167 Goal=   None    Shift=    0.000
 RMSDP=3.60D-03 MaxDP=1.17D-01 DE= 1.09D-01 OVMax= 9.03D-02

 Cycle   5  Pass 1  IDiag  1:
 E= -593.039259927589     Delta-E=       -0.118390241003 Rises=F Damp=F
 DIIS: error= 9.76D-03 at cycle   5 NSaved=   5.
 NSaved= 5 IEnMin= 5 EnMin= -593.039259927589     IErMin= 5 ErrMin= 9.76D-03
 ErrMax= 9.76D-03  0.00D+00 EMaxC= 1.00D-01 BMatC= 1.16D-02 BMatP= 1.85D-02
 IDIUse=3 WtCom= 9.02D-01 WtEn= 9.76D-02
 Coeff-Com: -0.570D-02 0.354D-01 0.307D+00-0.116D+00 0.780D+00
 Coeff-En:   0.000D+00 0.000D+00 0.384D+00 0.000D+00 0.616D+00
 Coeff:     -0.514D-02 0.319D-01 0.314D+00-0.105D+00 0.764D+00
 Gap=     0.162 Goal=   None    Shift=    0.000
 RMSDP=1.54D-03 MaxDP=4.89D-02 DE=-1.18D-01 OVMax= 3.47D-02

 Cycle   6  Pass 1  IDiag  1:
 E= -593.049833565838     Delta-E=       -0.010573638249 Rises=F Damp=F
 DIIS: error= 1.93D-04 at cycle   6 NSaved=   6.
 NSaved= 6 IEnMin= 6 EnMin= -593.049833565838     IErMin= 6 ErrMin= 1.93D-04
 ErrMax= 1.93D-04  0.00D+00 EMaxC= 1.00D-01 BMatC= 6.26D-06 BMatP= 1.16D-02
 IDIUse=3 WtCom= 9.98D-01 WtEn= 1.93D-03
 Coeff-Com: -0.335D-02 0.123D-01 0.121D+00-0.506D-01 0.329D+00 0.592D+00
 Coeff-En:   0.000D+00 0.000D+00 0.000D+00 0.000D+00 0.000D+00 0.100D+01
 Coeff:     -0.334D-02 0.123D-01 0.121D+00-0.505D-01 0.329D+00 0.592D+00
 Gap=     0.161 Goal=   None    Shift=    0.000
 RMSDP=4.69D-05 MaxDP=7.81D-04 DE=-1.06D-02 OVMax= 7.72D-04

 Cycle   7  Pass 1  IDiag  1:
 E= -593.049838993186     Delta-E=       -0.000005427348 Rises=F Damp=F
 DIIS: error= 8.45D-05 at cycle   7 NSaved=   7.
 NSaved= 7 IEnMin= 7 EnMin= -593.049838993186     IErMin= 7 ErrMin= 8.45D-05
 ErrMax= 8.45D-05  0.00D+00 EMaxC= 1.00D-01 BMatC= 9.71D-07 BMatP= 6.26D-06
 IDIUse=1 WtCom= 1.00D+00 WtEn= 0.00D+00
 Coeff-Com: -0.419D-03 0.903D-03 0.193D-01-0.894D-02 0.524D-01 0.223D+00
 Coeff-Com:  0.713D+00
 Coeff:     -0.419D-03 0.903D-03 0.193D-01-0.894D-02 0.524D-01 0.223D+00
 Coeff:      0.713D+00
 Gap=     0.162 Goal=   None    Shift=    0.000
 RMSDP=2.06D-05 MaxDP=6.55D-04 DE=-5.43D-06 OVMax= 3.04D-04

 Cycle   8  Pass 1  IDiag  1:
 E= -593.049839953213     Delta-E=       -0.000000960027 Rises=F Damp=F
 DIIS: error= 1.01D-05 at cycle   8 NSaved=   8.
 NSaved= 8 IEnMin= 8 EnMin= -593.049839953213     IErMin= 8 ErrMin= 1.01D-05
 ErrMax= 1.01D-05  0.00D+00 EMaxC= 1.00D-01 BMatC= 8.54D-09 BMatP= 9.71D-07
 IDIUse=1 WtCom= 1.00D+00 WtEn= 0.00D+00
 Coeff-Com:  0.543D-04-0.199D-03 0.152D-02-0.827D-03 0.385D-02 0.307D-01
 Coeff-Com:  0.137D+00 0.828D+00
 Coeff:      0.543D-04-0.199D-03 0.152D-02-0.827D-03 0.385D-02 0.307D-01
 Coeff:      0.137D+00 0.828D+00
 Gap=     0.162 Goal=   None    Shift=    0.000
 RMSDP=4.41D-06 MaxDP=1.28D-04 DE=-9.60D-07 OVMax= 3.00D-05

 Cycle   9  Pass 1  IDiag  1:
 E= -593.049839961388     Delta-E=       -0.000000008175 Rises=F Damp=F
 DIIS: error= 2.34D-06 at cycle   9 NSaved=   9.
 NSaved= 9 IEnMin= 9 EnMin= -593.049839961388     IErMin= 9 ErrMin= 2.34D-06
 ErrMax= 2.34D-06  0.00D+00 EMaxC= 1.00D-01 BMatC= 7.19D-10 BMatP= 8.54D-09
 IDIUse=1 WtCom= 1.00D+00 WtEn= 0.00D+00
 Coeff-Com:  0.454D-04-0.111D-03-0.921D-03 0.187D-03-0.210D-02-0.106D-02
 Coeff-Com:  0.141D-01 0.330D+00 0.659D+00
 Coeff:      0.454D-04-0.111D-03-0.921D-03 0.187D-03-0.210D-02-0.106D-02
 Coeff:      0.141D-01 0.330D+00 0.659D+00
 Gap=     0.162 Goal=   None    Shift=    0.000
 RMSDP=1.20D-06 MaxDP=4.04D-05 DE=-8.17D-09 OVMax= 9.39D-06

 Cycle  10  Pass 1  IDiag  1:
 E= -593.049839962171     Delta-E=       -0.000000000783 Rises=F Damp=F
 DIIS: error= 6.37D-07 at cycle  10 NSaved=  10.
 NSaved=10 IEnMin=10 EnMin= -593.049839962171     IErMin=10 ErrMin= 6.37D-07
 ErrMax= 6.37D-07  0.00D+00 EMaxC= 1.00D-01 BMatC= 4.58D-11 BMatP= 7.19D-10
 IDIUse=1 WtCom= 1.00D+00 WtEn= 0.00D+00
 Coeff-Com:  0.868D-05-0.235D-04-0.155D-03 0.672D-04-0.392D-03-0.708D-03
 Coeff-Com: -0.324D-02 0.417D-01 0.179D+00 0.784D+00
 Coeff:      0.868D-05-0.235D-04-0.155D-03 0.672D-04-0.392D-03-0.708D-03
 Coeff:     -0.324D-02 0.417D-01 0.179D+00 0.784D+00
 Gap=     0.162 Goal=   None    Shift=    0.000
 RMSDP=1.37D-07 MaxDP=3.69D-06 DE=-7.83D-10 OVMax= 2.23D-06

 Cycle  11  Pass 1  IDiag  1:
 E= -593.049839962221     Delta-E=       -0.000000000050 Rises=F Damp=F
 DIIS: error= 1.11D-07 at cycle  11 NSaved=  11.
 NSaved=11 IEnMin=11 EnMin= -593.049839962221     IErMin=11 ErrMin= 1.11D-07
 ErrMax= 1.11D-07  0.00D+00 EMaxC= 1.00D-01 BMatC= 9.09D-13 BMatP= 4.58D-11
 IDIUse=1 WtCom= 1.00D+00 WtEn= 0.00D+00
 Coeff-Com: -0.566D-06 0.949D-06-0.237D-04 0.117D-04-0.506D-04-0.251D-03
 Coeff-Com: -0.163D-02-0.227D-02 0.199D-01 0.160D+00 0.825D+00
 Coeff:     -0.566D-06 0.949D-06-0.237D-04 0.117D-04-0.506D-04-0.251D-03
 Coeff:     -0.163D-02-0.227D-02 0.199D-01 0.160D+00 0.825D+00
 Gap=     0.162 Goal=   None    Shift=    0.000
 RMSDP=1.21D-07 MaxDP=4.26D-06 DE=-5.05D-11 OVMax= 3.26D-07

 Cycle  12  Pass 1  IDiag  1:
 E= -593.049839962223     Delta-E=       -0.000000000002 Rises=F Damp=F
 DIIS: error= 3.07D-08 at cycle  12 NSaved=  12.
 NSaved=12 IEnMin=12 EnMin= -593.049839962223     IErMin=12 ErrMin= 3.07D-08
 ErrMax= 3.07D-08  0.00D+00 EMaxC= 1.00D-01 BMatC= 3.19D-14 BMatP= 9.09D-13
 IDIUse=1 WtCom= 1.00D+00 WtEn= 0.00D+00
 Coeff-Com: -0.737D-06 0.163D-05-0.759D-06-0.179D-06 0.278D-05-0.391D-04
 Coeff-Com: -0.249D-03-0.214D-02-0.188D-02 0.109D-01 0.232D+00 0.762D+00
 Coeff:     -0.737D-06 0.163D-05-0.759D-06-0.179D-06 0.278D-05-0.391D-04
 Coeff:     -0.249D-03-0.214D-02-0.188D-02 0.109D-01 0.232D+00 0.762D+00
 Gap=     0.162 Goal=   None    Shift=    0.000
 RMSDP=1.86D-08 MaxDP=6.63D-07 DE=-1.59D-12 OVMax= 6.99D-08

 Cycle  13  Pass 1  IDiag  1:
 E= -593.049839962222     Delta-E=        0.000000000001 Rises=F Damp=F
 DIIS: error= 1.77D-09 at cycle  13 NSaved=  13.
 NSaved=13 IEnMin=12 EnMin= -593.049839962223     IErMin=13 ErrMin= 1.77D-09
 ErrMax= 1.77D-09  0.00D+00 EMaxC= 1.00D-01 BMatC= 4.53D-16 BMatP= 3.19D-14
 IDIUse=1 WtCom= 1.00D+00 WtEn= 0.00D+00
 Coeff-Com: -0.133D-07 0.558D-08 0.402D-06-0.626D-07 0.529D-06-0.140D-05
 Coeff-Com:  0.212D-04-0.633D-04-0.478D-03 0.777D-04-0.837D-02 0.160D-01
 Coeff-Com:  0.993D+00
 Coeff:     -0.133D-07 0.558D-08 0.402D-06-0.626D-07 0.529D-06-0.140D-05
 Coeff:      0.212D-04-0.633D-04-0.478D-03 0.777D-04-0.837D-02 0.160D-01
 Coeff:      0.993D+00
 Gap=     0.162 Goal=   None    Shift=    0.000
 RMSDP=1.72D-09 MaxDP=4.69D-08 DE= 1.14D-12 OVMax= 1.21D-08

 SCF Done:  E(RB3LYP) =  -593.049839962     A.U. after   13 cycles
            NFock= 13  Conv=0.17D-08     -V/T= 2.0049
 KE= 5.901630547437D+02 PE=-1.628753275699D+03 EE= 3.363377294229D+02
 Leave Link  502 at Sun Oct 13 09:49:10 2024, MaxMem=  2684354560 cpu:              38.9 elap:               1.8
 (Enter /usr/local/g16_AVX//g16/l801.exe)
 DoSCS=F DFT=T ScalE2(SS,OS)=  1.000000  1.000000
 Range of M.O.s used for correlation:     1    98
 NBasis=    98 NAE=    20 NBE=    20 NFC=     0 NFV=     0
 NROrb=     98 NOA=    20 NOB=    20 NVA=    78 NVB=    78

 **** Warning!!: The largest alpha MO coefficient is  0.10545572D+03

 Leave Link  801 at Sun Oct 13 09:49:11 2024, MaxMem=  2684354560 cpu:               0.7 elap:               0.1
 (Enter /usr/local/g16_AVX//g16/l1101.exe)
 Using compressed storage, NAtomX=     7.
 Will process      8 centers per pass.
 Leave Link 1101 at Sun Oct 13 09:49:11 2024, MaxMem=  2684354560 cpu:               3.5 elap:               0.2
 (Enter /usr/local/g16_AVX//g16/l1102.exe)
 Symmetrizing basis deriv contribution to polar:
 IMax=3 JMax=2 DiffMx= 0.00D+00
 Leave Link 1102 at Sun Oct 13 09:49:11 2024, MaxMem=  2684354560 cpu:               0.7 elap:               0.1
 (Enter /usr/local/g16_AVX//g16/l1110.exe)
 Forming Gx(P) for the SCF density, NAtomX=     7.
 Integral derivatives from FoFJK, PRISM(SPDF).
 Do as many integral derivatives as possible in FoFJK.
 G2DrvN: MDV=    2684353864.
 G2DrvN: will do     8 centers at a time, making    1 passes.
 Calling FoFCou, ICntrl=  3107 FMM=F I1Cent=   0 AccDes= 0.00D+00.
 FoFJK:  IHMeth= 1 ICntrl=    3107 DoSepK=F KAlg= 0 I1Cent=           0 FoldK=F
 IRaf=         0 NMat=       1 IRICut=       1 DoRegI=T DoRafI=F ISym2E= 0 IDoP0=0 IntGTp=1.
 FoFCou: FMM=F IPFlag=           0 FMFlag=      100000 FMFlg1=           0
         NFxFlg=           0 DoJE=F BraDBF=F KetDBF=F FulRan=T
         wScrn=  0.000000 ICntrl=      3107 IOpCl=  0 I1Cent=           0 NGrid=           0
         NMat0=    1 NMatS0=      1 NMatT0=    0 NMatD0=    1 NMtDS0=    0 NMtDT0=    0
 Symmetry not used in FoFCou.
 End of G2Drv F.D. properties file   721 does not exist.
 End of G2Drv F.D. properties file   722 does not exist.
 End of G2Drv F.D. properties file   788 does not exist.
 Leave Link 1110 at Sun Oct 13 09:49:12 2024, MaxMem=  2684354560 cpu:              40.6 elap:               1.6
 (Enter /usr/local/g16_AVX//g16/l1002.exe)
 Minotr:  Closed shell wavefunction.
          IDoAtm=1111111
          Direct CPHF calculation.
          Differentiating once with respect to electric field.
                with respect to dipole field.
          Differentiating once with respect to nuclear coordinates.
          Requested convergence is 1.0D-08 RMS, and 1.0D-07 maximum.
          Secondary convergence is 1.0D-12 RMS, and 1.0D-12 maximum.
          NewPWx=T KeepS1=F KeepF1=F KeepIn=T MapXYZ=F SortEE=F KeepMc=T.
         2122 words used for storage of precomputed grid.
 Keep R1 ints in memory in canonical form, NReq=35668383.
 FoFCou: FMM=F IPFlag=           0 FMFlag=           0 FMFlg1=           0
         NFxFlg=           0 DoJE=F BraDBF=F KetDBF=F FulRan=T
         wScrn=  0.000000 ICntrl=       600 IOpCl=  0 I1Cent=           0 NGrid=           0
         NMat0=    1 NMatS0=   4851 NMatT0=    0 NMatD0=    1 NMtDS0=    0 NMtDT0=    0
 Symmetry not used in FoFCou.
 Two-electron integral symmetry not used.
          MDV=    2684354560 using IRadAn=       1.
          Solving linear equations simultaneously, MaxMat=       0.
          There are    24 degrees of freedom in the 1st order CPHF.  IDoFFX=6 NUNeed=     3.
     21 vectors produced by pass  0 Test12= 6.50D-15 4.17D-09 XBig12= 7.33D+01 3.37D+00.
 AX will form    21 AO Fock derivatives at one time.
     21 vectors produced by pass  1 Test12= 6.50D-15 4.17D-09 XBig12= 5.21D+01 2.87D+00.
     21 vectors produced by pass  2 Test12= 6.50D-15 4.17D-09 XBig12= 1.84D+00 3.54D-01.
     21 vectors produced by pass  3 Test12= 6.50D-15 4.17D-09 XBig12= 1.59D-02 2.64D-02.
     21 vectors produced by pass  4 Test12= 6.50D-15 4.17D-09 XBig12= 2.76D-05 1.32D-03.
     20 vectors produced by pass  5 Test12= 6.50D-15 4.17D-09 XBig12= 4.30D-08 4.26D-05.
      5 vectors produced by pass  6 Test12= 6.50D-15 4.17D-09 XBig12= 9.00D-11 1.68D-06.
      1 vectors produced by pass  7 Test12= 6.50D-15 4.17D-09 XBig12= 1.50D-13 1.18D-07.
      1 vectors produced by pass  8 Test12= 6.50D-15 4.17D-09 XBig12= 3.01D-16 4.65D-09.
 InvSVY:  IOpt=1 It=  1 EMax= 8.22D-15
 Solved reduced A of dimension   132 with    24 vectors.
 FullF1:  Do perturbations      1 to       3.
 Isotropic polarizability for W=    0.000000       55.32 Bohr**3.
 End of Minotr F.D. properties file   721 does not exist.
 End of Minotr F.D. properties file   722 does not exist.
 End of Minotr F.D. properties file   788 does not exist.
 Leave Link 1002 at Sun Oct 13 09:49:15 2024, MaxMem=  2684354560 cpu:              57.2 elap:               2.3
 (Enter /usr/local/g16_AVX//g16/l601.exe)
 Copying SCF densities to generalized density rwf, IOpCl= 0 IROHF=0.

 **********************************************************************

            Population analysis using the SCF Density.

 **********************************************************************

 Alpha  occ. eigenvalues -- -101.25665 -14.22224 -10.11912 -10.09127  -9.17092
 Alpha  occ. eigenvalues --   -6.92874  -6.92874  -6.92839  -0.78154  -0.61205
 Alpha  occ. eigenvalues --   -0.51234  -0.35678  -0.30708  -0.30704  -0.24824
 Alpha  occ. eigenvalues --   -0.20967  -0.20965  -0.05757  -0.05757  -0.05552
 Alpha virt. eigenvalues --    0.10602   0.14558   0.14559   0.14600   0.14941
 Alpha virt. eigenvalues --    0.14942   0.20408   0.20970   0.20971   0.21610
 Alpha virt. eigenvalues --    0.23944   0.23947   0.25671   0.26123   0.26123
 Alpha virt. eigenvalues --    0.28367   0.31954   0.34121   0.34121   0.34951
 Alpha virt. eigenvalues --    0.34957   0.35544   0.39287   0.41718   0.48645
 Alpha virt. eigenvalues --    0.70547   0.79045   0.79046   0.84270   0.84278
 Alpha virt. eigenvalues --    0.86139   0.86139   0.86448   0.89068   0.97864
 Alpha virt. eigenvalues --    1.02375   1.03371   1.03374   1.10132   1.12416
 Alpha virt. eigenvalues --    1.12419   1.14973   1.14973   1.17008   1.17013
 Alpha virt. eigenvalues --    1.23482   1.26300   1.34584   1.47806   1.47806
 Alpha virt. eigenvalues --    1.53031   1.64441   1.64441   1.82983   1.82994
 Alpha virt. eigenvalues --    1.89180   2.06498   2.06499   2.15762   2.22112
 Alpha virt. eigenvalues --    2.24024   2.24040   2.41271   2.41283   2.79502
 Alpha virt. eigenvalues --    2.79527   2.83092   3.00043   3.03935   3.03938
 Alpha virt. eigenvalues --    3.24414   3.45667   3.55661   3.55668   4.23208
 Alpha virt. eigenvalues --    4.40741   4.58800   4.76327
          Condensed to atoms (all electrons):
               1          2          3          4          5          6
     1  C    5.874948  -0.156752   0.428188   0.428052   0.428050  -0.937194
     2  Cl  -0.156752  17.975390  -0.018255  -0.018279  -0.018278   0.118709
     3  H    0.428188  -0.018255   0.483247  -0.022727  -0.022728  -0.061482
     4  H    0.428052  -0.018279  -0.022727   0.483340  -0.022775  -0.061335
     5  H    0.428050  -0.018278  -0.022728  -0.022775   0.483337  -0.061332
     6  C   -0.937194   0.118709  -0.061482  -0.061335  -0.061332   6.699096
     7  N   -0.104698   0.002736  -0.005326  -0.005349  -0.005349   0.553249
               7
     1  C   -0.104698
     2  Cl   0.002736
     3  H   -0.005326
     4  H   -0.005349
     5  H   -0.005349
     6  C    0.553249
     7  N    7.126392
 Mulliken charges:
               1
     1  C    0.039406
     2  Cl  -0.885270
     3  H    0.219083
     4  H    0.219073
     5  H    0.219074
     6  C   -0.249712
     7  N   -0.561654
 Sum of Mulliken charges =  -1.00000
 Mulliken charges with hydrogens summed into heavy atoms:
               1
     1  C    0.696636
     2  Cl  -0.885270
     6  C   -0.249712
     7  N   -0.561654
 APT charges:
               1
     1  C    0.199785
     2  Cl  -0.988284
     3  H    0.075247
     4  H    0.075103
     5  H    0.075107
     6  C    0.058244
     7  N   -0.495202
 Sum of APT charges =  -1.00000
 APT charges with hydrogens summed into heavy atoms:
               1
     1  C    0.425242
     2  Cl  -0.988284
     6  C    0.058244
     7  N   -0.495202
 Electronic spatial extent (au):  <R**2>=            817.8382
 Charge=             -1.0000 electrons
 Dipole moment (field-independent basis, Debye):
    X=              4.7388    Y=              0.0000    Z=             -0.0006  Tot=              4.7388
 Quadrupole moment (field-independent basis, Debye-Ang):
   XX=            -83.9063   YY=            -35.4751   ZZ=            -35.4738
   XY=              0.0000   XZ=              0.0002   YZ=              0.0000
 Traceless Quadrupole moment (field-independent basis, Debye-Ang):
   XX=            -32.2879   YY=             16.1433   ZZ=             16.1446
   XY=              0.0000   XZ=              0.0002   YZ=              0.0000
 Octapole moment (field-independent basis, Debye-Ang**2):
  XXX=            -20.7430  YYY=             -0.0060  ZZZ=             -0.8626  XYY=              3.0240
  XXY=              0.0001  XXZ=             -0.0059  XZZ=              3.0238  YZZ=              0.0060
  YYZ=              0.8620  XYZ=              0.0000
 Hexadecapole moment (field-independent basis, Debye-Ang**3):
 XXXX=          -1605.7495 YYYY=            -57.6330 ZZZZ=            -57.6330 XXXY=              0.0007
 XXXZ=              0.0001 YYYX=             -0.0005 YYYZ=              0.0000 ZZZX=             -0.0851
 ZZZY=             -0.0000 XXYY=           -206.6160 XXZZ=           -206.6158 YYZZ=            -19.2107
 XXYZ=             -0.0000 YYXZ=              0.0987 ZZXY=              0.0007
 N-N= 1.092026515699D+02 E-N=-1.628753275339D+03  KE= 5.901630547437D+02
  Exact polarizability:  83.649  -0.000  41.155   0.001  -0.000  41.158
 Approx polarizability: 102.895  -0.000  50.461   0.006  -0.000  50.463
 No NMR shielding tensors so no spin-rotation constants.
 Leave Link  601 at Sun Oct 13 09:49:15 2024, MaxMem=  2684354560 cpu:               2.6 elap:               0.1
 (Enter /usr/local/g16_AVX//g16/l701.exe)
 ... and contract with generalized density number  0.
 Compute integral second derivatives.
 Leave Link  701 at Sun Oct 13 09:49:15 2024, MaxMem=  2684354560 cpu:               4.6 elap:               0.2
 (Enter /usr/local/g16_AVX//g16/l702.exe)
 L702 exits ... SP integral derivatives will be done elsewhere.
 Leave Link  702 at Sun Oct 13 09:49:15 2024, MaxMem=  2684354560 cpu:               0.5 elap:               0.0
 (Enter /usr/local/g16_AVX//g16/l703.exe)
 Integral derivatives from FoFJK, PRISM(SPDF).
 Compute integral second derivatives, UseDBF=F ICtDFT=           0.
 Calling FoFJK, ICntrl=    100127 FMM=F ISym2X=0 I1Cent= 0 IOpClX= 0 NMat=1 NMatS=1 NMatT=0.
 FoFJK:  IHMeth= 1 ICntrl=  100127 DoSepK=F KAlg= 0 I1Cent=           0 FoldK=F
 IRaf=         0 NMat=       1 IRICut=       1 DoRegI=T DoRafI=F ISym2E= 0 IDoP0=0 IntGTp=1.
 FoFCou: FMM=F IPFlag=           0 FMFlag=      100000 FMFlg1=         800
         NFxFlg=           0 DoJE=F BraDBF=F KetDBF=F FulRan=T
         wScrn=  0.000000 ICntrl=    100127 IOpCl=  0 I1Cent=           0 NGrid=           0
         NMat0=    1 NMatS0=      1 NMatT0=    0 NMatD0=    1 NMtDS0=    0 NMtDT0=    0
 Symmetry not used in FoFCou.
 Leave Link  703 at Sun Oct 13 09:49:18 2024, MaxMem=  2684354560 cpu:              67.8 elap:               2.6
 (Enter /usr/local/g16_AVX//g16/l716.exe)
 Dipole        = 1.86437585D+00 5.66380737D-06-2.50518250D-04
 Polarizability= 8.36493551D+01-6.69950419D-05 4.11550640D+01
                 1.34093358D-03-8.83957546D-06 4.11575302D+01
 Full mass-weighted force constant matrix:
 Low frequencies ---  -52.8625  -52.5711    0.0012    0.0049    0.0069  140.9191
 Low frequencies ---  154.1374  154.2489  215.6649
 Diagonal vibrational polarizability:
       15.3516012      30.3886976      30.4767747
 Harmonic frequencies (cm**-1), IR intensities (KM/Mole), Raman scattering
 activities (A**4/AMU), depolarization ratios for plane and unpolarized
 incident light, reduced masses (AMU), force constants (mDyne/A),
 and normal coordinates:
                      1                      2                      3
                      A                      A                      A
 Frequencies --    139.5170               139.7091               215.6649
 Red. masses --      4.1642                 4.1665                13.6215
 Frc consts  --      0.0478                 0.0479                 0.3733
 IR Inten    --     21.9000                21.8963                19.6702
  Atom  AN      X      Y      Z        X      Y      Z        X      Y      Z
     1   6     0.00   0.01   0.40     0.00   0.41  -0.01    -0.35   0.00   0.00
     2  17    -0.00  -0.00  -0.10    -0.00  -0.10   0.00     0.46  -0.00  -0.00
     3   1    -0.21   0.01   0.48     0.00   0.47  -0.01    -0.33   0.00  -0.00
     4   1     0.11   0.01   0.47     0.18   0.48  -0.00    -0.33   0.00   0.00
     5   1     0.10   0.00   0.47    -0.19   0.48  -0.01    -0.33  -0.00   0.00
     6   6    -0.00   0.00   0.08     0.00   0.08  -0.00    -0.41   0.00  -0.00
     7   7     0.00  -0.00  -0.27     0.00  -0.27   0.00    -0.42  -0.00  -0.00
                      4                      5                      6
                      A                      A                      A
 Frequencies --    439.1697               439.2672               627.0330
 Red. masses --      3.3684                 3.3692                 7.6612
 Frc consts  --      0.3828                 0.3830                 1.7747
 IR Inten    --      0.3249                 0.3241                52.0877
  Atom  AN      X      Y      Z        X      Y      Z        X      Y      Z
     1   6    -0.00  -0.00  -0.10     0.00  -0.10   0.00     0.63  -0.00  -0.00
     2  17     0.00   0.00   0.01    -0.00   0.01  -0.00    -0.02   0.00   0.00
     3   1     0.58  -0.01  -0.31    -0.01  -0.31   0.01     0.37  -0.00   0.07
     4   1    -0.30  -0.01  -0.31    -0.50  -0.31   0.00     0.36  -0.06  -0.04
     5   1    -0.28  -0.00  -0.31     0.51  -0.31   0.01     0.36   0.06  -0.04
     6   6    -0.00   0.01   0.39     0.00   0.39  -0.01    -0.27   0.00   0.00
     7   7     0.00  -0.00  -0.20    -0.00  -0.20   0.00    -0.34   0.00  -0.00
                      7                      8                      9
                      A                      A                      A
 Frequencies --   1020.4061              1020.5493              1293.9813
 Red. masses --      1.4311                 1.4309                 1.1094
 Frc consts  --      0.8780                 0.8781                 1.0945
 IR Inten    --      0.7924                 0.7984                18.8907
  Atom  AN      X      Y      Z        X      Y      Z        X      Y      Z
     1   6    -0.00   0.00   0.15     0.00   0.15  -0.00    -0.09   0.00  -0.00
     2  17     0.00  -0.00  -0.00    -0.00  -0.00   0.00    -0.00   0.00  -0.00
     3   1     0.74  -0.00  -0.11    -0.01  -0.29   0.00     0.54   0.00  -0.20
     4   1    -0.38   0.08  -0.24    -0.63  -0.16   0.08     0.54   0.17   0.10
     5   1    -0.36  -0.08  -0.25     0.64  -0.15  -0.07     0.54  -0.17   0.10
     6   6     0.00  -0.00  -0.12    -0.00  -0.12   0.00    -0.01   0.00   0.00
     7   7    -0.00   0.00   0.02     0.00   0.02  -0.00    -0.02   0.00  -0.00
                     10                     11                     12
                      A                      A                      A
 Frequencies --   1439.9041              1440.0297              2214.7499
 Red. masses --      1.0469                 1.0470                12.3989
 Frc consts  --      1.2789                 1.2792                35.8330
 IR Inten    --     10.2054                10.1940                17.9683
  Atom  AN      X      Y      Z        X      Y      Z        X      Y      Z
     1   6    -0.00  -0.06   0.00     0.00  -0.00  -0.06    -0.03   0.00  -0.00
     2  17    -0.00  -0.00   0.00     0.00  -0.00  -0.00    -0.00  -0.00   0.00
     3   1    -0.00   0.73   0.00     0.33   0.01  -0.15    -0.09  -0.00   0.05
     4   1    -0.29   0.07  -0.38    -0.17  -0.38   0.51    -0.09  -0.04  -0.02
     5   1     0.29   0.07   0.38    -0.16   0.38   0.51    -0.09   0.04  -0.02
     6   6    -0.00  -0.02   0.00     0.00  -0.00  -0.02     0.77  -0.00   0.00
     7   7    -0.00   0.00  -0.00     0.00   0.00   0.00    -0.61   0.00  -0.00
                     13                     14                     15
                      A                      A                      A
 Frequencies --   3108.5142              3212.1126              3212.3005
 Red. masses --      1.0277                 1.1077                 1.1077
 Frc consts  --      5.8508                 6.7335                 6.7345
 IR Inten    --      1.1097                 0.3831                 0.3869
  Atom  AN      X      Y      Z        X      Y      Z        X      Y      Z
     1   6    -0.04  -0.00   0.00     0.00  -0.10   0.00    -0.00  -0.00  -0.10
     2  17    -0.00  -0.00  -0.00     0.00   0.00  -0.00    -0.00   0.00   0.00
     3   1     0.18  -0.00   0.55    -0.01  -0.02  -0.01     0.26  -0.00   0.77
     4   1     0.18  -0.48  -0.28    -0.22   0.56   0.34    -0.14   0.35   0.18
     5   1     0.18   0.48  -0.27     0.23   0.58  -0.34    -0.13  -0.33   0.17
     6   6    -0.00   0.00  -0.00     0.00   0.00  -0.00     0.00   0.00   0.00
     7   7     0.00  -0.00  -0.00    -0.00  -0.00   0.00    -0.00  -0.00  -0.00

 -------------------
 - Thermochemistry -
 -------------------
 Temperature   298.150 Kelvin.  Pressure   1.00000 Atm.
 Atom     1 has atomic number  6 and mass  12.00000
 Atom     2 has atomic number 17 and mass  34.96885
 Atom     3 has atomic number  1 and mass   1.00783
 Atom     4 has atomic number  1 and mass   1.00783
 Atom     5 has atomic number  1 and mass   1.00783
 Atom     6 has atomic number  6 and mass  12.00000
 Atom     7 has atomic number  7 and mass  14.00307
 Molecular mass:    75.99540 amu.
 Principal axes and moments of inertia in atomic units:
                           1         2         3
     Eigenvalues --    11.418881405.942181405.94467
           X            1.00000   0.00002   0.00000
           Y           -0.00000   0.00238   1.00000
           Z           -0.00002   1.00000  -0.00238
 This molecule is an asymmetric top.
 Rotational symmetry number  1.
 Rotational temperatures (Kelvin)      7.58515     0.06161     0.06161
 Rotational constants (GHZ):         158.04895     1.28365     1.28365
 Zero-point vibrational energy     119404.7 (Joules/Mol)
                                   28.53841 (Kcal/Mol)
 Warning -- explicit consideration of   5 degrees of freedom as
           vibrations may cause significant error
 Vibrational temperatures:    200.73   201.01   310.29   631.87   632.01
          (Kelvin)            902.16  1468.14  1468.34  1861.75  2071.70
                             2071.88  3186.53  4472.46  4621.51  4621.78
 
 Zero-point correction=                           0.045479 (Hartree/Particle)
 Thermal correction to Energy=                    0.050955
 Thermal correction to Enthalpy=                  0.051900
 Thermal correction to Gibbs Free Energy=         0.017008
 Sum of electronic and zero-point Energies=           -593.004361
 Sum of electronic and thermal Energies=              -592.998885
 Sum of electronic and thermal Enthalpies=            -592.997940
 Sum of electronic and thermal Free Energies=         -593.032832
 
                     E (Thermal)             CV                S
                      KCal/Mol        Cal/Mol-Kelvin    Cal/Mol-Kelvin
 Total                   31.975             16.402             73.435
 Electronic               0.000              0.000              0.000
 Translational            0.889              2.981             38.900
 Rotational               0.889              2.981             24.627
 Vibrational             30.198             10.441              9.908
 Vibration     1          0.615              1.914              2.810
 Vibration     2          0.615              1.914              2.808
 Vibration     3          0.645              1.817              1.995
 Vibration     4          0.799              1.385              0.829
 Vibration     5          0.799              1.385              0.829
                       Q            Log10(Q)             Ln(Q)
 Total Bot       0.150207D-07         -7.823309        -18.013835
 Total V=0       0.124593D+14         13.095492         30.153485
 Vib (Bot)       0.107258D-19        -19.969569        -45.981633
 Vib (Bot)    1  0.145761D+01          0.163643          0.376801
 Vib (Bot)    2  0.145553D+01          0.163022          0.375373
 Vib (Bot)    3  0.918832D+00         -0.036764         -0.084652
 Vib (Bot)    4  0.393891D+00         -0.404624         -0.931681
 Vib (Bot)    5  0.393773D+00         -0.404754         -0.931980
 Vib (V=0)       0.889677D+01          0.949232          2.185688
 Vib (V=0)    1  0.204099D+01          0.309840          0.713433
 Vib (V=0)    2  0.203902D+01          0.309421          0.712469
 Vib (V=0)    3  0.154607D+01          0.189228          0.435713
 Vib (V=0)    4  0.113651D+01          0.055575          0.127966
 Vib (V=0)    5  0.113644D+01          0.055547          0.127902
 Electronic      0.100000D+01          0.000000          0.000000
 Translational   0.260396D+08          7.415635         17.075130
 Rotational      0.537805D+05          4.730625         10.892667
 
                                                       RxCoord=-4.09911 DE=9.64
                                                             IR Spectrum
 
      3   3                                  2                              1    1          1                                        
      2   1                                  2                              4    2          0               6      4        2  1     
      1   0                                  1                              4    9          2               2      3        1  4     
      2   9                                  5                              0    4          0               7      9        6  0     
 
      X   X                                  X                              X    X          X               X      X        X  X     
                                             X                              X    X                          X               X  X     
                                             X                              X    X                          X               X  X     
                                             X                              X    X                          X               X  X     
                                             X                              X    X                          X               X  X     
                                             X                              X    X                          X               X  X     
                                             X                              X    X                          X               X  X     
                                                                            X                               X               X  X     
                                                                                                            X                  X     
                                                                                                            X                  X     
                                                                                                            X                  X     
                                                                                                            X                  X     
                                                                                                            X                  X     
                                                                                                            X                  X     
                                                                                                            X                  X     
                                                                                                            X                  X     
                                                                                                            X                  X     
                                                                                                            X                        
                                                                                                            X                        
                                                                                                            X                        
 
 -------------------------------------------------------------------
 Center     Atomic                   Forces (Hartrees/Bohr)
 Number     Number              X              Y              Z
 -------------------------------------------------------------------
      1        6           0.053560989   -0.000000667    0.000047747
      2       17          -0.015368167   -0.000000125    0.000006770
      3        1          -0.000099847   -0.000003130    0.001457615
      4        1          -0.000116671   -0.001245474   -0.000752439
      5        1          -0.000115750    0.001249665   -0.000746607
      6        6          -0.015538211   -0.000000509   -0.000000759
      7        7          -0.022322343    0.000000240   -0.000012327
 -------------------------------------------------------------------
 Cartesian Forces:  Max     0.053560989 RMS     0.013541969
 Z-matrix is all fixed cartesians, so copy forces.
 Force constants in Cartesian coordinates: 
                1             2             3             4             5 
      1  0.276499D+00
      2  0.130129D-05  0.591144D+00
      3  0.112279D-03  0.000000D+00  0.591373D+00
      4 -0.111413D-01  0.000000D+00  0.287144D-05  0.344480D-01
      5  0.000000D+00 -0.283881D-03  0.000000D+00  0.000000D+00 -0.187699D-02
      6  0.206397D-05  0.000000D+00 -0.284692D-03 -0.350576D-05  0.000000D+00
      7 -0.601391D-01  0.206709D-03 -0.888846D-01 -0.450596D-02  0.000000D+00
      8  0.201066D-03 -0.418104D-01  0.621995D-03  0.336417D-05 -0.111660D-02
      9 -0.864962D-01  0.621993D-03 -0.309025D+00 -0.143326D-02 -0.469491D-05
     10 -0.600776D-01  0.767645D-01  0.445752D-01 -0.451201D-02  0.138836D-03
     11  0.746990D-01 -0.241655D+00 -0.116069D+00  0.123869D-02  0.474709D-03
     12  0.433731D-01 -0.116074D+00 -0.109227D+00  0.720208D-03  0.937641D-03
     13 -0.600793D-01 -0.769727D-01  0.442182D-01 -0.451224D-02 -0.139185D-03
     14 -0.749016D-01 -0.242729D+00  0.115446D+00 -0.124173D-02  0.483009D-03
     15  0.430257D-01  0.115451D+00 -0.108149D+00  0.714603D-03 -0.932669D-03
     16 -0.878602D-01  0.000000D+00 -0.188571D-04 -0.592978D-02  0.000000D+00
     17  0.000000D+00 -0.834662D-01  0.000000D+00  0.000000D+00  0.292963D-02
     18 -0.307855D-04  0.000000D+00 -0.834944D-01  0.000000D+00  0.000000D+00
     19  0.279830D-02  0.000000D+00 -0.514793D-05 -0.384668D-02  0.000000D+00
     20  0.000000D+00  0.188014D-01  0.000000D+00  0.000000D+00 -0.609874D-03
     21  0.138809D-04  0.000000D+00  0.188066D-01 -0.134436D-05  0.000000D+00
                6             7             8             9            10 
      6 -0.189959D-02
      7 -0.160697D-03  0.775702D-01
      8 -0.466874D-05 -0.220240D-03  0.435456D-01
      9  0.101122D-02  0.946630D-01 -0.656358D-03  0.325281D+00
     10  0.808784D-04  0.390703D-02 -0.860090D-02 -0.426955D-02  0.775279D-01
     11  0.937775D-03 -0.648670D-03  0.859586D-03  0.188065D-02 -0.817618D-01
     12 -0.569386D-03  0.956626D-02 -0.242065D-01 -0.121749D-01 -0.474814D-01
     13  0.802052D-04  0.390687D-02  0.862071D-02 -0.422947D-02  0.389975D-02
     14 -0.932818D-03  0.604016D-03  0.755048D-03 -0.182015D-02 -0.796319D-02
     15 -0.578229D-03  0.956933D-02  0.242668D-01 -0.120710D-01 -0.534297D-02
     16  0.000000D+00 -0.203875D-01  0.244931D-05 -0.102127D-02 -0.203929D-01
     17  0.000000D+00  0.655674D-04 -0.323379D-02 -0.285640D-04  0.243728D-01
     18  0.293090D-02 -0.281595D-01 -0.283823D-04  0.904768D-02  0.141510D-01
     19  0.000000D+00 -0.351547D-03 -0.645578D-05  0.278672D-02 -0.352234D-03
     20  0.000000D+00 -0.792621D-05  0.100059D-02  0.713120D-05 -0.295027D-02
     21 -0.610215D-03  0.340614D-02  0.712333D-05 -0.206962D-02 -0.171320D-02
               11            12            13            14            15 
     11  0.254279D+00
     12  0.122365D+00  0.114612D+00
     13  0.798776D-02 -0.530565D-02  0.775299D-01
     14 -0.186047D-01  0.129876D-01  0.819831D-01  0.255412D+00
     15 -0.131079D-01  0.727183D-02 -0.471011D-01 -0.121708D+00  0.113476D+00
     16  0.893694D-03  0.527758D-03 -0.203929D-01 -0.895787D-03  0.523442D-03
     17  0.594099D-02  0.532130D-02 -0.244378D-01  0.599082D-02 -0.529289D-02
     18  0.532600D-02 -0.138355D-03  0.140372D-01 -0.529774D-02 -0.187829D-03
     19 -0.240865D-02 -0.140027D-02 -0.352039D-03  0.241518D-02 -0.138902D-02
     20 -0.129412D-02 -0.133175D-02  0.295813D-02 -0.130657D-02  0.132464D-02
     21 -0.133276D-02  0.225922D-03 -0.169940D-02  0.132566D-02  0.238296D-03
               16            17            18            19            20 
     16  0.130445D+01
     17 -0.599000D-05  0.114252D+00
     18  0.288176D-03  0.000000D+00  0.114254D+00
     19 -0.114949D+01  0.536082D-05 -0.286517D-03  0.115160D+01
     20  0.562985D-05 -0.424134D-01  0.000000D+00 -0.557780D-05  0.258219D-01
     21 -0.299970D-03  0.000000D+00 -0.424117D-01  0.293895D-03  0.000000D+00
               21 
     21  0.258207D-01
 Leave Link  716 at Sun Oct 13 09:49:18 2024, MaxMem=  2684354560 cpu:               0.9 elap:               0.1
 (Enter /usr/local/g16_AVX//g16/l103.exe)

 GradGradGradGradGradGradGradGradGradGradGradGradGradGradGradGradGradGrad
 Berny optimization.
 Search for a local minimum.
 Step number   1 out of a maximum of    2
 All quantities printed in internal units (Hartrees-Bohrs-Radians)
 Second derivative matrix not updated -- analytic derivatives used.
 ITU=  0
     Eigenvalues ---    0.00320   0.00322   0.03006   0.03007   0.03391
     Eigenvalues ---    0.08552   0.09729   0.09731   0.16362   0.16362
     Eigenvalues ---    0.17117   0.49534   0.86464   0.86489   2.38160
 Quadratic step=5.220D-01 exceeds max=3.000D-01 adjusted using Lamda=-4.639D-02.
 Angle between NR and scaled steps=  17.40 degrees.
 Angle between quadratic step and forces=  29.93 degrees.
 Linear search not attempted -- first point.
 B after Tr=    -0.030013   -0.000001    0.000025
         Rot=    1.000000   -0.000000   -0.000003   -0.000000 Ang=  -0.00 deg.
 Variable       Old X    -DE/DX   Delta X   Delta X   Delta X     New X
                                 (Linear)    (Quad)   (Total)
    X1        1.06497   0.05356   0.00000   0.22543   0.19542   1.26039
    Y1        0.00001  -0.00000   0.00000   0.00000  -0.00000   0.00001
    Z1       -0.00037   0.00005   0.00000   0.00012   0.00014  -0.00023
    X2       -4.28838  -0.01537   0.00000  -0.11767  -0.14768  -4.43606
    Y2        0.00000  -0.00000   0.00000  -0.00000  -0.00000  -0.00000
    Z2        0.00015   0.00001   0.00000   0.00000   0.00006   0.00021
    X3        0.39151  -0.00010   0.00000   0.07044   0.04042   0.43193
    Y3        0.00453  -0.00000   0.00000  -0.00009  -0.00009   0.00444
    Z3       -1.94354   0.00146   0.00000   0.03909   0.03911  -1.90443
    X4        0.39239  -0.00012   0.00000   0.07013   0.04012   0.43252
    Y4        1.68058  -0.00125   0.00000  -0.03360  -0.03361   1.64698
    Z4        0.97576  -0.00075   0.00000  -0.01973  -0.01971   0.95605
    X5        0.39237  -0.00012   0.00000   0.07014   0.04013   0.43250
    Y5       -1.68508   0.00125   0.00000   0.03370   0.03370  -1.65138
    Z5        0.96793  -0.00075   0.00000  -0.01957  -0.01955   0.94838
    X6        4.03471  -0.01554   0.00000  -0.04598  -0.07600   3.95872
    Y6        0.00000  -0.00000   0.00000  -0.00000  -0.00000  -0.00000
    Z6       -0.00036  -0.00000   0.00000   0.00008   0.00008  -0.00029
    X7        6.25419  -0.02232   0.00000  -0.06240  -0.09241   6.16178
    Y7       -0.00001   0.00000   0.00000   0.00000  -0.00000  -0.00001
    Z7        0.00023  -0.00001   0.00000  -0.00011  -0.00012   0.00011
         Item               Value     Threshold  Converged?
 Maximum Force            0.053561     0.000450     NO 
 RMS     Force            0.013542     0.000300     NO 
 Maximum Displacement     0.195419     0.001800     NO 
 RMS     Displacement     0.063145     0.001200     NO 
 Predicted change in Energy=-1.015695D-02
 GradGradGradGradGradGradGradGradGradGradGradGradGradGradGradGradGradGrad

 Leave Link  103 at Sun Oct 13 09:49:18 2024, MaxMem=  2684354560 cpu:               0.6 elap:               0.1
 (Enter /usr/local/g16_AVX//g16/l9999.exe)

 ----------------------------------------------------------------------

 Electric dipole moment (input orientation):
 (Debye = 10**-18 statcoulomb cm , SI units = C m)
                  (au)            (Debye)         (10**-30 SI)
   Tot        0.186438D+01      0.473877D+01      0.158068D+02
   x          0.186438D+01      0.473877D+01      0.158068D+02
   y          0.000000D+00      0.000000D+00      0.000000D+00
   z         -0.250518D-03     -0.636754D-03     -0.212398D-02

 Dipole polarizability, Alpha (input orientation).
 (esu units = cm**3 , SI units = C**2 m**2 J**-1)
 Alpha(0;0):
               (au)            (10**-24 esu)      (10**-40 SI)
   iso        0.553206D+02      0.819767D+01      0.912114D+01
   aniso      0.424931D+02      0.629682D+01      0.700616D+01
   xx         0.836494D+02      0.123956D+02      0.137919D+02
   yx        -0.669950D-04     -0.992764D-05     -0.110460D-04
   yy         0.411551D+02      0.609855D+01      0.678555D+01
   zx         0.134093D-02      0.198706D-03      0.221090D-03
   zy         0.000000D+00      0.000000D+00      0.000000D+00
   zz         0.411575D+02      0.609892D+01      0.678596D+01

 ----------------------------------------------------------------------

 Dipole orientation:
     6          0.00022540          0.00000621          1.06497220
    17          0.00042128          0.00001303         -4.28837626
     1          1.94348533          0.00453628          0.39176895
     1         -0.97582169          1.68057653          0.39226617
     1         -0.96797476         -1.68508615          0.39223243
     6         -0.00017743         -0.00001037          4.03471269
     7         -0.00107282         -0.00002845          6.25419214

 Electric dipole moment (dipole orientation):
 (Debye = 10**-18 statcoulomb cm , SI units = C m)
                  (au)            (Debye)         (10**-30 SI)
   Tot        0.186438D+01      0.473877D+01      0.158068D+02
   x          0.000000D+00      0.000000D+00      0.000000D+00
   y          0.000000D+00      0.000000D+00      0.000000D+00
   z          0.186438D+01      0.473877D+01      0.158068D+02

 Dipole polarizability, Alpha (dipole orientation).
 (esu units = cm**3 , SI units = C**2 m**2 J**-1)
 Alpha(0;0):
               (au)            (10**-24 esu)      (10**-40 SI)
   iso        0.553206D+02      0.819767D+01      0.912114D+01
   aniso      0.424931D+02      0.629682D+01      0.700616D+01
   xx         0.411575D+02      0.609892D+01      0.678596D+01
   yx         0.000000D+00      0.000000D+00      0.000000D+00
   yy         0.411551D+02      0.609855D+01      0.678555D+01
   zx        -0.705061D-02     -0.104479D-02     -0.116249D-02
   zy        -0.196109D-03     -0.290604D-04     -0.323340D-04
   zz         0.836494D+02      0.123956D+02      0.137919D+02

 ----------------------------------------------------------------------
 1\1\GINC-NODO7\Freq\RB3LYP\6-31++G(d,p)\C2H3Cl1N1(1-)\ALANQF\13-Oct-20
 24\0\\#p b3lyp 6-31++g(d,p) scf=verytight NoSymm freq=noraman int=ultr
 afine\\RxCoord=-4.09911 DE=9.64\\-1,1\C,0.563559,0.000005,-0.000195\Cl
 ,-2.269311,0.,0.000082\H,0.207177,0.002398,-1.028476\H,0.207645,0.8893
 25,0.516352\H,0.207632,-0.891707,0.512205\C,2.135078,0.000001,-0.00019
 3\N,3.309576,-0.000005,0.000123\\Version=ES64L-G16RevB.01\HF=-593.0498
 4\RMSD=1.721e-09\RMSF=1.354e-02\ZeroPoint=0.0454789\Thermal=0.0509554\
 Dipole=1.9323586,0.0000065,-0.0002501\DipoleDeriv=0.4566598,0.,0.00003
 84,-0.0000058,0.071317,0.0000003,0.0001456,0.0000003,0.0713771,-1.1441
 773,0.0000003,0.0000163,0.0000019,-0.9103238,0.,0.0000336,0.,-0.910351
 5,0.1044981,-0.0000304,0.0132793,0.0000015,0.0989613,0.0001785,-0.0000
 492,0.0001788,0.0222823,0.1042132,-0.0115067,-0.0067108,0.0000874,0.04
 15258,-0.0333239,-0.00001,-0.0333439,0.07957,0.1042249,0.0115374,-0.00
 66561,-0.0000843,0.0412167,0.0331453,-0.0000104,0.0331652,0.0798797,0.
 1007853,0.,-0.0000943,-0.0000037,0.0370101,-0.0000003,0.0000121,-0.000
 0004,0.0369362,-0.726204,-0.0000008,0.0001271,0.0000029,-0.3797071,0.0
 000001,-0.0001217,0.0000001,-0.3796939\Polar=83.6493551,-0.000067,41.1
 55064,0.0013409,-0.0000088,41.1575302\Quadrupole=-24.005245,12.0021435
 ,12.0031015,0.0000347,0.0001717,0.0000014\PG=C01 [X(C2H3Cl1N1)]\NImag=
 0\\0.27649916,0.00000130,0.59114357,0.00011228,0.00000097,0.59137319,-
 0.01114132,0.,0.00000287,0.03444799,0.00000013,-0.00028388,0.00000001,
 -0.00000028,-0.00187699,0.00000206,0.,-0.00028469,-0.00000351,-0.00000
 027,-0.00189959,-0.06013909,0.00020671,-0.08888459,-0.00450596,0.00000
 054,-0.00016070,0.07757021,0.00020107,-0.04181039,0.00062200,0.0000033
 6,-0.00111660,-0.00000467,-0.00022024,0.04354556,-0.08649619,0.0006219
 9,-0.30902458,-0.00143326,-0.00000469,0.00101122,0.09466303,-0.0006563
 6,0.32528117,-0.06007756,0.07676452,0.04457522,-0.00451201,0.00013884,
 0.00008088,0.00390703,-0.00860090,-0.00426955,0.07752790,0.07469897,-0
 .24165504,-0.11606904,0.00123869,0.00047471,0.00093777,-0.00064867,0.0
 0085959,0.00188065,-0.08176179,0.25427853,0.04337306,-0.11607358,-0.10
 922734,0.00072021,0.00093764,-0.00056939,0.00956626,-0.02420650,-0.012
 17489,-0.04748137,0.12236531,0.11461223,-0.06007931,-0.07697272,0.0442
 1823,-0.00451224,-0.00013919,0.00008021,0.00390687,0.00862071,-0.00422
 947,0.00389975,0.00798776,-0.00530565,0.07752991,-0.07490163,-0.242729
 45,0.11544595,-0.00124173,0.00048301,-0.00093282,0.00060402,0.00075505
 ,-0.00182015,-0.00796319,-0.01860465,0.01298757,0.08198315,0.25541179,
 0.04302570,0.11545054,-0.10814878,0.00071460,-0.00093267,-0.00057823,0
 .00956933,0.02426679,-0.01207098,-0.00534297,-0.01310794,0.00727183,-0
 .04710109,-0.12170847,0.11347569,-0.08786018,0.00000004,-0.00001886,-0
 .00592978,-0.00000004,0.00000072,-0.02038750,0.00000245,-0.00102127,-0
 .02039287,0.00089369,0.00052776,-0.02039293,-0.00089579,0.00052344,1.3
 0445486,0.00000021,-0.08346621,0.00000013,-0.00000009,0.00292963,-0.00
 000002,0.00006557,-0.00323379,-0.00002856,0.02437279,0.00594099,0.0053
 2130,-0.02443785,0.00599082,-0.00529289,-0.00000599,0.11425191,-0.0000
 3079,0.00000009,-0.08349441,0.00000043,-0.00000002,0.00293090,-0.02815
 947,-0.00002838,0.00904768,0.01415099,0.00532600,-0.00013835,0.0140371
 7,-0.00529774,-0.00018783,0.00028818,0.00000006,0.11425368,0.00279830,
 0.00000015,-0.00000515,-0.00384668,0.,0.00000034,-0.00035155,-0.000006
 46,0.00278672,-0.00035223,-0.00240865,-0.00140027,-0.00035204,0.002415
 18,-0.00138902,-1.14949159,0.00000536,-0.00028652,1.15159579,-0.000000
 04,0.01880140,-0.00000001,0.00000005,-0.00060987,0.,-0.00000793,0.0010
 0059,0.00000713,-0.00295027,-0.00129412,-0.00133175,0.00295813,-0.0013
 0657,0.00132464,0.00000563,-0.04241336,-0.00000001,-0.00000558,0.02582
 192,0.00001388,-0.00000001,0.01880662,-0.00000134,0.,-0.00061022,0.003
 40614,0.00000712,-0.00206962,-0.00171320,-0.00133276,0.00022592,-0.001
 69940,0.00132566,0.00023830,-0.00029997,-0.00000001,-0.04241166,0.0002
 9389,0.,0.02582065\\-0.05356099,0.00000067,-0.00004775,0.01536817,0.00
 000013,-0.00000677,0.00009985,0.00000313,-0.00145762,0.00011667,0.0012
 4547,0.00075244,0.00011575,-0.00124967,0.00074661,0.01553821,0.0000005
 1,0.00000076,0.02232234,-0.00000024,0.00001233\\\@


 TIME IS IN FACT THE HERO OF THE PLOT. THE TIME
 WITH WHICH WE HAVE TO DEAL IS OF THE ORDER OF TWO
 BILLION YEARS...GIVEN SO MUCH TIME, THE "IMPOSSIBLE"
 BECOMES POSSIBLE, THE POSSIBLE PROBABLE, THE PROBABLE
 VIRTUALLY CERTAIN.  ONE HAS ONLY TO WAIT, TIME
 ITSELF PERFORMS THE MIRACLES.
 "ORIGIN OF LIFE" LECTURES, GEORGE WALD, 1954
 Job cpu time:       0 days  0 hours  3 minutes 57.5 seconds.
 Elapsed time:       0 days  0 hours  0 minutes 10.2 seconds.
 File lengths (MBytes):  RWF=     88 Int=      0 D2E=      0 Chk=      2 Scr=      2
 Normal termination of Gaussian 16 at Sun Oct 13 09:49:18 2024.
