RxCoord=-3.89914 DE=12.17                                               
Freq      RB3LYP                                                      6-31++G(d,p)        
Number of atoms                            I                7
Info1-9                                    I   N=           9
          16          16           0           0           0         100
           6          18        -502
Full Title                                 C   N=           3
RxCoord=-3.89914 DE=12.17           
Route                                      C   N=           6
#p b3lyp 6-31++g(d,p) scf=verytight NoSymm freq=noraman int=
ultrafine   
Charge                                     I               -1
Multiplicity                               I                1
Number of electrons                        I               40
Number of alpha electrons                  I               20
Number of beta electrons                   I               20
Number of basis functions                  I               98
Number of independent functions            I               98
Number of point charges in /Mol/           I                0
Number of translation vectors              I                0
Atomic numbers                             I   N=           7
           6          17           1           1           1           6
           7
Nuclear charges                            R   N=           7
  6.00000000E+00  1.70000000E+01  1.00000000E+00  1.00000000E+00  1.00000000E+00
  6.00000000E+00  7.00000000E+00
Current cartesian coordinates              R   N=          21
  1.01643455E+00  9.44863062E-06 -4.17629474E-04 -4.28286584E+00 -1.88972612E-06
  1.75744530E-04  3.65726256E-01  4.54290160E-03 -1.94992713E+00  3.66459470E-01
  1.68604766E+00  9.78751521E-01  3.66431124E-01 -1.69056033E+00  9.70892150E-01
  4.05083204E+00  1.88972612E-06 -3.55268511E-04  6.27380192E+00 -9.44863062E-06
  2.41884944E-04
Number of symbols in /Mol/                 I                0
Force Field                                I                0
Atom Types                                 C   N=           7
                                                            
                        
Int Atom Types                             I   N=           7
           0           0           0           0           0           0
           0
MM charges                                 R   N=           7
  0.00000000E+00  0.00000000E+00  0.00000000E+00  0.00000000E+00  0.00000000E+00
  0.00000000E+00  0.00000000E+00
Integer atomic weights                     I   N=           7
          12          35           1           1           1          12
          14
Real atomic weights                        R   N=           7
  1.20000000E+01  3.49688527E+01  1.00782504E+00  1.00782504E+00  1.00782504E+00
  1.20000000E+01  1.40030740E+01
Atom fragment info                         I   N=           7
           0           0           0           0           0           0
           0
Atom residue num                           I   N=           7
           0           0           0           0           0           0
           0
Nuclear spins                              I   N=           7
           0           3           1           1           1           0
           2
Nuclear ZEff                               R   N=           7
 -3.60000000E+00 -1.42400000E+01 -1.00000000E+00 -1.00000000E+00 -1.00000000E+00
 -3.60000000E+00 -4.55000000E+00
Nuclear ZNuc                               R   N=           7
  6.00000000E+00  1.70000000E+01  1.00000000E+00  1.00000000E+00  1.00000000E+00
  6.00000000E+00  7.00000000E+00
Nuclear QMom                               R   N=           7
  0.00000000E+00 -8.16500000E+00  0.00000000E+00  0.00000000E+00  0.00000000E+00
  0.00000000E+00  2.04400000E+00
Nuclear GFac                               R   N=           7
  0.00000000E+00  8.21874000E-01  2.79284600E+00  2.79284600E+00  2.79284600E+00
  0.00000000E+00  4.03761000E-01
MicOpt                                     I   N=           7
          -1          -1          -1          -1          -1          -1
          -1
Number of residues                         I                0
Number of secondary structures             I                0
Number of contracted shells                I               33
Number of primitive shells                 I               72
Pure/Cartesian d shells                    I                1
Pure/Cartesian f shells                    I                0
Highest angular momentum                   I                2
Largest degree of contraction              I                6
Shell types                                I   N=          33
           0          -1          -1          -1           2           0
          -1          -1          -1          -1           2           0
           0           0           1           0           0           0
           1           0           0           0           1           0
          -1          -1          -1           2           0          -1
          -1          -1           2
Number of primitives per shell             I   N=          33
           6           3           1           1           1           6
           6           3           1           1           1           3
           1           1           1           3           1           1
           1           3           1           1           1           6
           3           1           1           1           6           3
           1           1           1
Shell to atom map                          I   N=          33
           1           1           1           1           1           2
           2           2           2           2           2           3
           3           3           3           4           4           4
           4           5           5           5           5           6
           6           6           6           6           7           7
           7           7           7
Primitive exponents                        R   N=          72
  3.04752488E+03  4.57369518E+02  1.03948685E+02  2.92101553E+01  9.28666296E+00
  3.16392696E+00  7.86827235E+00  1.88128854E+00  5.44249258E-01  1.68714478E-01
  4.38000000E-02  8.00000000E-01  2.51801000E+04  3.78035000E+03  8.60474000E+02
  2.42145000E+02  7.73349000E+01  2.62470000E+01  4.91765000E+02  1.16984000E+02
  3.74153000E+01  1.37834000E+01  5.45215000E+00  2.22588000E+00  3.18649000E+00
  1.14427000E+00  4.20377000E-01  1.42657000E-01  4.83000000E-02  7.50000000E-01
  1.87311370E+01  2.82539436E+00  6.40121692E-01  1.61277759E-01  3.60000000E-02
  1.10000000E+00  1.87311370E+01  2.82539436E+00  6.40121692E-01  1.61277759E-01
  3.60000000E-02  1.10000000E+00  1.87311370E+01  2.82539436E+00  6.40121692E-01
  1.61277759E-01  3.60000000E-02  1.10000000E+00  3.04752488E+03  4.57369518E+02
  1.03948685E+02  2.92101553E+01  9.28666296E+00  3.16392696E+00  7.86827235E+00
  1.88128854E+00  5.44249258E-01  1.68714478E-01  4.38000000E-02  8.00000000E-01
  4.17351146E+03  6.27457911E+02  1.42902093E+02  4.02343293E+01  1.28202129E+01
  4.39043701E+00  1.16263619E+01  2.71627981E+00  7.72218397E-01  2.12031498E-01
  6.39000000E-02  8.00000000E-01
Contraction coefficients                   R   N=          72
  1.83473713E-03  1.40373228E-02  6.88426223E-02  2.32184443E-01  4.67941348E-01
  3.62311985E-01 -1.19332420E-01 -1.60854152E-01  1.14345644E+00  1.00000000E+00
  1.00000000E+00  1.00000000E+00  1.83295985E-03  1.40341988E-02  6.90973943E-02
  2.37451980E-01  4.83033960E-01  3.39855972E-01 -2.29739142E-03 -3.07137189E-02
 -1.12528069E-01  4.50163278E-02  5.89353363E-01  4.65206287E-01 -2.51828028E-01
  6.15892514E-02  1.06018433E+00  1.00000000E+00  1.00000000E+00  1.00000000E+00
  3.34946043E-02  2.34726953E-01  8.13757326E-01  1.00000000E+00  1.00000000E+00
  1.00000000E+00  3.34946043E-02  2.34726953E-01  8.13757326E-01  1.00000000E+00
  1.00000000E+00  1.00000000E+00  3.34946043E-02  2.34726953E-01  8.13757326E-01
  1.00000000E+00  1.00000000E+00  1.00000000E+00  1.83473713E-03  1.40373228E-02
  6.88426223E-02  2.32184443E-01  4.67941348E-01  3.62311985E-01 -1.19332420E-01
 -1.60854152E-01  1.14345644E+00  1.00000000E+00  1.00000000E+00  1.00000000E+00
  1.83477216E-03  1.39946270E-02  6.85865518E-02  2.32240873E-01  4.69069948E-01
  3.60455199E-01 -1.14961182E-01 -1.69117479E-01  1.14585195E+00  1.00000000E+00
  1.00000000E+00  1.00000000E+00
P(S=P) Contraction coefficients            R   N=          72
  0.00000000E+00  0.00000000E+00  0.00000000E+00  0.00000000E+00  0.00000000E+00
  0.00000000E+00  6.89990666E-02  3.16423961E-01  7.44308291E-01  1.00000000E+00
  1.00000000E+00  0.00000000E+00  0.00000000E+00  0.00000000E+00  0.00000000E+00
  0.00000000E+00  0.00000000E+00  0.00000000E+00  3.98940088E-03  3.03177067E-02
  1.29880029E-01  3.27951072E-01  4.53527100E-01  2.52154056E-01 -1.42993147E-02
  3.23572333E-01  7.43507765E-01  1.00000000E+00  1.00000000E+00  0.00000000E+00
  0.00000000E+00  0.00000000E+00  0.00000000E+00  0.00000000E+00  0.00000000E+00
  0.00000000E+00  0.00000000E+00  0.00000000E+00  0.00000000E+00  0.00000000E+00
  0.00000000E+00  0.00000000E+00  0.00000000E+00  0.00000000E+00  0.00000000E+00
  0.00000000E+00  0.00000000E+00  0.00000000E+00  0.00000000E+00  0.00000000E+00
  0.00000000E+00  0.00000000E+00  0.00000000E+00  0.00000000E+00  6.89990666E-02
  3.16423961E-01  7.44308291E-01  1.00000000E+00  1.00000000E+00  0.00000000E+00
  0.00000000E+00  0.00000000E+00  0.00000000E+00  0.00000000E+00  0.00000000E+00
  0.00000000E+00  6.75797439E-02  3.23907296E-01  7.40895140E-01  1.00000000E+00
  1.00000000E+00  0.00000000E+00
Coordinates of each shell                  R   N=          99
  1.01643455E+00  9.44863062E-06 -4.17629474E-04  1.01643455E+00  9.44863062E-06
 -4.17629474E-04  1.01643455E+00  9.44863062E-06 -4.17629474E-04  1.01643455E+00
  9.44863062E-06 -4.17629474E-04  1.01643455E+00  9.44863062E-06 -4.17629474E-04
 -4.28286584E+00 -1.88972612E-06  1.75744530E-04 -4.28286584E+00 -1.88972612E-06
  1.75744530E-04 -4.28286584E+00 -1.88972612E-06  1.75744530E-04 -4.28286584E+00
 -1.88972612E-06  1.75744530E-04 -4.28286584E+00 -1.88972612E-06  1.75744530E-04
 -4.28286584E+00 -1.88972612E-06  1.75744530E-04  3.65726256E-01  4.54290160E-03
 -1.94992713E+00  3.65726256E-01  4.54290160E-03 -1.94992713E+00  3.65726256E-01
  4.54290160E-03 -1.94992713E+00  3.65726256E-01  4.54290160E-03 -1.94992713E+00
  3.66459470E-01  1.68604766E+00  9.78751521E-01  3.66459470E-01  1.68604766E+00
  9.78751521E-01  3.66459470E-01  1.68604766E+00  9.78751521E-01  3.66459470E-01
  1.68604766E+00  9.78751521E-01  3.66431124E-01 -1.69056033E+00  9.70892150E-01
  3.66431124E-01 -1.69056033E+00  9.70892150E-01  3.66431124E-01 -1.69056033E+00
  9.70892150E-01  3.66431124E-01 -1.69056033E+00  9.70892150E-01  4.05083204E+00
  1.88972612E-06 -3.55268511E-04  4.05083204E+00  1.88972612E-06 -3.55268511E-04
  4.05083204E+00  1.88972612E-06 -3.55268511E-04  4.05083204E+00  1.88972612E-06
 -3.55268511E-04  4.05083204E+00  1.88972612E-06 -3.55268511E-04  6.27380192E+00
 -9.44863062E-06  2.41884944E-04  6.27380192E+00 -9.44863062E-06  2.41884944E-04
  6.27380192E+00 -9.44863062E-06  2.41884944E-04  6.27380192E+00 -9.44863062E-06
  2.41884944E-04  6.27380192E+00 -9.44863062E-06  2.41884944E-04
Num ILSW                                   I              100
ILSW                                       I   N=         100
           0           1           0           0           2           0
           0           0           0           0         402          -1
           5           0           0           0           2           0
           0           0           0           0           1           0
           1           1           0           0           0           0
           0           0      100000           0          -1           0
           0           0           0           0           0           0
           0           0           0           1           0           0
           0 -2000000000           1           0           0           0
           0           0           4          52           0           0
           0           0           5           0           0           0
           0           0           0           7           0           1
           0           0           0           0           0           0
           0           0           0           0           0           0
           0           0           0           0           0           0
           0           0           0           0           0           0
           0           0           0           0
Num RLSW                                   I               52
RLSW                                       R   N=          52
  8.00000000E-01  7.20000000E-01  1.00000000E+00  8.10000000E-01  2.00000000E-01
  0.00000000E+00  0.00000000E+00  1.00000000E+00  0.00000000E+00  0.00000000E+00
  0.00000000E+00  0.00000000E+00  1.00000000E+00  0.00000000E+00  0.00000000E+00
  0.00000000E+00  0.00000000E+00  1.00000000E+00  0.00000000E+00  0.00000000E+00
  0.00000000E+00  0.00000000E+00  1.00000000E+00  0.00000000E+00  0.00000000E+00
  0.00000000E+00  0.00000000E+00  1.00000000E+00  0.00000000E+00  0.00000000E+00
  0.00000000E+00  0.00000000E+00  1.00000000E+00  0.00000000E+00  0.00000000E+00
  0.00000000E+00  0.00000000E+00  0.00000000E+00  1.00000000E+00  1.00000000E+00
  0.00000000E+00  1.00000000E+00  0.00000000E+00  0.00000000E+00  0.00000000E+00
  0.00000000E+00  0.00000000E+00  0.00000000E+00  0.00000000E+00  0.00000000E+00
  0.00000000E+00  0.00000000E+00
MxBond                                     I                4
NBond                                      I   N=           7
           4           0           1           1           1           2
           1
IBond                                      I   N=          28
           3           4           5           6           0           0
           0           0           1           0           0           0
           1           0           0           0           1           0
           0           0           1           7           0           0
           6           0           0           0
RBond                                      R   N=          28
  1.00000000E+00  1.00000000E+00  1.00000000E+00  1.00000000E+00  0.00000000E+00
  0.00000000E+00  0.00000000E+00  0.00000000E+00  1.00000000E+00  0.00000000E+00
  0.00000000E+00  0.00000000E+00  1.00000000E+00  0.00000000E+00  0.00000000E+00
  0.00000000E+00  1.00000000E+00  0.00000000E+00  0.00000000E+00  0.00000000E+00
  1.00000000E+00  3.00000000E+00  0.00000000E+00  0.00000000E+00  3.00000000E+00
  0.00000000E+00  0.00000000E+00  0.00000000E+00
Virial Ratio                               R      2.004939652890870E+00
SCF Energy                                 R     -5.930461842225861E+02
Total Energy                               R     -5.930461842225861E+02
RMS Force                                  R      1.543350777209587E-02
RMS Density                                R      3.597661379026323E-09
NImag                                      I                0
Job Status                                 I                1
Nuclear derivative order                   I                2
External E-field                           R   N=          35
  0.00000000E+00  0.00000000E+00  0.00000000E+00  0.00000000E+00  0.00000000E+00
  0.00000000E+00  0.00000000E+00  0.00000000E+00  0.00000000E+00  0.00000000E+00
  0.00000000E+00  0.00000000E+00  0.00000000E+00  0.00000000E+00  0.00000000E+00
  0.00000000E+00  0.00000000E+00  0.00000000E+00  0.00000000E+00  0.00000000E+00
  0.00000000E+00  0.00000000E+00  0.00000000E+00  0.00000000E+00  0.00000000E+00
  0.00000000E+00  0.00000000E+00  0.00000000E+00  0.00000000E+00  0.00000000E+00
  0.00000000E+00  0.00000000E+00  0.00000000E+00  0.00000000E+00  0.00000000E+00
IOpCl                                      I                0
IROHF                                      I                0
Alpha Orbital Energies                     R   N=          98
 -1.01257496E+02 -1.42218516E+01 -1.01184831E+01 -1.00937803E+01 -9.17181588E+00
 -6.92961706E+00 -6.92961690E+00 -6.92932496E+00 -7.79278405E-01 -6.07134184E-01
 -5.13155966E-01 -3.52013686E-01 -3.05640898E-01 -3.05608270E-01 -2.46499490E-01
 -2.09585858E-01 -2.09576279E-01 -5.84644985E-02 -5.84636670E-02 -5.63458201E-02
  1.06175774E-01  1.46115593E-01  1.46414608E-01  1.46424443E-01  1.49206898E-01
  1.49213562E-01  2.04435681E-01  2.09785577E-01  2.09786482E-01  2.14357222E-01
  2.39725097E-01  2.39751908E-01  2.54926076E-01  2.61130024E-01  2.61133042E-01
  2.75605530E-01  3.17625924E-01  3.40991154E-01  3.40994262E-01  3.48732935E-01
  3.48781685E-01  3.53511019E-01  3.92441505E-01  4.18370473E-01  4.84976543E-01
  7.09170894E-01  7.89630901E-01  7.89634341E-01  8.40874659E-01  8.40941627E-01
  8.61159553E-01  8.61162589E-01  8.61296446E-01  8.87064107E-01  9.78435195E-01
  1.01935244E+00  1.03559602E+00  1.03562111E+00  1.10337480E+00  1.12340674E+00
  1.12343208E+00  1.14882179E+00  1.14882893E+00  1.17025235E+00  1.17028867E+00
  1.23588488E+00  1.25962970E+00  1.34883017E+00  1.48447825E+00  1.48448158E+00
  1.52659205E+00  1.64714858E+00  1.64714867E+00  1.81913264E+00  1.81921437E+00
  1.88179570E+00  2.06695875E+00  2.06696586E+00  2.15535636E+00  2.19065312E+00
  2.23521012E+00  2.23536128E+00  2.41915295E+00  2.41925499E+00  2.79135566E+00
  2.79155625E+00  2.82464941E+00  2.98282992E+00  3.02511099E+00  3.02514963E+00
  3.23104210E+00  3.45619666E+00  3.55454005E+00  3.55462193E+00  4.22444008E+00
  4.39742588E+00  4.58644825E+00  4.74394722E+00
Alpha MO coefficients                      R   N=        9604
 -1.31395370E-06  2.31901846E-05  2.09301744E-05  2.48449986E-10 -1.84129370E-09
 -1.38247761E-04 -2.26123367E-04 -2.35086986E-10  4.42272707E-08  1.04528516E-03
  5.85123679E-04 -1.19727733E-10  8.05898179E-09 -3.75303613E-05 -5.72562434E-06
 -5.73040925E-06  1.31102400E-10 -2.40115339E-10  7.11973769E-11  9.95997681E-01
  1.51449694E-02  2.04204092E-06 -4.04208197E-11 -1.41036127E-10 -2.10631611E-02
 -3.48900122E-06  1.04430769E-10  7.39874363E-10  1.93480906E-03 -1.09718011E-05
 -2.87433703E-10  1.09074588E-09 -2.02921263E-04  2.75910579E-05  5.01347431E-10
 -1.50849801E-08  7.50432223E-03  7.51545338E-03  7.51545346E-03 -4.30270432E-11
  1.02847343E-09 -1.94558386E-12 -9.15296495E-06 -5.15011156E-05  8.07829778E-05
  2.32501396E-05  2.28265849E-08 -9.77862022E-06 -9.14527292E-06 -5.15386491E-05
  8.07780180E-05  2.32450394E-05  8.45941880E-06  4.90817610E-06 -9.14662374E-06
 -5.15377432E-05  8.07796332E-05  2.32453035E-05 -8.48194275E-06  4.86873384E-06
 -2.63975802E-06 -1.86079711E-05  4.91092668E-06 -5.83808209E-11  6.20625389E-10
 -1.13915358E-04 -4.00988348E-04  1.89336726E-09 -6.26448346E-08 -1.51729476E-03
  3.53265001E-04 -1.42053464E-09 -1.67953153E-08  5.71245079E-06 -2.74841495E-06
 -2.74908670E-06  6.21418992E-12 -3.99653826E-09  1.94018852E-11 -5.17046142E-06
 -2.39556858E-05  2.79356525E-06 -1.39506492E-11  4.15175968E-09  3.42607773E-04
 -1.39172576E-04  7.13881424E-10 -5.75117551E-08  2.70406887E-04 -8.95466165E-05
  5.98161499E-10 -1.04541326E-08 -3.45247874E-06 -1.04700811E-05 -1.04701002E-05
 -3.48546206E-11  4.37745623E-09 -7.66365973E-13 -3.63661000E-06 -2.21157140E-04
  1.17198362E-04 -4.52260808E-10 -8.35627042E-09  7.88078763E-04  5.52254150E-04
 -5.10514552E-10 -3.51275653E-08  8.90184213E-03  3.13880951E-03 -3.59839912E-09
 -8.65333768E-08  3.02264427E-04  6.57716385E-06  6.59652476E-06 -3.66454714E-10
 -1.95333897E-08 -5.61156060E-11 -5.13270884E-08 -4.21088568E-06  3.14214359E-06
  1.68794012E-11 -1.24843178E-09 -5.68677844E-06 -2.27357905E-05 -1.00083255E-10
  7.61252816E-09  8.17961841E-06  1.01645140E-04  3.26661338E-10 -2.78374521E-08
  6.82051654E-04  1.80533463E-04  8.48580606E-10 -6.92277862E-09  7.98929663E-06
 -1.46695156E-05 -1.46689997E-05  6.19857822E-11 -4.03487174E-09 -1.36385382E-11
  3.11617098E-06 -8.77336885E-05 -1.25312463E-04 -8.90325225E-06 -1.35002912E-08
  5.78242202E-06  3.12358970E-06 -8.77039462E-05 -1.25529033E-04 -8.89498155E-06
 -5.01588923E-06 -2.90910802E-06  3.12400293E-06 -8.77036910E-05 -1.25531038E-04
 -8.89466666E-06  5.02889661E-06 -2.88552691E-06  8.48373743E-05  3.37881301E-04
 -4.89352719E-04  2.38706566E-09 -1.21962966E-07  2.12419446E-04  1.08193639E-03
 -3.11326641E-09  6.92713311E-08 -7.17455620E-03  4.22779412E-03 -1.65882717E-08
  4.68847681E-07 -1.12724693E-03  1.27337361E-05  1.27333835E-05  6.14459530E-09
 -3.01067041E-07  2.76432804E-11  9.92765717E-01  3.45537416E-02 -1.93164546E-03
  1.07905055E-08 -5.54537332E-07  3.65848289E-03  8.46208654E-04 -5.53287129E-09
  2.95154734E-07 -3.22354967E-03 -4.95749222E-04  2.30875060E-09 -5.51548648E-09
 -7.44507523E-03 -8.32632691E-03 -8.32632932E-03 -5.15334434E-09  2.72346437E-07
  8.38616201E-12  2.54261974E-03  9.10647391E-05 -1.71502679E-04 -5.26909183E-11
 -5.42715300E-08  4.97954108E-03  2.17006750E-03 -1.06450548E-08  3.79581846E-07
  6.74832833E-02  3.28305009E-02 -3.45144984E-08 -6.82595983E-07 -6.95923131E-04
 -1.41283764E-04 -1.41183860E-04  1.74043463E-09 -2.38842734E-08 -1.03450008E-09
 -2.14519187E-07 -8.23917747E-06  2.68061206E-05  1.22282481E-10 -7.09055982E-09
 -1.36829749E-05 -1.70667579E-04 -6.87355597E-10  4.32169578E-08 -2.23085368E-04
  7.36049371E-04  1.80049582E-09 -1.46768300E-07  8.98736185E-03  2.96227862E-03
  1.94253734E-08 -6.89356405E-07  3.81699454E-05 -4.27983082E-05 -4.27958833E-05
  5.10560791E-10 -3.01252816E-08 -9.78490035E-11 -1.19361029E-04 -6.38574924E-04
  6.68767485E-04 -6.43331924E-06  6.38045464E-09 -2.70265342E-06 -1.19360799E-04
 -6.38871626E-04  6.69226792E-04 -6.20241187E-06  2.37297723E-06  1.35034829E-06
 -1.19361525E-04 -6.38878370E-04  6.69229218E-04 -6.20842144E-06 -2.37990489E-06
  1.33978694E-06  9.92854966E-01  4.98189830E-02  4.70440021E-04 -2.58525848E-09
  3.29511769E-07 -1.05723709E-02  5.52809298E-03 -1.51140294E-08  2.27985793E-07
 -8.27477321E-02  2.38790672E-02 -8.91712518E-08  3.51738950E-07 -8.24971238E-03
 -9.68068004E-03 -9.68068241E-03 -8.11002589E-09  3.86419314E-07  1.46808864E-10
 -4.03836803E-04  3.88595656E-04  2.28183062E-04 -7.22852945E-10  5.66136864E-08
 -6.34109647E-03  2.52229541E-03 -1.87387975E-08  9.90799428E-07  9.70663287E-03
 -6.68724251E-03  3.71611959E-08 -7.38836120E-07  6.09805858E-05  3.22284528E-04
  3.22284850E-04  2.71614703E-09 -1.79332998E-07 -1.10615835E-11  9.93103301E-01
  5.01266741E-02  6.36331120E-04  2.17877761E-09  2.39275371E-07 -2.24064985E-02
 -4.08728176E-03  1.03514142E-08 -1.38675497E-06  3.52107219E-02  1.98994448E-02
  5.12279975E-09 -1.39155327E-06 -9.15120360E-03 -8.65319767E-03 -8.65306534E-03
  2.14580018E-09  1.21634643E-07  2.55887704E-09  1.37651512E-06  2.10988892E-05
 -1.01116606E-06  3.33463858E-10  4.15643771E-09  6.71713992E-05 -1.12046515E-05
 -2.11582733E-09 -2.48592891E-08 -4.61071123E-04  1.43262431E-04  6.82226114E-09
  8.69754647E-08  6.20609436E-03  2.07741896E-03  1.20019832E-08 -4.83229940E-07
  4.76455460E-05  3.19591764E-05  3.19489980E-05  1.70490817E-09  8.89279422E-09
  4.41142341E-10 -4.32657434E-05  3.16905807E-03  3.17156179E-04  2.55226492E-05
  3.19433827E-07 -1.36801802E-04 -4.30620867E-05  3.17037015E-03  3.18707718E-04
  2.54771429E-05  1.18274054E-04  6.87285278E-05 -4.30629907E-05  3.17037490E-03
  3.18735660E-04  2.54823661E-05 -1.18590400E-04  6.81777170E-05 -2.74446835E-03
 -1.40027806E-04  5.33920957E-05  1.62196273E-09  2.02055701E-08  7.23659887E-04
 -9.15537435E-03  2.17680278E-08 -9.60781890E-07 -4.54299923E-02  1.21112443E-02
 -6.82544675E-08  2.75159604E-07 -7.39332197E-04 -3.81280041E-05 -3.81025839E-05
  3.90880306E-09 -1.27621262E-07 -7.38401894E-10 -3.76731788E-05 -1.51200118E-04
 -2.39505631E-04  6.32715578E-10 -2.48970302E-08  6.07263814E-03 -2.21193877E-03
  1.94199122E-08 -1.23439608E-06  5.09068405E-03 -2.46722786E-03  2.59939876E-08
 -1.64962447E-07  1.58738174E-04 -1.02385373E-04 -1.02382766E-04 -3.71871232E-09
  2.27856428E-07  3.95997252E-11  4.62326500E-05  1.91396108E-04  2.81909682E-04
 -1.06838748E-09 -8.34077319E-08 -3.53564464E-03 -3.98520663E-03  1.29068607E-08
  6.62122169E-07  9.34038518E-03  9.95305898E-03 -6.00237119E-09 -6.77949010E-07
  1.13388220E-05  8.70384451E-05  8.70280225E-05  6.99477648E-11 -4.35000072E-08
 -2.21444597E-10 -2.84632170E-01  1.02269630E+00  7.23599298E-05 -2.52492856E-09
 -2.84015003E-08  7.53391520E-02  5.05975182E-04  2.59715426E-10 -6.48006878E-08
 -2.21570783E-02 -1.64307220E-03 -7.80948117E-10  1.77233720E-07  1.57765133E-02
  5.34096971E-03  8.52964475E-10 -5.69652248E-07 -1.56417871E-02 -1.55332658E-02
 -1.55332497E-02 -5.81815365E-10  1.80517434E-08 -1.71140561E-11 -6.80361856E-05
 -3.18183044E-04 -2.54192186E-03  5.67261350E-05  1.94039072E-08 -8.75698709E-06
 -6.80148953E-05 -3.18747830E-04 -2.54220834E-03  5.67799375E-05  7.61441685E-06
  4.38834113E-06 -6.80188821E-05 -3.18722301E-04 -2.54232130E-03  5.67715606E-05
 -7.63332953E-06  4.35094026E-06 -3.90679589E-05 -2.30834271E-04 -1.51816258E-05
 -1.72973216E-10 -6.00374706E-09 -4.85301921E-04 -5.35876812E-03  2.02135262E-08
 -7.37331325E-07 -8.61935676E-03  2.08814798E-03 -3.77916605E-08  1.34589160E-06
  5.02747297E-05 -3.71079366E-05 -3.71153030E-05  1.70066598E-10 -2.84180610E-08
  1.95735389E-10 -1.08461950E-04 -4.28954961E-04  8.29407224E-06 -1.14124621E-10
  3.16836625E-08  5.40329867E-03 -1.63720016E-03  9.75519189E-09 -6.88611726E-07
 -2.01205553E-03  7.79490293E-04  8.73983973E-09 -2.95472876E-07 -1.61877416E-04
 -2.21444704E-04 -2.21444489E-04 -7.48736919E-10  6.04472508E-08 -4.56610706E-11
 -2.64263678E-08 -1.36191901E-07  2.77704057E-08  2.78496697E-07 -2.43030079E-05
  8.43988598E-07 -3.37126771E-07  6.69846889E-06 -5.83373139E-04 -1.35549332E-07
 -1.91747615E-06 -4.44365409E-06  3.87342225E-04  1.94101427E-08 -3.52722923E-05
  3.51723113E-05 -9.46555093E-08  8.22070137E-06  1.83407042E-07  1.45022862E-09
  9.27538836E-09  2.03556971E-04 -1.13737327E-02  9.90738052E-01  1.25464121E-07
  6.15303850E-06 -3.41112625E-04  2.97134735E-02 -2.44930959E-07 -2.54403541E-06
  1.32804622E-04 -1.15681358E-02 -6.88133424E-07  7.61071331E-07 -5.89245638E-05
  5.13245695E-03  1.06692547E-09  1.68570127E-06 -1.71632423E-06 -4.74337373E-07
  4.13488866E-05 -8.23315191E-09  1.52419180E-04 -1.28156986E-03  4.73939435E-03
  1.04195713E-04  1.69353943E-09 -1.30412580E-04 -7.50362602E-05  6.30041788E-04
 -2.33315834E-03 -5.12700935E-05 -6.98822287E-05 -7.42579921E-06 -7.74524374E-05
  6.50363942E-04 -2.40833459E-03 -5.29238612E-05  7.15597491E-05 -8.39019891E-06
  7.86125930E-09  3.48530212E-08 -2.95739499E-08 -6.20992632E-07  5.41018592E-05
 -6.32267475E-08  2.54126212E-07  1.72814857E-06 -1.50615917E-04  4.49445698E-06
 -4.76551408E-08 -1.31149125E-05  1.14243989E-03  7.81084125E-09 -5.75355333E-06
  5.78271705E-06  2.06602493E-07 -1.79985734E-05  3.02416763E-08 -1.13761585E-08
 -3.08561171E-08  2.04673909E-09  1.78168478E-07 -1.55368386E-05  1.45521328E-07
  1.36763874E-08 -1.18849390E-06  1.03612129E-04 -1.58670330E-06  1.30808126E-07
  4.47760284E-06 -3.90182596E-04 -1.62754646E-08  3.50891889E-06 -3.57754130E-06
  1.69773005E-07 -1.47898456E-05 -1.83753253E-08 -1.70781833E-09 -7.15378245E-09
  1.70906535E-09 -2.44139947E-05 -2.80778613E-07  6.50792962E-08 -2.27088012E-08
 -5.82285065E-04 -6.68333217E-06  2.93321292E-07  6.65803597E-08  3.86189015E-04
  4.43653657E-06 -3.10276537E-09 -1.60199946E-07  1.55895882E-07  8.11781824E-06
  9.29111802E-08 -4.06209087E-05 -1.24210835E-09  3.88274247E-09 -5.53168951E-06
  9.90738098E-01  1.13737343E-02 -3.34683354E-09 -1.68583318E-07  2.97133611E-02
  3.41111057E-04  8.53465508E-09  6.73675006E-08 -1.15678744E-02 -1.32798184E-04
 -2.64360214E-08 -3.42563708E-08  5.13202092E-03  5.89122662E-05 -1.12042080E-09
  7.28866345E-09 -8.24739042E-09  4.13476974E-05  4.75024603E-07  1.93498310E-06
  1.39691915E-06 -1.17608832E-05  4.33428533E-05  9.55738610E-07  3.29109811E-05
 -1.11889815E-06 -1.32856639E-04  1.11478133E-03 -4.12490911E-03 -9.06968843E-05
 -9.00031156E-05 -7.09583787E-05  1.31458588E-04 -1.10315514E-03  4.08152656E-03
  8.97505429E-05 -8.90420148E-05  7.04001489E-05  3.96157973E-10  1.49617803E-09
  1.40494441E-10  5.41143374E-05  6.21335879E-07 -2.31128340E-08 -5.87118820E-09
 -1.50880212E-04 -1.73305214E-06 -1.81458260E-07  7.02576317E-08  1.14207754E-03
  1.31114839E-05  3.41642985E-10 -2.49727733E-08  2.66202540E-08 -1.79589176E-05
 -2.06191259E-07 -6.67600898E-06 -6.10743310E-10 -2.19263822E-09  5.16823558E-11
 -1.55374774E-05 -1.78566617E-07  2.01790083E-08 -5.82705874E-09  1.03645838E-04
  1.19083990E-06 -1.29910016E-08 -3.93682477E-09 -3.89764028E-04 -4.47622953E-06
 -1.00599444E-09  1.45784185E-08 -1.73778662E-08 -1.48093508E-05 -1.70027543E-07
  4.08994043E-06 -3.22074876E-05 -2.38691685E-04  7.72533802E-05 -2.33456021E-09
  1.03350957E-08 -1.77046844E-03 -3.17638108E-03  1.07711192E-08 -2.25134402E-07
 -1.12916787E-01 -5.83793494E-02  5.07886729E-08  1.73571342E-06  1.38988303E-04
 -9.80753681E-05 -9.80230955E-05 -7.51082217E-10 -8.41516536E-08 -1.10302104E-09
  6.63841921E-05 -8.28050511E-05  9.90674515E-01  7.86847379E-06 -2.03471885E-04
  4.45372562E-04  3.04283343E-02  2.37380748E-07 -6.19902684E-06 -1.53985933E-03
 -1.38621720E-02 -9.62779517E-08  2.65958290E-06 -1.43988232E-02 -2.00340890E-04
  4.39012904E-09  2.75963231E-07  1.44804839E-04  3.10778533E-04  3.10790780E-04
 -1.07921593E-09  3.83583419E-08  1.02939546E-10 -1.39036850E-04  6.04126559E-04
 -2.93167027E-03 -3.52697100E-05 -2.11668205E-07  9.03769427E-05 -1.39002011E-04
  6.04297065E-04 -2.93213869E-03 -3.51606351E-05 -7.81499674E-05 -4.53616303E-05
 -1.38993253E-04  6.04297838E-04 -2.93209590E-03 -3.51744379E-05  7.83600396E-05
 -4.49991503E-05 -1.33393878E-04 -5.57889882E-04  2.09154528E-06  3.20499667E-10