 Entering Gaussian System, Link 0=g16
 Initial command:
 /usr/local/g16_AVX//g16/l1.exe "/scratch/alanqf/0062-54504.ixchel.mda.cinvestav.mx/Gau-7648.inp" -scrdir="/scratch/alanqf/0062-54504.ixchel.mda.cinvestav.mx/"
 Entering Link 1 = /usr/local/g16_AVX//g16/l1.exe PID=      7649.
  
 Copyright (c) 1988-2017, Gaussian, Inc.  All Rights Reserved.
  
 This is part of the Gaussian(R) 16 program.  It is based on
 the Gaussian(R) 09 system (copyright 2009, Gaussian, Inc.),
 the Gaussian(R) 03 system (copyright 2003, Gaussian, Inc.),
 the Gaussian(R) 98 system (copyright 1998, Gaussian, Inc.),
 the Gaussian(R) 94 system (copyright 1995, Gaussian, Inc.),
 the Gaussian 92(TM) system (copyright 1992, Gaussian, Inc.),
 the Gaussian 90(TM) system (copyright 1990, Gaussian, Inc.),
 the Gaussian 88(TM) system (copyright 1988, Gaussian, Inc.),
 the Gaussian 86(TM) system (copyright 1986, Carnegie Mellon
 University), and the Gaussian 82(TM) system (copyright 1983,
 Carnegie Mellon University). Gaussian is a federally registered
 trademark of Gaussian, Inc.
  
 This software contains proprietary and confidential information,
 including trade secrets, belonging to Gaussian, Inc.
  
 This software is provided under written license and may be
 used, copied, transmitted, or stored only in accord with that
 written license.
  
 The following legend is applicable only to US Government
 contracts under FAR:
  
                    RESTRICTED RIGHTS LEGEND
  
 Use, reproduction and disclosure by the US Government is
 subject to restrictions as set forth in subparagraphs (a)
 and (c) of the Commercial Computer Software - Restricted
 Rights clause in FAR 52.227-19.
  
 Gaussian, Inc.
 340 Quinnipiac St., Bldg. 40, Wallingford CT 06492
  
  
 ---------------------------------------------------------------
 Warning -- This program may not be used in any manner that
 competes with the business of Gaussian, Inc. or will provide
 assistance to any competitor of Gaussian, Inc.  The licensee
 of this program is prohibited from giving any competitor of
 Gaussian, Inc. access to this program.  By using this program,
 the user acknowledges that Gaussian, Inc. is engaged in the
 business of creating and licensing software in the field of
 computational chemistry and represents and warrants to the
 licensee that it is not a competitor of Gaussian, Inc. and that
 it will not use this program in any manner prohibited above.
 ---------------------------------------------------------------
  

 Cite this work as:
 Gaussian 16, Revision B.01,
 M. J. Frisch, G. W. Trucks, H. B. Schlegel, G. E. Scuseria, 
 M. A. Robb, J. R. Cheeseman, G. Scalmani, V. Barone, 
 G. A. Petersson, H. Nakatsuji, X. Li, M. Caricato, A. V. Marenich, 
 J. Bloino, B. G. Janesko, R. Gomperts, B. Mennucci, H. P. Hratchian, 
 J. V. Ortiz, A. F. Izmaylov, J. L. Sonnenberg, D. Williams-Young, 
 F. Ding, F. Lipparini, F. Egidi, J. Goings, B. Peng, A. Petrone, 
 T. Henderson, D. Ranasinghe, V. G. Zakrzewski, J. Gao, N. Rega, 
 G. Zheng, W. Liang, M. Hada, M. Ehara, K. Toyota, R. Fukuda, 
 J. Hasegawa, M. Ishida, T. Nakajima, Y. Honda, O. Kitao, H. Nakai, 
 T. Vreven, K. Throssell, J. A. Montgomery, Jr., J. E. Peralta, 
 F. Ogliaro, M. J. Bearpark, J. J. Heyd, E. N. Brothers, K. N. Kudin, 
 V. N. Staroverov, T. A. Keith, R. Kobayashi, J. Normand, 
 K. Raghavachari, A. P. Rendell, J. C. Burant, S. S. Iyengar, 
 J. Tomasi, M. Cossi, J. M. Millam, M. Klene, C. Adamo, R. Cammi, 
 J. W. Ochterski, R. L. Martin, K. Morokuma, O. Farkas, 
 J. B. Foresman, and D. J. Fox, Gaussian, Inc., Wallingford CT, 2016.
 
 ******************************************
 Gaussian 16:  ES64L-G16RevB.01 20-Dec-2017
                13-Oct-2024 
 ******************************************
 %NProcShared=26
 Will use up to   26 processors via shared memory.
 %MEM=20GB
 %chk=CHKfiles/0062.chk
 ---------------------------------------------------------------------
 #p b3lyp 6-31++g(d,p) scf=verytight NoSymm freq=noraman int=ultrafine
 ---------------------------------------------------------------------
 1/10=4,30=1,38=1/1,3;
 2/12=2,15=1,17=6,18=5,40=1/2;
 3/5=1,6=6,7=1111,11=2,25=1,30=1,71=2,74=-5,75=-5,140=1/1,2,3;
 4//1;
 5/5=2,17=3,38=5,98=1/2;
 8/6=4,10=90,11=11/1;
 11/6=1,8=1,9=11,15=111,16=1,31=1/1,2,10;
 10/6=1,31=1/2;
 6/7=2,8=2,9=2,10=2,28=1/1;
 7/8=1,10=1,25=1,30=1/1,2,3,16;
 1/10=4,30=1/3;
 99//99;
 Leave Link    1 at Sun Oct 13 09:49:09 2024, MaxMem=  2684354560 cpu:               1.4 elap:               0.1
 (Enter /usr/local/g16_AVX//g16/l101.exe)
 -------------------------
 RxCoord=-3.89914 DE=12.17
 -------------------------
 Symbolic Z-matrix:
 Charge = -1 Multiplicity = 1
 C                     0.53787   0.00001  -0.00022 
 Cl                   -2.2664   0.         0.00009 
 H                     0.19353   0.0024   -1.03186 
 H                     0.19392   0.89222   0.51793 
 H                     0.19391  -0.89461   0.51377 
 C                     2.14361   0.       -0.00019 
 N                     3.31995  -0.00001   0.00013 
 
 ITRead=  0  0  0  0  0  0  0
 MicOpt= -1 -1 -1 -1 -1 -1 -1
 NAtoms=      7 NQM=        7 NQMF=       0 NMMI=      0 NMMIF=      0
                NMic=       0 NMicF=      0.
                    Isotopes and Nuclear Properties:
 (Nuclear quadrupole moments (NQMom) in fm**2, nuclear magnetic moments (NMagM)
  in nuclear magnetons)

  Atom         1           2           3           4           5           6           7
 IAtWgt=          12          35           1           1           1          12          14
 AtmWgt=  12.0000000  34.9688527   1.0078250   1.0078250   1.0078250  12.0000000  14.0030740
 NucSpn=           0           3           1           1           1           0           2
 AtZEff=  -0.0000000  -0.0000000  -0.0000000  -0.0000000  -0.0000000  -0.0000000  -0.0000000
 NQMom=    0.0000000  -8.1650000   0.0000000   0.0000000   0.0000000   0.0000000   2.0440000
 NMagM=    0.0000000   0.8218740   2.7928460   2.7928460   2.7928460   0.0000000   0.4037610
 AtZNuc=   6.0000000  17.0000000   1.0000000   1.0000000   1.0000000   6.0000000   7.0000000
 Leave Link  101 at Sun Oct 13 09:49:09 2024, MaxMem=  2684354560 cpu:               2.9 elap:               0.2
 (Enter /usr/local/g16_AVX//g16/l103.exe)

 GradGradGradGradGradGradGradGradGradGradGradGradGradGradGradGradGradGrad
 Berny optimization.
 Initialization pass.
 Trust Radius=3.00D-01 FncErr=1.00D-07 GrdErr=1.00D-07 EigMax=2.50D+02 EigMin=1.00D-04
 Number of steps in this run=      2 maximum allowed number of steps=      2.
 GradGradGradGradGradGradGradGradGradGradGradGradGradGradGradGradGradGrad

 Leave Link  103 at Sun Oct 13 09:49:10 2024, MaxMem=  2684354560 cpu:               0.5 elap:               0.1
 (Enter /usr/local/g16_AVX//g16/l202.exe)
                          Input orientation:                          
 ---------------------------------------------------------------------
 Center     Atomic      Atomic             Coordinates (Angstroms)
 Number     Number       Type             X           Y           Z
 ---------------------------------------------------------------------
      1          6           0        0.537874    0.000005   -0.000221
      2         17           0       -2.266395   -0.000001    0.000093
      3          1           0        0.193534    0.002404   -1.031857
      4          1           0        0.193922    0.892218    0.517933
      5          1           0        0.193907   -0.894606    0.513774
      6          6           0        2.143608    0.000001   -0.000188
      7          7           0        3.319953   -0.000005    0.000128
 ---------------------------------------------------------------------
                    Distance matrix (angstroms):
                    1          2          3          4          5
     1  C    0.000000
     2  Cl   2.804269   0.000000
     3  H    1.087588   2.667616   0.000000
     4  H    1.087580   2.667840   1.787070   0.000000
     5  H    1.087581   2.667822   1.787065   1.786829   0.000000
     6  C    1.605734   4.410003   2.206158   2.205850   2.205859
     7  N    2.782079   5.586348   3.292339   3.291847   3.291855
                    6          7
     6  C    0.000000
     7  N    1.176345   0.000000
 Symmetry turned off by external request.
 Stoichiometry    C2H3ClN(1-)
 Framework group  C1[X(C2H3ClN)]
 Deg. of freedom    15
 Full point group                 C1      NOp   1
 Rotational constants (GHZ):         157.0321708           1.2817216           1.2817197
 Leave Link  202 at Sun Oct 13 09:49:10 2024, MaxMem=  2684354560 cpu:               0.2 elap:               0.0
 (Enter /usr/local/g16_AVX//g16/l301.exe)
 Standard basis: 6-31++G(d,p) (6D, 7F)
 Ernie: Thresh=  0.10000D-02 Tol=  0.10000D-05 Strict=F.
    98 basis functions,   176 primitive gaussians,    98 cartesian basis functions
    20 alpha electrons       20 beta electrons
       nuclear repulsion energy       108.9626665109 Hartrees.
 IExCor=  402 DFT=T Ex+Corr=B3LYP ExCW=0 ScaHFX=  0.200000
 ScaDFX=  0.800000  0.720000  1.000000  0.810000 ScalE2=  1.000000  1.000000
 IRadAn=      5 IRanWt=     -1 IRanGd=            0 ICorTp=0 IEmpDi=  4
 NAtoms=    7 NActive=    7 NUniq=    7 SFac= 1.00D+00 NAtFMM=   60 NAOKFM=F Big=F
 Integral buffers will be    131072 words long.
 Raffenetti 2 integral format.
 Two-electron integral symmetry is turned off.
 Leave Link  301 at Sun Oct 13 09:49:10 2024, MaxMem=  2684354560 cpu:               1.4 elap:               0.1
 (Enter /usr/local/g16_AVX//g16/l302.exe)
 NPDir=0 NMtPBC=     1 NCelOv=     1 NCel=       1 NClECP=     1 NCelD=      1
         NCelK=      1 NCelE2=     1 NClLst=     1 CellRange=     0.0.
 One-electron integrals computed using PRISM.
 NBasis=    98 RedAO= T EigKep=  1.95D-05  NBF=    98
 NBsUse=    98 1.00D-06 EigRej= -1.00D+00 NBFU=    98
 Precomputing XC quadrature grid using
 IXCGrd= 4 IRadAn=           5 IRanWt=          -1 IRanGd=           0 AccXCQ= 0.00D+00.
 Generated NRdTot=       0 NPtTot=           0 NUsed=           0 NTot=          32
 NSgBfM=    98    98    98    98    98 MxSgAt=     7 MxSgA2=     7.
 Leave Link  302 at Sun Oct 13 09:49:10 2024, MaxMem=  2684354560 cpu:               3.8 elap:               0.2
 (Enter /usr/local/g16_AVX//g16/l303.exe)
 DipDrv:  MaxL=1.
 Leave Link  303 at Sun Oct 13 09:49:10 2024, MaxMem=  2684354560 cpu:               0.8 elap:               0.1
 (Enter /usr/local/g16_AVX//g16/l401.exe)
 ExpMin= 3.60D-02 ExpMax= 2.52D+04 ExpMxC= 3.78D+03 IAcc=3 IRadAn=         5 AccDes= 0.00D+00
 Harris functional with IExCor=  402 and IRadAn=       5 diagonalized for initial guess.
 HarFok:  IExCor=  402 AccDes= 0.00D+00 IRadAn=         5 IDoV= 1 UseB2=F ITyADJ=14
 ICtDFT=  3500011 ScaDFX=  1.000000  1.000000  1.000000  1.000000
 FoFCou: FMM=F IPFlag=           0 FMFlag=      100000 FMFlg1=           0
         NFxFlg=           0 DoJE=T BraDBF=F KetDBF=T FulRan=T
         wScrn=  0.000000 ICntrl=       500 IOpCl=  0 I1Cent=   200000004 NGrid=           0
         NMat0=    1 NMatS0=      1 NMatT0=    0 NMatD0=    1 NMtDS0=    0 NMtDT0=    0
 Symmetry not used in FoFCou.
 Harris En= -593.093709534318    
 JPrj=0 DoOrth=F DoCkMO=F.
 Leave Link  401 at Sun Oct 13 09:49:10 2024, MaxMem=  2684354560 cpu:               5.9 elap:               0.3
 (Enter /usr/local/g16_AVX//g16/l502.exe)
 Keep R1 ints in memory in canonical form, NReq=35752935.
 FoFCou: FMM=F IPFlag=           0 FMFlag=           0 FMFlg1=           0
         NFxFlg=           0 DoJE=F BraDBF=F KetDBF=F FulRan=T
         wScrn=  0.000000 ICntrl=       600 IOpCl=  0 I1Cent=           0 NGrid=           0
         NMat0=    1 NMatS0=   4851 NMatT0=    0 NMatD0=    1 NMtDS0=    0 NMtDT0=    0
 Symmetry not used in FoFCou.
 Two-electron integral symmetry not used.
 Closed shell SCF:
 Using DIIS extrapolation, IDIIS=  1040.
 NGot=  2684354560 LenX=  2672563405 LenY=  2672553360
 Requested convergence on RMS density matrix=1.00D-08 within 128 cycles.
 Requested convergence on MAX density matrix=1.00D-06.
 Requested convergence on             energy=1.00D-06.
 No special actions if energy rises.

 Cycle   1  Pass 1  IDiag  1:
 E= -592.938385310200    
 DIIS: error= 3.10D-02 at cycle   1 NSaved=   1.
 NSaved= 1 IEnMin= 1 EnMin= -592.938385310200     IErMin= 1 ErrMin= 3.10D-02
 ErrMax= 3.10D-02  0.00D+00 EMaxC= 1.00D-01 BMatC= 1.03D-01 BMatP= 1.03D-01
 IDIUse=3 WtCom= 6.90D-01 WtEn= 3.10D-01
 Coeff-Com:  0.100D+01
 Coeff-En:   0.100D+01
 Coeff:      0.100D+01
 Gap=     0.165 Goal=   None    Shift=    0.000
 GapD=    0.165 DampG=1.000 DampE=0.500 DampFc=0.5000 IDamp=-1.
 Damping current iteration by 5.00D-01
 RMSDP=1.07D-02 MaxDP=1.79D-01              OVMax= 1.74D-01

 Cycle   2  Pass 1  IDiag  1:
 E= -592.970418063991     Delta-E=       -0.032032753791 Rises=F Damp=T
 DIIS: error= 1.87D-02 at cycle   2 NSaved=   2.
 NSaved= 2 IEnMin= 2 EnMin= -592.970418063991     IErMin= 2 ErrMin= 1.87D-02
 ErrMax= 1.87D-02  0.00D+00 EMaxC= 1.00D-01 BMatC= 2.00D-02 BMatP= 1.03D-01
 IDIUse=3 WtCom= 8.13D-01 WtEn= 1.87D-01
 Coeff-Com:  0.218D+00 0.782D+00
 Coeff-En:   0.317D+00 0.683D+00
 Coeff:      0.237D+00 0.763D+00
 Gap=     0.149 Goal=   None    Shift=    0.000
 RMSDP=4.57D-03 MaxDP=1.25D-01 DE=-3.20D-02 OVMax= 1.62D-01

 Cycle   3  Pass 1  IDiag  1:
 E= -593.025752895662     Delta-E=       -0.055334831671 Rises=F Damp=F
 DIIS: error= 1.44D-02 at cycle   3 NSaved=   3.
 NSaved= 3 IEnMin= 3 EnMin= -593.025752895662     IErMin= 3 ErrMin= 1.44D-02
 ErrMax= 1.44D-02  0.00D+00 EMaxC= 1.00D-01 BMatC= 2.15D-02 BMatP= 2.00D-02
 IDIUse=3 WtCom= 8.56D-01 WtEn= 1.44D-01
 Coeff-Com:  0.486D-01 0.499D+00 0.453D+00
 Coeff-En:   0.000D+00 0.000D+00 0.100D+01
 Coeff:      0.416D-01 0.427D+00 0.532D+00
 Gap=     0.169 Goal=   None    Shift=    0.000
 RMSDP=3.44D-03 MaxDP=1.03D-01 DE=-5.53D-02 OVMax= 7.61D-02

 Cycle   4  Pass 1  IDiag  1:
 E= -593.039149609563     Delta-E=       -0.013396713901 Rises=F Damp=F
 DIIS: error= 9.11D-03 at cycle   4 NSaved=   4.
 NSaved= 4 IEnMin= 4 EnMin= -593.039149609563     IErMin= 4 ErrMin= 9.11D-03
 ErrMax= 9.11D-03  0.00D+00 EMaxC= 1.00D-01 BMatC= 7.72D-03 BMatP= 2.00D-02
 IDIUse=3 WtCom= 9.09D-01 WtEn= 9.11D-02
 Coeff-Com:  0.201D-01 0.631D-01 0.365D+00 0.552D+00
 Coeff-En:   0.000D+00 0.000D+00 0.310D+00 0.690D+00
 Coeff:      0.183D-01 0.573D-01 0.360D+00 0.565D+00
 Gap=     0.160 Goal=   None    Shift=    0.000
 RMSDP=1.17D-03 MaxDP=3.31D-02 DE=-1.34D-02 OVMax= 2.86D-02

 Cycle   5  Pass 1  IDiag  1:
 E= -593.046070119276     Delta-E=       -0.006920509714 Rises=F Damp=F
 DIIS: error= 8.41D-04 at cycle   5 NSaved=   5.
 NSaved= 5 IEnMin= 5 EnMin= -593.046070119276     IErMin= 5 ErrMin= 8.41D-04
 ErrMax= 8.41D-04  0.00D+00 EMaxC= 1.00D-01 BMatC= 1.01D-04 BMatP= 7.72D-03
 IDIUse=3 WtCom= 9.92D-01 WtEn= 8.41D-03
 Coeff-Com:  0.538D-02-0.516D-03 0.141D+00 0.266D+00 0.587D+00
 Coeff-En:   0.000D+00 0.000D+00 0.000D+00 0.000D+00 0.100D+01
 Coeff:      0.534D-02-0.511D-03 0.140D+00 0.264D+00 0.591D+00
 Gap=     0.163 Goal=   None    Shift=    0.000
 RMSDP=2.17D-04 MaxDP=3.64D-03 DE=-6.92D-03 OVMax= 3.67D-03

 Cycle   6  Pass 1  IDiag  1:
 E= -593.046180705125     Delta-E=       -0.000110585849 Rises=F Damp=F
 DIIS: error= 1.43D-04 at cycle   6 NSaved=   6.
 NSaved= 6 IEnMin= 6 EnMin= -593.046180705125     IErMin= 6 ErrMin= 1.43D-04
 ErrMax= 1.43D-04  0.00D+00 EMaxC= 1.00D-01 BMatC= 2.96D-06 BMatP= 1.01D-04
 IDIUse=3 WtCom= 9.99D-01 WtEn= 1.43D-03
 Coeff-Com:  0.130D-02-0.253D-02 0.330D-01 0.650D-01 0.227D+00 0.676D+00
 Coeff-En:   0.000D+00 0.000D+00 0.000D+00 0.000D+00 0.000D+00 0.100D+01
 Coeff:      0.129D-02-0.252D-02 0.329D-01 0.649D-01 0.227D+00 0.677D+00
 Gap=     0.162 Goal=   None    Shift=    0.000
 RMSDP=8.01D-05 MaxDP=2.83D-03 DE=-1.11D-04 OVMax= 6.31D-04

 Cycle   7  Pass 1  IDiag  1:
 E= -593.046184111022     Delta-E=       -0.000003405896 Rises=F Damp=F
 DIIS: error= 2.93D-05 at cycle   7 NSaved=   7.
 NSaved= 7 IEnMin= 7 EnMin= -593.046184111022     IErMin= 7 ErrMin= 2.93D-05
 ErrMax= 2.93D-05  0.00D+00 EMaxC= 1.00D-01 BMatC= 1.04D-07 BMatP= 2.96D-06
 IDIUse=1 WtCom= 1.00D+00 WtEn= 0.00D+00
 Coeff-Com:  0.229D-03-0.877D-03 0.610D-02 0.122D-01 0.615D-01 0.246D+00
 Coeff-Com:  0.675D+00
 Coeff:      0.229D-03-0.877D-03 0.610D-02 0.122D-01 0.615D-01 0.246D+00
 Coeff:      0.675D+00
 Gap=     0.163 Goal=   None    Shift=    0.000
 RMSDP=9.32D-06 MaxDP=2.65D-04 DE=-3.41D-06 OVMax= 1.16D-04

 Cycle   8  Pass 1  IDiag  1:
 E= -593.046184205563     Delta-E=       -0.000000094541 Rises=F Damp=F
 DIIS: error= 1.03D-05 at cycle   8 NSaved=   8.
 NSaved= 8 IEnMin= 8 EnMin= -593.046184205563     IErMin= 8 ErrMin= 1.03D-05
 ErrMax= 1.03D-05  0.00D+00 EMaxC= 1.00D-01 BMatC= 1.48D-08 BMatP= 1.04D-07
 IDIUse=1 WtCom= 1.00D+00 WtEn= 0.00D+00
 Coeff-Com: -0.106D-04-0.109D-03-0.787D-03-0.151D-02 0.317D-02 0.344D-01
 Coeff-Com:  0.310D+00 0.655D+00
 Coeff:     -0.106D-04-0.109D-03-0.787D-03-0.151D-02 0.317D-02 0.344D-01
 Coeff:      0.310D+00 0.655D+00
 Gap=     0.163 Goal=   None    Shift=    0.000
 RMSDP=2.11D-06 MaxDP=4.34D-05 DE=-9.45D-08 OVMax= 3.52D-05

 Cycle   9  Pass 1  IDiag  1:
 E= -593.046184222538     Delta-E=       -0.000000016974 Rises=F Damp=F
 DIIS: error= 4.68D-07 at cycle   9 NSaved=   9.
 NSaved= 9 IEnMin= 9 EnMin= -593.046184222538     IErMin= 9 ErrMin= 4.68D-07
 ErrMax= 4.68D-07  0.00D+00 EMaxC= 1.00D-01 BMatC= 3.04D-11 BMatP= 1.48D-08
 IDIUse=1 WtCom= 1.00D+00 WtEn= 0.00D+00
 Coeff-Com:  0.298D-05-0.519D-05-0.126D-03-0.205D-03-0.728D-03-0.213D-02
 Coeff-Com:  0.322D-02 0.400D-01 0.960D+00
 Coeff:      0.298D-05-0.519D-05-0.126D-03-0.205D-03-0.728D-03-0.213D-02
 Coeff:      0.322D-02 0.400D-01 0.960D+00
 Gap=     0.163 Goal=   None    Shift=    0.000
 RMSDP=6.32D-07 MaxDP=2.15D-05 DE=-1.70D-08 OVMax= 3.29D-06

 Cycle  10  Pass 1  IDiag  1:
 E= -593.046184222587     Delta-E=       -0.000000000050 Rises=F Damp=F
 DIIS: error= 1.54D-07 at cycle  10 NSaved=  10.
 NSaved=10 IEnMin=10 EnMin= -593.046184222587     IErMin=10 ErrMin= 1.54D-07
 ErrMax= 1.54D-07  0.00D+00 EMaxC= 1.00D-01 BMatC= 9.25D-13 BMatP= 3.04D-11
 IDIUse=1 WtCom= 1.00D+00 WtEn= 0.00D+00
 Coeff-Com:  0.279D-06 0.945D-06-0.180D-04-0.316D-04-0.231D-03-0.116D-02
 Coeff-Com: -0.464D-02-0.201D-02 0.173D+00 0.835D+00
 Coeff:      0.279D-06 0.945D-06-0.180D-04-0.316D-04-0.231D-03-0.116D-02
 Coeff:     -0.464D-02-0.201D-02 0.173D+00 0.835D+00
 Gap=     0.163 Goal=   None    Shift=    0.000
 RMSDP=1.61D-07 MaxDP=5.51D-06 DE=-4.96D-11 OVMax= 4.26D-07

 Cycle  11  Pass 1  IDiag  1:
 E= -593.046184222586     Delta-E=        0.000000000001 Rises=F Damp=F
 DIIS: error= 4.55D-08 at cycle  11 NSaved=  11.
 NSaved=11 IEnMin=10 EnMin= -593.046184222587     IErMin=11 ErrMin= 4.55D-08
 ErrMax= 4.55D-08  0.00D+00 EMaxC= 1.00D-01 BMatC= 5.04D-14 BMatP= 9.25D-13
 IDIUse=1 WtCom= 1.00D+00 WtEn= 0.00D+00
 Coeff-Com: -0.201D-06 0.487D-06 0.642D-06-0.972D-07-0.248D-04-0.196D-03
 Coeff-Com: -0.123D-02-0.214D-02 0.350D-03 0.217D+00 0.787D+00
 Coeff:     -0.201D-06 0.487D-06 0.642D-06-0.972D-07-0.248D-04-0.196D-03
 Coeff:     -0.123D-02-0.214D-02 0.350D-03 0.217D+00 0.787D+00
 Gap=     0.163 Goal=   None    Shift=    0.000
 RMSDP=2.18D-08 MaxDP=7.02D-07 DE= 1.14D-12 OVMax= 1.09D-07

 Cycle  12  Pass 1  IDiag  1:
 E= -593.046184222586     Delta-E=       -0.000000000000 Rises=F Damp=F
 DIIS: error= 4.72D-09 at cycle  12 NSaved=  12.
 NSaved=12 IEnMin=10 EnMin= -593.046184222587     IErMin=12 ErrMin= 4.72D-09
 ErrMax= 4.72D-09  0.00D+00 EMaxC= 1.00D-01 BMatC= 1.64D-15 BMatP= 5.04D-14
 IDIUse=1 WtCom= 1.00D+00 WtEn= 0.00D+00
 Coeff-Com: -0.652D-07 0.851D-07 0.557D-06 0.893D-06 0.419D-05 0.125D-04
 Coeff-Com:  0.240D-04-0.224D-03-0.510D-02 0.760D-02 0.140D+00 0.858D+00
 Coeff:     -0.652D-07 0.851D-07 0.557D-06 0.893D-06 0.419D-05 0.125D-04
 Coeff:      0.240D-04-0.224D-03-0.510D-02 0.760D-02 0.140D+00 0.858D+00
 Gap=     0.163 Goal=   None    Shift=    0.000
 RMSDP=3.60D-09 MaxDP=1.09D-07 DE=-1.14D-13 OVMax= 1.73D-08

 SCF Done:  E(RB3LYP) =  -593.046184223     A.U. after   12 cycles
            NFock= 12  Conv=0.36D-08     -V/T= 2.0049
 KE= 5.901311412248D+02 PE=-1.628254402155D+03 EE= 3.361144101970D+02
 Leave Link  502 at Sun Oct 13 09:49:12 2024, MaxMem=  2684354560 cpu:              36.3 elap:               1.7
 (Enter /usr/local/g16_AVX//g16/l801.exe)
 DoSCS=F DFT=T ScalE2(SS,OS)=  1.000000  1.000000
 Range of M.O.s used for correlation:     1    98
 NBasis=    98 NAE=    20 NBE=    20 NFC=     0 NFV=     0
 NROrb=     98 NOA=    20 NOB=    20 NVA=    78 NVB=    78

 **** Warning!!: The largest alpha MO coefficient is  0.10565769D+03

 Leave Link  801 at Sun Oct 13 09:49:12 2024, MaxMem=  2684354560 cpu:               0.6 elap:               0.1
 (Enter /usr/local/g16_AVX//g16/l1101.exe)
 Using compressed storage, NAtomX=     7.
 Will process      8 centers per pass.
 Leave Link 1101 at Sun Oct 13 09:49:12 2024, MaxMem=  2684354560 cpu:               3.5 elap:               0.2
 (Enter /usr/local/g16_AVX//g16/l1102.exe)
 Symmetrizing basis deriv contribution to polar:
 IMax=3 JMax=2 DiffMx= 0.00D+00
 Leave Link 1102 at Sun Oct 13 09:49:12 2024, MaxMem=  2684354560 cpu:               0.7 elap:               0.1
 (Enter /usr/local/g16_AVX//g16/l1110.exe)
 Forming Gx(P) for the SCF density, NAtomX=     7.
 Integral derivatives from FoFJK, PRISM(SPDF).
 Do as many integral derivatives as possible in FoFJK.
 G2DrvN: MDV=    2684353864.
 G2DrvN: will do     8 centers at a time, making    1 passes.
 Calling FoFCou, ICntrl=  3107 FMM=F I1Cent=   0 AccDes= 0.00D+00.
 FoFJK:  IHMeth= 1 ICntrl=    3107 DoSepK=F KAlg= 0 I1Cent=           0 FoldK=F
 IRaf=         0 NMat=       1 IRICut=       1 DoRegI=T DoRafI=F ISym2E= 0 IDoP0=0 IntGTp=1.
 FoFCou: FMM=F IPFlag=           0 FMFlag=      100000 FMFlg1=           0
         NFxFlg=           0 DoJE=F BraDBF=F KetDBF=F FulRan=T
         wScrn=  0.000000 ICntrl=      3107 IOpCl=  0 I1Cent=           0 NGrid=           0
         NMat0=    1 NMatS0=      1 NMatT0=    0 NMatD0=    1 NMtDS0=    0 NMtDT0=    0
 Symmetry not used in FoFCou.
 End of G2Drv F.D. properties file   721 does not exist.
 End of G2Drv F.D. properties file   722 does not exist.
 End of G2Drv F.D. properties file   788 does not exist.
 Leave Link 1110 at Sun Oct 13 09:49:14 2024, MaxMem=  2684354560 cpu:              40.0 elap:               1.6
 (Enter /usr/local/g16_AVX//g16/l1002.exe)
 Minotr:  Closed shell wavefunction.
          IDoAtm=1111111
          Direct CPHF calculation.
          Differentiating once with respect to electric field.
                with respect to dipole field.
          Differentiating once with respect to nuclear coordinates.
          Requested convergence is 1.0D-08 RMS, and 1.0D-07 maximum.
          Secondary convergence is 1.0D-12 RMS, and 1.0D-12 maximum.
          NewPWx=T KeepS1=F KeepF1=F KeepIn=T MapXYZ=F SortEE=F KeepMc=T.
         2122 words used for storage of precomputed grid.
 Keep R1 ints in memory in canonical form, NReq=35668383.
 FoFCou: FMM=F IPFlag=           0 FMFlag=           0 FMFlg1=           0
         NFxFlg=           0 DoJE=F BraDBF=F KetDBF=F FulRan=T
         wScrn=  0.000000 ICntrl=       600 IOpCl=  0 I1Cent=           0 NGrid=           0
         NMat0=    1 NMatS0=   4851 NMatT0=    0 NMatD0=    1 NMtDS0=    0 NMtDT0=    0
 Symmetry not used in FoFCou.
 Two-electron integral symmetry not used.
          MDV=    2684354560 using IRadAn=       1.
          Solving linear equations simultaneously, MaxMat=       0.
          There are    24 degrees of freedom in the 1st order CPHF.  IDoFFX=6 NUNeed=     3.
     21 vectors produced by pass  0 Test12= 6.50D-15 4.17D-09 XBig12= 7.49D+01 3.63D+00.
 AX will form    21 AO Fock derivatives at one time.
     21 vectors produced by pass  1 Test12= 6.50D-15 4.17D-09 XBig12= 5.29D+01 3.14D+00.
     21 vectors produced by pass  2 Test12= 6.50D-15 4.17D-09 XBig12= 1.99D+00 3.80D-01.
     21 vectors produced by pass  3 Test12= 6.50D-15 4.17D-09 XBig12= 1.77D-02 2.95D-02.
     21 vectors produced by pass  4 Test12= 6.50D-15 4.17D-09 XBig12= 3.25D-05 1.31D-03.
     20 vectors produced by pass  5 Test12= 6.50D-15 4.17D-09 XBig12= 5.22D-08 4.83D-05.
      6 vectors produced by pass  6 Test12= 6.50D-15 4.17D-09 XBig12= 1.09D-10 1.86D-06.
      1 vectors produced by pass  7 Test12= 6.50D-15 4.17D-09 XBig12= 1.76D-13 1.30D-07.
      1 vectors produced by pass  8 Test12= 6.50D-15 4.17D-09 XBig12= 3.38D-16 4.98D-09.
 InvSVY:  IOpt=1 It=  1 EMax= 1.78D-15
 Solved reduced A of dimension   133 with    24 vectors.
 FullF1:  Do perturbations      1 to       3.
 Isotropic polarizability for W=    0.000000       55.80 Bohr**3.
 End of Minotr F.D. properties file   721 does not exist.
 End of Minotr F.D. properties file   722 does not exist.
 End of Minotr F.D. properties file   788 does not exist.
 Leave Link 1002 at Sun Oct 13 09:49:16 2024, MaxMem=  2684354560 cpu:              56.6 elap:               2.3
 (Enter /usr/local/g16_AVX//g16/l601.exe)
 Copying SCF densities to generalized density rwf, IOpCl= 0 IROHF=0.

 **********************************************************************

            Population analysis using the SCF Density.

 **********************************************************************

 Alpha  occ. eigenvalues -- -101.25750 -14.22185 -10.11848 -10.09378  -9.17182
 Alpha  occ. eigenvalues --   -6.92962  -6.92962  -6.92932  -0.77928  -0.60713
 Alpha  occ. eigenvalues --   -0.51316  -0.35201  -0.30564  -0.30561  -0.24650
 Alpha  occ. eigenvalues --   -0.20959  -0.20958  -0.05846  -0.05846  -0.05635
 Alpha virt. eigenvalues --    0.10618   0.14612   0.14641   0.14642   0.14921
 Alpha virt. eigenvalues --    0.14921   0.20444   0.20979   0.20979   0.21436
 Alpha virt. eigenvalues --    0.23973   0.23975   0.25493   0.26113   0.26113
 Alpha virt. eigenvalues --    0.27561   0.31763   0.34099   0.34099   0.34873
 Alpha virt. eigenvalues --    0.34878   0.35351   0.39244   0.41837   0.48498
 Alpha virt. eigenvalues --    0.70917   0.78963   0.78963   0.84087   0.84094
 Alpha virt. eigenvalues --    0.86116   0.86116   0.86130   0.88706   0.97844
 Alpha virt. eigenvalues --    1.01935   1.03560   1.03562   1.10337   1.12341
 Alpha virt. eigenvalues --    1.12343   1.14882   1.14883   1.17025   1.17029
 Alpha virt. eigenvalues --    1.23588   1.25963   1.34883   1.48448   1.48448
 Alpha virt. eigenvalues --    1.52659   1.64715   1.64715   1.81913   1.81921
 Alpha virt. eigenvalues --    1.88180   2.06696   2.06697   2.15536   2.19065
 Alpha virt. eigenvalues --    2.23521   2.23536   2.41915   2.41925   2.79136
 Alpha virt. eigenvalues --    2.79156   2.82465   2.98283   3.02511   3.02515
 Alpha virt. eigenvalues --    3.23104   3.45620   3.55454   3.55462   4.22444
 Alpha virt. eigenvalues --    4.39743   4.58645   4.74395
          Condensed to atoms (all electrons):
               1          2          3          4          5          6
     1  C    5.802100  -0.154216   0.428222   0.428073   0.428072  -0.856482
     2  Cl  -0.154216  17.976491  -0.019775  -0.019801  -0.019801   0.113722
     3  H    0.428222  -0.019775   0.482776  -0.022327  -0.022328  -0.060150
     4  H    0.428073  -0.019801  -0.022327   0.482842  -0.022363  -0.059979
     5  H    0.428072  -0.019801  -0.022328  -0.022363   0.482838  -0.059975
     6  C   -0.856482   0.113722  -0.060150  -0.059979  -0.059975   6.602848
     7  N   -0.102444   0.002611  -0.005242  -0.005262  -0.005263   0.568292
               7
     1  C   -0.102444
     2  Cl   0.002611
     3  H   -0.005242
     4  H   -0.005262
     5  H   -0.005263
     6  C    0.568292
     7  N    7.102939
 Mulliken charges:
               1
     1  C    0.026675
     2  Cl  -0.879231
     3  H    0.218824
     4  H    0.218819
     5  H    0.218821
     6  C   -0.248276
     7  N   -0.555632
 Sum of Mulliken charges =  -1.00000
 Mulliken charges with hydrogens summed into heavy atoms:
               1
     1  C    0.683138
     2  Cl  -0.879231
     6  C   -0.248276
     7  N   -0.555632
 APT charges:
               1
     1  C    0.272892
     2  Cl  -0.993069
     3  H    0.069537
     4  H    0.069426
     5  H    0.069430
     6  C    0.003944
     7  N   -0.492159
 Sum of APT charges =  -1.00000
 APT charges with hydrogens summed into heavy atoms:
               1
     1  C    0.481285
     2  Cl  -0.993069
     6  C    0.003944
     7  N   -0.492159
 Electronic spatial extent (au):  <R**2>=            819.0515
 Charge=             -1.0000 electrons
 Dipole moment (field-independent basis, Debye):
    X=              4.5994    Y=              0.0000    Z=             -0.0008  Tot=              4.5994
 Quadrupole moment (field-independent basis, Debye-Ang):
   XX=            -84.0208   YY=            -35.4891   ZZ=            -35.4881
   XY=              0.0000   XZ=              0.0003   YZ=              0.0000
 Traceless Quadrupole moment (field-independent basis, Debye-Ang):
   XX=            -32.3548   YY=             16.1769   ZZ=             16.1779
   XY=              0.0000   XZ=              0.0003   YZ=              0.0000
 Octapole moment (field-independent basis, Debye-Ang**2):
  XXX=            -22.2717  YYY=             -0.0061  ZZZ=             -0.8749  XYY=              2.8403
  XXY=              0.0002  XXZ=             -0.0062  XZZ=              2.8400  YZZ=              0.0061
  YYZ=              0.8744  XYZ=              0.0000
 Hexadecapole moment (field-independent basis, Debye-Ang**3):
 XXXX=          -1609.7040 YYYY=            -57.6142 ZZZZ=            -57.6141 XXXY=              0.0005
 XXXZ=              0.0011 YYYX=             -0.0005 YYYZ=              0.0000 ZZZX=             -0.0727
 ZZZY=             -0.0000 XXYY=           -207.0227 XXZZ=           -207.0226 YYZZ=            -19.2047
 XXYZ=             -0.0000 YYXZ=              0.0878 ZZXY=              0.0006
 N-N= 1.089626665109D+02 E-N=-1.628254401978D+03  KE= 5.901311412248D+02
  Exact polarizability:  85.150  -0.000  41.120   0.002  -0.000  41.122
 Approx polarizability: 104.391  -0.000  50.474   0.006   0.000  50.475
 No NMR shielding tensors so no spin-rotation constants.
 Leave Link  601 at Sun Oct 13 09:49:16 2024, MaxMem=  2684354560 cpu:               2.6 elap:               0.1
 (Enter /usr/local/g16_AVX//g16/l701.exe)
 ... and contract with generalized density number  0.
 Compute integral second derivatives.
 Leave Link  701 at Sun Oct 13 09:49:17 2024, MaxMem=  2684354560 cpu:               4.4 elap:               0.2
 (Enter /usr/local/g16_AVX//g16/l702.exe)
 L702 exits ... SP integral derivatives will be done elsewhere.
 Leave Link  702 at Sun Oct 13 09:49:17 2024, MaxMem=  2684354560 cpu:               0.5 elap:               0.0
 (Enter /usr/local/g16_AVX//g16/l703.exe)
 Integral derivatives from FoFJK, PRISM(SPDF).
 Compute integral second derivatives, UseDBF=F ICtDFT=           0.
 Calling FoFJK, ICntrl=    100127 FMM=F ISym2X=0 I1Cent= 0 IOpClX= 0 NMat=1 NMatS=1 NMatT=0.
 FoFJK:  IHMeth= 1 ICntrl=  100127 DoSepK=F KAlg= 0 I1Cent=           0 FoldK=F
 IRaf=         0 NMat=       1 IRICut=       1 DoRegI=T DoRafI=F ISym2E= 0 IDoP0=0 IntGTp=1.
 FoFCou: FMM=F IPFlag=           0 FMFlag=      100000 FMFlg1=         800
         NFxFlg=           0 DoJE=F BraDBF=F KetDBF=F FulRan=T
         wScrn=  0.000000 ICntrl=    100127 IOpCl=  0 I1Cent=           0 NGrid=           0
         NMat0=    1 NMatS0=      1 NMatT0=    0 NMatD0=    1 NMtDS0=    0 NMtDT0=    0
 Symmetry not used in FoFCou.
 Leave Link  703 at Sun Oct 13 09:49:19 2024, MaxMem=  2684354560 cpu:              68.1 elap:               2.7
 (Enter /usr/local/g16_AVX//g16/l716.exe)
 Dipole        = 1.80953653D+00 7.22869172D-06-3.02994693D-04
 Polarizability= 8.51496008D+01-5.74997847D-05 4.11198791D+01
                 1.55441140D-03-6.45069136D-06 4.11220208D+01
 Full mass-weighted force constant matrix:
 Low frequencies ---  -53.4663  -53.1955   -0.0030    0.0023    0.0040  146.7538
 Low frequencies ---  166.2214  166.3096  220.1085
 Diagonal vibrational polarizability:
       18.4068054      25.9291059      25.9873580
 Harmonic frequencies (cm**-1), IR intensities (KM/Mole), Raman scattering
 activities (A**4/AMU), depolarization ratios for plane and unpolarized
 incident light, reduced masses (AMU), force constants (mDyne/A),
 and normal coordinates:
                      1                      2                      3
                      A                      A                      A
 Frequencies --    150.8834               151.0432               220.1085
 Red. masses --      4.2659                 4.2678                13.9170
 Frc consts  --      0.0572                 0.0574                 0.3973
 IR Inten    --     21.8394                21.8362                19.3897
  Atom  AN      X      Y      Z        X      Y      Z        X      Y      Z
     1   6     0.00   0.01   0.41     0.00   0.41  -0.01    -0.34   0.00   0.00
     2  17    -0.00  -0.00  -0.10    -0.00  -0.10   0.00     0.46  -0.00  -0.00
     3   1    -0.20   0.01   0.48     0.00   0.47  -0.01    -0.32   0.00  -0.00
     4   1     0.10   0.01   0.47     0.17   0.48  -0.00    -0.32   0.00   0.00
     5   1     0.10   0.00   0.47    -0.18   0.48  -0.01    -0.32  -0.00   0.00
     6   6     0.00   0.00   0.09     0.00   0.09  -0.00    -0.42   0.00  -0.00
     7   7     0.00  -0.00  -0.28     0.00  -0.28   0.00    -0.43  -0.00  -0.00
                      4                      5                      6
                      A                      A                      A
 Frequencies --    443.7808               443.8542               536.3433
 Red. masses --      3.4250                 3.4256                 8.1768
 Frc consts  --      0.3974                 0.3976                 1.3859
 IR Inten    --      0.2123                 0.2118                79.0926
  Atom  AN      X      Y      Z        X      Y      Z        X      Y      Z
     1   6    -0.00  -0.00  -0.11    -0.00  -0.11   0.00     0.66  -0.00  -0.00
     2  17     0.00   0.00   0.01    -0.00   0.01  -0.00    -0.02   0.00   0.00
     3   1     0.58  -0.01  -0.31    -0.01  -0.31   0.01     0.34  -0.00   0.09
     4   1    -0.30  -0.01  -0.31    -0.49  -0.31   0.00     0.34  -0.07  -0.04
     5   1    -0.28  -0.00  -0.31     0.50  -0.31   0.01     0.34   0.07  -0.04
     6   6    -0.00   0.01   0.40     0.00   0.40  -0.01    -0.29   0.00   0.00
     7   7     0.00  -0.00  -0.20     0.00  -0.20   0.00    -0.33  -0.00  -0.00
                      7                      8                      9
                      A                      A                      A
 Frequencies --   1019.3108              1019.4365              1280.6431
 Red. masses --      1.4032                 1.4030                 1.0995
 Frc consts  --      0.8590                 0.8591                 1.0624
 IR Inten    --      0.5780                 0.5821                10.6505
  Atom  AN      X      Y      Z        X      Y      Z        X      Y      Z
     1   6    -0.00   0.00   0.14     0.00   0.14  -0.00    -0.09   0.00  -0.00
     2  17    -0.00  -0.00  -0.00    -0.00  -0.00   0.00    -0.00   0.00  -0.00
     3   1     0.74  -0.00  -0.11    -0.00  -0.28  -0.00     0.54   0.00  -0.19
     4   1    -0.38   0.07  -0.24    -0.64  -0.15   0.08     0.54   0.17   0.10
     5   1    -0.37  -0.08  -0.24     0.65  -0.15  -0.07     0.54  -0.17   0.10
     6   6     0.00  -0.00  -0.12    -0.00  -0.12   0.00    -0.01   0.00   0.00
     7   7    -0.00   0.00   0.02     0.00   0.02  -0.00    -0.03   0.00  -0.00
                     10                     11                     12
                      A                      A                      A
 Frequencies --   1439.7833              1439.8606              2194.2650
 Red. masses --      1.0494                 1.0495                12.3891
 Frc consts  --      1.2817                 1.2819                35.1454
 IR Inten    --      9.7285                 9.7174                10.9386
  Atom  AN      X      Y      Z        X      Y      Z        X      Y      Z
     1   6    -0.00  -0.06   0.00     0.00  -0.00  -0.06    -0.02   0.00  -0.00
     2  17    -0.00  -0.00   0.00     0.00  -0.00  -0.00    -0.00  -0.00   0.00
     3   1    -0.01   0.73   0.00     0.32   0.01  -0.14    -0.09  -0.00   0.05
     4   1    -0.28   0.08  -0.39    -0.17  -0.38   0.51    -0.09  -0.04  -0.03
     5   1     0.28   0.07   0.37    -0.16   0.38   0.52    -0.09   0.04  -0.03
     6   6    -0.00  -0.02   0.00     0.00  -0.00  -0.02     0.77  -0.00   0.00
     7   7    -0.00   0.00  -0.00     0.00   0.00   0.00    -0.62   0.00  -0.00
                     13                     14                     15
                      A                      A                      A
 Frequencies --   3113.3057              3224.0577              3224.1574
 Red. masses --      1.0260                 1.1091                 1.1091
 Frc consts  --      5.8592                 6.7922                 6.7928
 IR Inten    --      0.4939                 0.4298                 0.4327
  Atom  AN      X      Y      Z        X      Y      Z        X      Y      Z
     1   6    -0.04  -0.00   0.00     0.00  -0.10   0.00    -0.00  -0.00  -0.10
     2  17    -0.00  -0.00  -0.00     0.00   0.00  -0.00    -0.00   0.00   0.00
     3   1     0.17  -0.00   0.55    -0.01  -0.02  -0.03     0.25  -0.00   0.77
     4   1     0.17  -0.48  -0.28    -0.21   0.56   0.34    -0.13   0.36   0.19
     5   1     0.17   0.48  -0.27     0.22   0.59  -0.35    -0.12  -0.32   0.16
     6   6    -0.00   0.00  -0.00     0.00   0.00  -0.00     0.00   0.00   0.00
     7   7     0.00  -0.00  -0.00    -0.00  -0.00   0.00    -0.00  -0.00  -0.00

 -------------------
 - Thermochemistry -
 -------------------
 Temperature   298.150 Kelvin.  Pressure   1.00000 Atm.
 Atom     1 has atomic number  6 and mass  12.00000
 Atom     2 has atomic number 17 and mass  34.96885
 Atom     3 has atomic number  1 and mass   1.00783
 Atom     4 has atomic number  1 and mass   1.00783
 Atom     5 has atomic number  1 and mass   1.00783
 Atom     6 has atomic number  6 and mass  12.00000
 Atom     7 has atomic number  7 and mass  14.00307
 Molecular mass:    75.99540 amu.
 Principal axes and moments of inertia in atomic units:
                           1         2         3
     Eigenvalues --    11.492811408.060221408.06228
           X            1.00000   0.00002   0.00000
           Y           -0.00000   0.00567   0.99998
           Z           -0.00002   0.99998  -0.00567
 This molecule is an asymmetric top.
 Rotational symmetry number  1.
 Rotational temperatures (Kelvin)      7.53636     0.06151     0.06151
 Rotational constants (GHZ):         157.03217     1.28172     1.28172
 Zero-point vibrational energy     119033.4 (Joules/Mol)
                                   28.44967 (Kcal/Mol)
 Warning -- explicit consideration of   6 degrees of freedom as
           vibrations may cause significant error
 Vibrational temperatures:    217.09   217.32   316.69   638.50   638.61
          (Kelvin)            771.68  1466.56  1466.74  1842.56  2071.53
                             2071.64  3157.06  4479.35  4638.70  4638.84
 
 Zero-point correction=                           0.045337 (Hartree/Particle)
 Thermal correction to Energy=                    0.050813
 Thermal correction to Enthalpy=                  0.051758
 Thermal correction to Gibbs Free Energy=         0.016954
 Sum of electronic and zero-point Energies=           -593.000847
 Sum of electronic and thermal Energies=              -592.995371
 Sum of electronic and thermal Enthalpies=            -592.994427
 Sum of electronic and thermal Free Energies=         -593.029230
 
                     E (Thermal)             CV                S
                      KCal/Mol        Cal/Mol-Kelvin    Cal/Mol-Kelvin
 Total                   31.886             16.555             73.250
 Electronic               0.000              0.000              0.000
 Translational            0.889              2.981             38.900
 Rotational               0.889              2.981             24.636
 Vibrational             30.108             10.594              9.714
 Vibration     1          0.618              1.902              2.661
 Vibration     2          0.618              1.902              2.659
 Vibration     3          0.647              1.810              1.958
 Vibration     4          0.803              1.375              0.815
 Vibration     5          0.803              1.374              0.815
 Vibration     6          0.891              1.170              0.573
                       Q            Log10(Q)             Ln(Q)
 Total Bot       0.159131D-07         -7.798244        -17.956120
 Total V=0       0.113634D+14         13.055510         30.061423
 Vib (Bot)       0.113094D-19        -19.946559        -45.928650
 Vib (Bot)    1  0.134353D+01          0.128248          0.295303
 Vib (Bot)    2  0.134205D+01          0.127769          0.294198
 Vib (Bot)    3  0.898623D+00         -0.046423         -0.106892
 Vib (Bot)    4  0.388366D+00         -0.410758         -0.945806
 Vib (Bot)    5  0.388279D+00         -0.410856         -0.946030
 Vib (Bot)    6  0.296418D+00         -0.528095         -1.215983
 Vib (V=0)       0.807597D+01          0.907195          2.088894
 Vib (V=0)    1  0.193356D+01          0.286357          0.659361
 Vib (V=0)    2  0.193217D+01          0.286044          0.658641
 Vib (V=0)    3  0.152836D+01          0.184225          0.424195
 Vib (V=0)    4  0.113311D+01          0.054272          0.124966
 Vib (V=0)    5  0.113306D+01          0.054252          0.124919
 Vib (V=0)    6  0.108126D+01          0.033930          0.078128
 Electronic      0.100000D+01          0.000000          0.000000
 Translational   0.260396D+08          7.415635         17.075130
 Rotational      0.540356D+05          4.732680         10.897399
 
                                                      RxCoord=-3.89914 DE=12.17
                                                             IR Spectrum
 
      3   3                                   2                             1     1         1                                        
      2   1                                   1                             4     2         0                  5   4        2  1     
      2   1                                   9                             4     8         1                  3   4        2  5     
      4   3                                   4                             0     1         9                  6   4        0  1     
 
      X   X                                   X                             X     X         X                  X   X        X  X     
                                              X                             X     X                            X            X  X     
                                              X                             X     X                            X            X  X     
                                                                            X                                  X            X  X     
                                                                            X                                  X            X  X     
                                                                                                               X               X     
                                                                                                               X               X     
                                                                                                               X               X     
                                                                                                               X               X     
                                                                                                               X               X     
                                                                                                               X               X     
                                                                                                               X                     
                                                                                                               X                     
                                                                                                               X                     
                                                                                                               X                     
                                                                                                               X                     
                                                                                                               X                     
                                                                                                               X                     
                                                                                                               X                     
                                                                                                               X                     
 
 -------------------------------------------------------------------
 Center     Atomic                   Forces (Hartrees/Bohr)
 Number     Number              X              Y              Z
 -------------------------------------------------------------------
      1        6           0.060796654   -0.000000652    0.000033257
      2       17          -0.016279667   -0.000000117    0.000006518
      3        1           0.000130857   -0.000003347    0.001591442
      4        1           0.000112323   -0.001359169   -0.000812490
      5        1           0.000113422    0.001363617   -0.000806018
      6        6          -0.018804788   -0.000000599   -0.000000434
      7        7          -0.026068801    0.000000268   -0.000012275
 -------------------------------------------------------------------
 Cartesian Forces:  Max     0.060796654 RMS     0.015433508
 Z-matrix is all fixed cartesians, so copy forces.
 Force constants in Cartesian coordinates: 
                1             2             3             4             5 
      1  0.230322D+00
      2  0.193942D-05  0.599967D+00
      3  0.893158D-04  0.140500D-05  0.600127D+00
      4 -0.953427D-02  0.000000D+00  0.240766D-05  0.360779D-01
      5  0.000000D+00 -0.534146D-03  0.000000D+00  0.000000D+00 -0.191114D-02
      6  0.143760D-05  0.000000D+00 -0.534616D-03 -0.271790D-05  0.000000D+00
      7 -0.570932D-01  0.202569D-03 -0.871305D-01 -0.506000D-02  0.000000D+00
      8  0.196626D-03 -0.426094D-01  0.631029D-03  0.325190D-05 -0.107057D-02
      9 -0.846036D-01  0.631029D-03 -0.313884D+00 -0.141395D-02 -0.475253D-05
     10 -0.570421D-01  0.752715D-01  0.437046D-01 -0.506371D-02 -0.307494D-04
     11  0.730859D-01 -0.245508D+00 -0.117829D+00  0.122210D-02  0.541520D-03
     12  0.424332D-01 -0.117834D+00 -0.111034D+00  0.710124D-03  0.948284D-03
     13 -0.570440D-01 -0.754761D-01  0.433550D-01 -0.506389D-02  0.309799D-04
     14 -0.732847D-01 -0.246598D+00  0.117197D+00 -0.122494D-02  0.549788D-03
     15  0.420938D-01  0.117201D+00 -0.109940D+00  0.704623D-03 -0.943235D-03
     16 -0.561040D-01  0.000000D+00 -0.151000D-04 -0.734309D-02  0.000000D+00
     17  0.000000D+00 -0.825674D-01  0.000000D+00  0.000000D+00  0.306751D-02
     18 -0.269600D-04  0.000000D+00 -0.825893D-01  0.119982D-05  0.000000D+00
     19  0.649524D-02  0.000000D+00 -0.568324D-05 -0.401291D-02  0.000000D+00
     20  0.000000D+00  0.178503D-01  0.000000D+00  0.000000D+00 -0.642963D-03
     21  0.128868D-04  0.000000D+00  0.178541D-01 -0.168401D-05  0.000000D+00
                6             7             8             9            10 
      6 -0.193270D-02
      7  0.353347D-04  0.752391D-01
      8 -0.472711D-05 -0.214554D-03  0.437973D-01
      9  0.108519D-02  0.922889D-01 -0.664777D-03  0.329324D+00
     10 -0.178509D-04  0.380920D-02 -0.843714D-02 -0.414784D-02  0.752054D-01
     11  0.948415D-03 -0.671714D-03  0.107444D-02  0.207533D-02 -0.797316D-01
     12 -0.517108D-03  0.936523D-02 -0.241886D-01 -0.118344D-01 -0.462970D-01
     13 -0.176602D-04  0.380914D-02  0.845633D-02 -0.410860D-02  0.380297D-02
     14 -0.943382D-03  0.627986D-03  0.970935D-03 -0.201543D-02 -0.777798D-02
     15 -0.526000D-03  0.936841D-02  0.242483D-01 -0.117316D-01 -0.526276D-02
     16  0.104103D-05 -0.200659D-01  0.155375D-05 -0.637282D-03 -0.200734D-01
     17  0.000000D+00  0.633749D-04 -0.310695D-02 -0.284732D-04  0.235640D-01
     18  0.306845D-02 -0.272277D-01 -0.282845D-04  0.914464D-02  0.136806D-01
     19  0.000000D+00 -0.638284D-03 -0.606586D-05  0.262236D-02 -0.638446D-03
     20  0.000000D+00 -0.767377D-05  0.944300D-03  0.707624D-05 -0.285808D-02
     21 -0.643214D-03  0.330029D-02  0.706406D-05 -0.210397D-02 -0.165975D-02
               11            12            13            14            15 
     11  0.257378D+00
     12  0.124010D+00  0.115803D+00
     13  0.780214D-02 -0.522631D-02  0.752074D-01
     14 -0.181995D-01  0.130760D-01  0.799478D-01  0.258526D+00
     15 -0.131951D-01  0.742541D-02 -0.459266D-01 -0.123344D+00  0.114652D+00
     16  0.559905D-03  0.332065D-03 -0.200734D-01 -0.561029D-03  0.329279D-03
     17  0.604830D-02  0.531083D-02 -0.236268D-01  0.609804D-02 -0.528252D-02
     18  0.531431D-02 -0.182820D-04  0.135706D-01 -0.528616D-02 -0.676478D-04
     19 -0.226671D-02 -0.131730D-02 -0.638229D-03  0.227285D-02 -0.130672D-02
     20 -0.133456D-02 -0.132263D-02  0.286569D-02 -0.134693D-02  0.131557D-02
     21 -0.132351D-02  0.175172D-03 -0.164637D-02  0.131646D-02  0.187457D-03
               16            17            18            19            20 
     16  0.126186D+01
     17 -0.588840D-05  0.112387D+00
     18  0.285875D-03  0.000000D+00  0.112387D+00
     19 -0.113820D+01  0.526490D-05 -0.283585D-03  0.113764D+01
     20  0.555868D-05 -0.419262D-01  0.000000D+00 -0.548226D-05  0.264561D-01
     21 -0.295879D-03  0.000000D+00 -0.419247D-01  0.290512D-03  0.000000D+00
               21 
     21  0.264551D-01
 Leave Link  716 at Sun Oct 13 09:49:19 2024, MaxMem=  2684354560 cpu:               1.0 elap:               0.1
 (Enter /usr/local/g16_AVX//g16/l103.exe)

 GradGradGradGradGradGradGradGradGradGradGradGradGradGradGradGradGradGrad
 Berny optimization.
 Search for a local minimum.
 Step number   1 out of a maximum of    2
 All quantities printed in internal units (Hartrees-Bohrs-Radians)
 Second derivative matrix not updated -- analytic derivatives used.
 ITU=  0
     Eigenvalues ---    0.00383   0.00385   0.03045   0.03046   0.03560
     Eigenvalues ---    0.07760   0.09771   0.09772   0.14062   0.16064
     Eigenvalues ---    0.16064   0.47347   0.87569   0.87586   2.34010
 Quadratic step=6.718D-01 exceeds max=3.000D-01 adjusted using Lamda=-9.623D-02.
 Angle between NR and scaled steps=  19.40 degrees.
 Angle between quadratic step and forces=  21.17 degrees.
 Linear search not attempted -- first point.
 B after Tr=    -0.021600   -0.000000    0.000012
         Rot=    1.000000   -0.000000   -0.000002    0.000000 Ang=  -0.00 deg.
 Variable       Old X    -DE/DX   Delta X   Delta X   Delta X     New X
                                 (Linear)    (Quad)   (Total)
    X1        1.01643   0.06080   0.00000   0.23861   0.21701   1.23345
    Y1        0.00001  -0.00000   0.00000  -0.00000  -0.00000   0.00001
    Z1       -0.00042   0.00003   0.00000   0.00007   0.00008  -0.00034
    X2       -4.28287  -0.01628   0.00000  -0.07473  -0.09633  -4.37920
    Y2       -0.00000  -0.00000   0.00000  -0.00000  -0.00000  -0.00000
    Z2        0.00018   0.00001   0.00000   0.00000   0.00003   0.00020
    X3        0.36573   0.00013   0.00000   0.05237   0.03077   0.39649
    Y3        0.00454  -0.00000   0.00000  -0.00009  -0.00009   0.00445
    Z3       -1.94993   0.00159   0.00000   0.04030   0.04031  -1.90962
    X4        0.36646   0.00011   0.00000   0.05219   0.03059   0.39705
    Y4        1.68605  -0.00136   0.00000  -0.03472  -0.03472   1.65133
    Z4        0.97875  -0.00081   0.00000  -0.02028  -0.02027   0.95848
    X5        0.36643   0.00011   0.00000   0.05220   0.03060   0.39703
    Y5       -1.69056   0.00136   0.00000   0.03481   0.03481  -1.65575
    Z5        0.97089  -0.00081   0.00000  -0.02012  -0.02011   0.95079
    X6        4.05083  -0.01880   0.00000  -0.07738  -0.09898   3.95185
    Y6        0.00000  -0.00000   0.00000  -0.00000  -0.00000  -0.00000
    Z6       -0.00036  -0.00000   0.00000   0.00004   0.00004  -0.00032
    X7        6.27380  -0.02607   0.00000  -0.09206  -0.11366   6.16014
    Y7       -0.00001   0.00000   0.00000   0.00000   0.00000  -0.00001
    Z7        0.00024  -0.00001   0.00000  -0.00007  -0.00008   0.00016
         Item               Value     Threshold  Converged?
 Maximum Force            0.060797     0.000450     NO 
 RMS     Force            0.015434     0.000300     NO 
 Maximum Displacement     0.217013     0.001800     NO 
 RMS     Displacement     0.064278     0.001200     NO 
 Predicted change in Energy=-1.422634D-02
 GradGradGradGradGradGradGradGradGradGradGradGradGradGradGradGradGradGrad

 Leave Link  103 at Sun Oct 13 09:49:20 2024, MaxMem=  2684354560 cpu:               0.9 elap:               0.1
 (Enter /usr/local/g16_AVX//g16/l9999.exe)

 ----------------------------------------------------------------------

 Electric dipole moment (input orientation):
 (Debye = 10**-18 statcoulomb cm , SI units = C m)
                  (au)            (Debye)         (10**-30 SI)
   Tot        0.180954D+01      0.459938D+01      0.153419D+02
   x          0.180954D+01      0.459938D+01      0.153419D+02
   y          0.000000D+00      0.000000D+00      0.000000D+00
   z         -0.302995D-03     -0.770136D-03     -0.256890D-02

 Dipole polarizability, Alpha (input orientation).
 (esu units = cm**3 , SI units = C**2 m**2 J**-1)
 Alpha(0;0):
               (au)            (10**-24 esu)      (10**-40 SI)
   iso        0.557972D+02      0.826829D+01      0.919971D+01
   aniso      0.440287D+02      0.652437D+01      0.725934D+01
   xx         0.851496D+02      0.126179D+02      0.140393D+02
   yx        -0.574998D-04     -0.852059D-05     -0.948043D-05
   yy         0.411199D+02      0.609334D+01      0.677975D+01
   zx         0.155441D-02      0.230340D-03      0.256288D-03
   zy         0.000000D+00      0.000000D+00      0.000000D+00
   zz         0.411220D+02      0.609365D+01      0.678011D+01

 ----------------------------------------------------------------------

 Dipole orientation:
     6          0.00024743          0.00000539          1.01643461
    17          0.00054139          0.00001522         -4.28286581
     1          1.94986585          0.00454923          0.36605277
     1         -0.97881960          1.68604229          0.36630231
     1         -0.97094674         -1.69056567          0.36626180
     6         -0.00032302         -0.00001429          4.05083204
     7         -0.00129239         -0.00003452          6.27380179

 Electric dipole moment (dipole orientation):
 (Debye = 10**-18 statcoulomb cm , SI units = C m)
                  (au)            (Debye)         (10**-30 SI)
   Tot        0.180954D+01      0.459938D+01      0.153419D+02
   x          0.000000D+00      0.000000D+00      0.000000D+00
   y          0.000000D+00      0.000000D+00      0.000000D+00
   z          0.180954D+01      0.459938D+01      0.153419D+02

 Dipole polarizability, Alpha (dipole orientation).
 (esu units = cm**3 , SI units = C**2 m**2 J**-1)
 Alpha(0;0):
               (au)            (10**-24 esu)      (10**-40 SI)
   iso        0.557972D+02      0.826829D+01      0.919971D+01
   aniso      0.440287D+02      0.652437D+01      0.725934D+01
   xx         0.411220D+02      0.609366D+01      0.678011D+01
   yx         0.000000D+00      0.000000D+00      0.000000D+00
   yy         0.411199D+02      0.609334D+01      0.677975D+01
   zx        -0.892653D-02     -0.132278D-02     -0.147179D-02
   zy        -0.233423D-03     -0.345897D-04     -0.384863D-04
   zz         0.851496D+02      0.126179D+02      0.140393D+02

 ----------------------------------------------------------------------
 1\1\GINC-NODO10\Freq\RB3LYP\6-31++G(d,p)\C2H3Cl1N1(1-)\ALANQF\13-Oct-2
 024\0\\#p b3lyp 6-31++g(d,p) scf=verytight NoSymm freq=noraman int=ult
 rafine\\RxCoord=-3.89914 DE=12.17\\-1,1\C,0.537874,0.000005,-0.000221\
 Cl,-2.266395,-0.000001,0.000093\H,0.193534,0.002404,-1.031857\H,0.1939
 22,0.892218,0.517933\H,0.193907,-0.894606,0.513774\C,2.143608,0.000001
 ,-0.000188\N,3.319953,-0.000005,0.000128\\Version=ES64L-G16RevB.01\HF=
 -593.0461842\RMSD=3.598e-09\RMSF=1.543e-02\ZeroPoint=0.0453374\Thermal
 =0.0508133\Dipole=1.8764624,0.0000072,-0.0003091\DipoleDeriv=0.6672791
 ,0.,0.000022,-0.0000068,0.0756664,0.0000003,0.000111,0.0000003,0.07572
 94,-1.1672026,0.0000004,0.0000169,0.0000021,-0.9059907,0.,0.0000312,0.
 ,-0.9060145,0.0886625,-0.0000316,0.0138397,-0.0000061,0.0964407,0.0001
 697,0.0033673,0.00017,0.0235082,0.0884467,-0.011992,-0.0069905,-0.0028
 787,0.0418268,-0.0316852,-0.0017209,-0.0317037,0.0780036,0.0884604,0.0
 120239,-0.0069333,0.0028905,0.041533,0.0315155,-0.0017075,0.0315338,0.
 078298,-0.0434283,0.0000002,-0.0000647,-0.0000042,0.0276595,-0.0000004
 ,0.0000594,-0.0000004,0.0275995,-0.7222178,-0.0000009,0.0001099,0.0000
 032,-0.3771357,0.0000001,-0.0001407,0.0000001,-0.3771243\Polar=85.1496
 008,-0.0000575,41.1198791,0.0015544,-0.0000065,41.1220208\Quadrupole=-
 24.0549885,12.0271122,12.0278763,0.0000277,0.0001915,0.0000034\PG=C01 
 [X(C2H3Cl1N1)]\NImag=0\\0.23032237,0.00000194,0.59996724,0.00008932,0.
 00000141,0.60012709,-0.00953427,0.,0.00000241,0.03607786,0.00000016,-0
 .00053415,0.,-0.00000035,-0.00191114,0.00000144,0.,-0.00053462,-0.0000
 0272,-0.00000029,-0.00193270,-0.05709322,0.00020257,-0.08713052,-0.005
 06000,0.00000001,0.00003533,0.07523908,0.00019663,-0.04260945,0.000631
 03,0.00000325,-0.00107057,-0.00000473,-0.00021455,0.04379729,-0.084603
 60,0.00063103,-0.31388360,-0.00141395,-0.00000475,0.00108519,0.0922889
 3,-0.00066478,0.32932377,-0.05704209,0.07527151,0.04370459,-0.00506371
 ,-0.00003075,-0.00001785,0.00380920,-0.00843714,-0.00414784,0.07520545
 ,0.07308587,-0.24550824,-0.11782945,0.00122210,0.00054152,0.00094842,-
 0.00067171,0.00107444,0.00207533,-0.07973160,0.25737805,0.04243317,-0.
 11783396,-0.11103411,0.00071012,0.00094828,-0.00051711,0.00936523,-0.0
 2418857,-0.01183441,-0.04629698,0.12401005,0.11580334,-0.05704402,-0.0
 7547611,0.04335498,-0.00506389,0.00003098,-0.00001766,0.00380914,0.008
 45633,-0.00410860,0.00380297,0.00780214,-0.00522631,0.07520739,-0.0732
 8467,-0.24659822,0.11719691,-0.00122494,0.00054979,-0.00094338,0.00062
 799,0.00097094,-0.00201543,-0.00777798,-0.01819951,0.01307600,0.079947
 78,0.25852590,0.04209375,0.11720145,-0.10993960,0.00070462,-0.00094324
 ,-0.00052600,0.00936841,0.02424827,-0.01173161,-0.00526276,-0.01319514
 ,0.00742541,-0.04592659,-0.12334440,0.11465199,-0.05610401,-0.00000005
 ,-0.00001510,-0.00734309,-0.00000005,0.00000104,-0.02006592,0.00000155
 ,-0.00063728,-0.02007338,0.00055991,0.00033207,-0.02007337,-0.00056103
 ,0.00032928,1.26186215,0.00000013,-0.08256744,0.00000011,-0.00000011,0
 .00306751,-0.00000002,0.00006337,-0.00310695,-0.00002847,0.02356404,0.
 00604830,0.00531083,-0.02362681,0.00609804,-0.00528252,-0.00000589,0.1
 1238676,-0.00002696,0.00000008,-0.08258928,0.00000120,-0.00000002,0.00
 306845,-0.02722768,-0.00002828,0.00914464,0.01368059,0.00531431,-0.000
 01828,0.01357056,-0.00528616,-0.00006765,0.00028587,0.00000009,0.11238
 681,0.00649524,0.00000014,-0.00000568,-0.00401291,0.,0.00000042,-0.000
 63828,-0.00000607,0.00262236,-0.00063845,-0.00226671,-0.00131730,-0.00
 063823,0.00227285,-0.00130672,-1.13820238,0.00000526,-0.00028359,1.137
 63501,-0.00000006,0.01785025,0.,0.00000006,-0.00064296,0.,-0.00000767,
 0.00094430,0.00000708,-0.00285808,-0.00133456,-0.00132263,0.00286569,-
 0.00134693,0.00131557,0.00000556,-0.04192621,-0.00000001,-0.00000548,0
 .02645611,0.00001289,0.,0.01785413,-0.00000168,0.,-0.00064321,0.003300
 29,0.00000706,-0.00210397,-0.00165975,-0.00132351,0.00017517,-0.001646
 37,0.00131646,0.00018746,-0.00029588,-0.00000001,-0.04192469,0.0002905
 1,0.,0.02645511\\-0.06079665,0.00000065,-0.00003326,0.01627967,0.00000
 012,-0.00000652,-0.00013086,0.00000335,-0.00159144,-0.00011232,0.00135
 917,0.00081249,-0.00011342,-0.00136362,0.00080602,0.01880479,0.0000006
 0,0.00000043,0.02606880,-0.00000027,0.00001228\\\@


 I DO NOT KNOW WHAT I MAY APPEAR TO THE WORLD; BUT TO MYSELF
 I SEEM TO HAVE BEEN ONLY LIKE A BOY PLAYING ON THE SEASHORE,
 AND DIVERTING MYSELF IN NOW AND THEN FINDING A SMOOTHER PEBBLE
 OR A PRETTIER SHELL THAN ORDINARY, WHILST THE GREAT OCEAN OF
 TRUTH LAY ALL UNDISCOVERED BEFORE ME.
                                          -- NEWTON (1642-1726)
 Job cpu time:       0 days  0 hours  3 minutes 53.7 seconds.
 Elapsed time:       0 days  0 hours  0 minutes 10.0 seconds.
 File lengths (MBytes):  RWF=     88 Int=      0 D2E=      0 Chk=      2 Scr=      2
 Normal termination of Gaussian 16 at Sun Oct 13 09:49:20 2024.
