RxCoord=-3.79916 DE=13.55                                               
Freq      RB3LYP                                                      6-31++G(d,p)        
Number of atoms                            I                7
Info1-9                                    I   N=           9
          16          16           0           0           0         100
           6          18        -502
Full Title                                 C   N=           3
RxCoord=-3.79916 DE=13.55           
Route                                      C   N=           6
#p b3lyp 6-31++g(d,p) scf=verytight NoSymm freq=noraman int=
ultrafine   
Charge                                     I               -1
Multiplicity                               I                1
Number of electrons                        I               40
Number of alpha electrons                  I               20
Number of beta electrons                   I               20
Number of basis functions                  I               98
Number of independent functions            I               98
Number of point charges in /Mol/           I                0
Number of translation vectors              I                0
Atomic numbers                             I   N=           7
           6          17           1           1           1           6
           7
Nuclear charges                            R   N=           7
  6.00000000E+00  1.70000000E+01  1.00000000E+00  1.00000000E+00  1.00000000E+00
  6.00000000E+00  7.00000000E+00
Current cartesian coordinates              R   N=          21
  9.92079759E-01  9.44863062E-06 -4.34637009E-04 -4.28025235E+00 -1.88972612E-06
  1.85193160E-04  3.53798304E-01  4.54857078E-03 -1.95327383E+00  3.54463488E-01
  1.68892194E+00  9.80338891E-01  3.54435142E-01 -1.69344216E+00  9.72466292E-01
  4.05919408E+00  1.88972612E-06 -3.51489059E-04  6.28356424E+00 -9.44863062E-06
  2.47554122E-04
Number of symbols in /Mol/                 I                0
Force Field                                I                0
Atom Types                                 C   N=           7
                                                            
                        
Int Atom Types                             I   N=           7
           0           0           0           0           0           0
           0
MM charges                                 R   N=           7
  0.00000000E+00  0.00000000E+00  0.00000000E+00  0.00000000E+00  0.00000000E+00
  0.00000000E+00  0.00000000E+00
Integer atomic weights                     I   N=           7
          12          35           1           1           1          12
          14
Real atomic weights                        R   N=           7
  1.20000000E+01  3.49688527E+01  1.00782504E+00  1.00782504E+00  1.00782504E+00
  1.20000000E+01  1.40030740E+01
Atom fragment info                         I   N=           7
           0           0           0           0           0           0
           0
Atom residue num                           I   N=           7
           0           0           0           0           0           0
           0
Nuclear spins                              I   N=           7
           0           3           1           1           1           0
           2
Nuclear ZEff                               R   N=           7
 -3.60000000E+00 -1.42400000E+01 -1.00000000E+00 -1.00000000E+00 -1.00000000E+00
 -3.60000000E+00 -4.55000000E+00
Nuclear ZNuc                               R   N=           7
  6.00000000E+00  1.70000000E+01  1.00000000E+00  1.00000000E+00  1.00000000E+00
  6.00000000E+00  7.00000000E+00
Nuclear QMom                               R   N=           7
  0.00000000E+00 -8.16500000E+00  0.00000000E+00  0.00000000E+00  0.00000000E+00
  0.00000000E+00  2.04400000E+00
Nuclear GFac                               R   N=           7
  0.00000000E+00  8.21874000E-01  2.79284600E+00  2.79284600E+00  2.79284600E+00
  0.00000000E+00  4.03761000E-01
MicOpt                                     I   N=           7
          -1          -1          -1          -1          -1          -1
          -1
Number of residues                         I                0
Number of secondary structures             I                0
Number of contracted shells                I               33
Number of primitive shells                 I               72
Pure/Cartesian d shells                    I                1
Pure/Cartesian f shells                    I                0
Highest angular momentum                   I                2
Largest degree of contraction              I                6
Shell types                                I   N=          33
           0          -1          -1          -1           2           0
          -1          -1          -1          -1           2           0
           0           0           1           0           0           0
           1           0           0           0           1           0
          -1          -1          -1           2           0          -1
          -1          -1           2
Number of primitives per shell             I   N=          33
           6           3           1           1           1           6
           6           3           1           1           1           3
           1           1           1           3           1           1
           1           3           1           1           1           6
           3           1           1           1           6           3
           1           1           1
Shell to atom map                          I   N=          33
           1           1           1           1           1           2
           2           2           2           2           2           3
           3           3           3           4           4           4
           4           5           5           5           5           6
           6           6           6           6           7           7
           7           7           7
Primitive exponents                        R   N=          72
  3.04752488E+03  4.57369518E+02  1.03948685E+02  2.92101553E+01  9.28666296E+00
  3.16392696E+00  7.86827235E+00  1.88128854E+00  5.44249258E-01  1.68714478E-01
  4.38000000E-02  8.00000000E-01  2.51801000E+04  3.78035000E+03  8.60474000E+02
  2.42145000E+02  7.73349000E+01  2.62470000E+01  4.91765000E+02  1.16984000E+02
  3.74153000E+01  1.37834000E+01  5.45215000E+00  2.22588000E+00  3.18649000E+00
  1.14427000E+00  4.20377000E-01  1.42657000E-01  4.83000000E-02  7.50000000E-01
  1.87311370E+01  2.82539436E+00  6.40121692E-01  1.61277759E-01  3.60000000E-02
  1.10000000E+00  1.87311370E+01  2.82539436E+00  6.40121692E-01  1.61277759E-01
  3.60000000E-02  1.10000000E+00  1.87311370E+01  2.82539436E+00  6.40121692E-01
  1.61277759E-01  3.60000000E-02  1.10000000E+00  3.04752488E+03  4.57369518E+02
  1.03948685E+02  2.92101553E+01  9.28666296E+00  3.16392696E+00  7.86827235E+00
  1.88128854E+00  5.44249258E-01  1.68714478E-01  4.38000000E-02  8.00000000E-01
  4.17351146E+03  6.27457911E+02  1.42902093E+02  4.02343293E+01  1.28202129E+01
  4.39043701E+00  1.16263619E+01  2.71627981E+00  7.72218397E-01  2.12031498E-01
  6.39000000E-02  8.00000000E-01
Contraction coefficients                   R   N=          72
  1.83473713E-03  1.40373228E-02  6.88426223E-02  2.32184443E-01  4.67941348E-01
  3.62311985E-01 -1.19332420E-01 -1.60854152E-01  1.14345644E+00  1.00000000E+00
  1.00000000E+00  1.00000000E+00  1.83295985E-03  1.40341988E-02  6.90973943E-02
  2.37451980E-01  4.83033960E-01  3.39855972E-01 -2.29739142E-03 -3.07137189E-02
 -1.12528069E-01  4.50163278E-02  5.89353363E-01  4.65206287E-01 -2.51828028E-01
  6.15892514E-02  1.06018433E+00  1.00000000E+00  1.00000000E+00  1.00000000E+00
  3.34946043E-02  2.34726953E-01  8.13757326E-01  1.00000000E+00  1.00000000E+00
  1.00000000E+00  3.34946043E-02  2.34726953E-01  8.13757326E-01  1.00000000E+00
  1.00000000E+00  1.00000000E+00  3.34946043E-02  2.34726953E-01  8.13757326E-01
  1.00000000E+00  1.00000000E+00  1.00000000E+00  1.83473713E-03  1.40373228E-02
  6.88426223E-02  2.32184443E-01  4.67941348E-01  3.62311985E-01 -1.19332420E-01
 -1.60854152E-01  1.14345644E+00  1.00000000E+00  1.00000000E+00  1.00000000E+00
  1.83477216E-03  1.39946270E-02  6.85865518E-02  2.32240873E-01  4.69069948E-01
  3.60455199E-01 -1.14961182E-01 -1.69117479E-01  1.14585195E+00  1.00000000E+00
  1.00000000E+00  1.00000000E+00
P(S=P) Contraction coefficients            R   N=          72
  0.00000000E+00  0.00000000E+00  0.00000000E+00  0.00000000E+00  0.00000000E+00
  0.00000000E+00  6.89990666E-02  3.16423961E-01  7.44308291E-01  1.00000000E+00
  1.00000000E+00  0.00000000E+00  0.00000000E+00  0.00000000E+00  0.00000000E+00
  0.00000000E+00  0.00000000E+00  0.00000000E+00  3.98940088E-03  3.03177067E-02
  1.29880029E-01  3.27951072E-01  4.53527100E-01  2.52154056E-01 -1.42993147E-02
  3.23572333E-01  7.43507765E-01  1.00000000E+00  1.00000000E+00  0.00000000E+00
  0.00000000E+00  0.00000000E+00  0.00000000E+00  0.00000000E+00  0.00000000E+00
  0.00000000E+00  0.00000000E+00  0.00000000E+00  0.00000000E+00  0.00000000E+00
  0.00000000E+00  0.00000000E+00  0.00000000E+00  0.00000000E+00  0.00000000E+00
  0.00000000E+00  0.00000000E+00  0.00000000E+00  0.00000000E+00  0.00000000E+00
  0.00000000E+00  0.00000000E+00  0.00000000E+00  0.00000000E+00  6.89990666E-02
  3.16423961E-01  7.44308291E-01  1.00000000E+00  1.00000000E+00  0.00000000E+00
  0.00000000E+00  0.00000000E+00  0.00000000E+00  0.00000000E+00  0.00000000E+00
  0.00000000E+00  6.75797439E-02  3.23907296E-01  7.40895140E-01  1.00000000E+00
  1.00000000E+00  0.00000000E+00
Coordinates of each shell                  R   N=          99
  9.92079759E-01  9.44863062E-06 -4.34637009E-04  9.92079759E-01  9.44863062E-06
 -4.34637009E-04  9.92079759E-01  9.44863062E-06 -4.34637009E-04  9.92079759E-01
  9.44863062E-06 -4.34637009E-04  9.92079759E-01  9.44863062E-06 -4.34637009E-04
 -4.28025235E+00 -1.88972612E-06  1.85193160E-04 -4.28025235E+00 -1.88972612E-06
  1.85193160E-04 -4.28025235E+00 -1.88972612E-06  1.85193160E-04 -4.28025235E+00
 -1.88972612E-06  1.85193160E-04 -4.28025235E+00 -1.88972612E-06  1.85193160E-04
 -4.28025235E+00 -1.88972612E-06  1.85193160E-04  3.53798304E-01  4.54857078E-03
 -1.95327383E+00  3.53798304E-01  4.54857078E-03 -1.95327383E+00  3.53798304E-01
  4.54857078E-03 -1.95327383E+00  3.53798304E-01  4.54857078E-03 -1.95327383E+00
  3.54463488E-01  1.68892194E+00  9.80338891E-01  3.54463488E-01  1.68892194E+00
  9.80338891E-01  3.54463488E-01  1.68892194E+00  9.80338891E-01  3.54463488E-01
  1.68892194E+00  9.80338891E-01  3.54435142E-01 -1.69344216E+00  9.72466292E-01
  3.54435142E-01 -1.69344216E+00  9.72466292E-01  3.54435142E-01 -1.69344216E+00
  9.72466292E-01  3.54435142E-01 -1.69344216E+00  9.72466292E-01  4.05919408E+00
  1.88972612E-06 -3.51489059E-04  4.05919408E+00  1.88972612E-06 -3.51489059E-04
  4.05919408E+00  1.88972612E-06 -3.51489059E-04  4.05919408E+00  1.88972612E-06
 -3.51489059E-04  4.05919408E+00  1.88972612E-06 -3.51489059E-04  6.28356424E+00
 -9.44863062E-06  2.47554122E-04  6.28356424E+00 -9.44863062E-06  2.47554122E-04
  6.28356424E+00 -9.44863062E-06  2.47554122E-04  6.28356424E+00 -9.44863062E-06
  2.47554122E-04  6.28356424E+00 -9.44863062E-06  2.47554122E-04
Num ILSW                                   I              100
ILSW                                       I   N=         100
           0           1           0           0           2           0
           0           0           0           0         402          -1
           5           0           0           0           2           0
           0           0           0           0           1           0
           1           1           0           0           0           0
           0           0      100000           0          -1           0
           0           0           0           0           0           0
           0           0           0           1           0           0
           0 -2000000000           1           0           0           0
           0           0           4          52           0           0
           0           0           5           0           0           0
           0           0           0           7           0           1
           0           0           0           0           0           0
           0           0           0           0           0           0
           0           0           0           0           0           0
           0           0           0           0           0           0
           0           0           0           0
Num RLSW                                   I               52
RLSW                                       R   N=          52
  8.00000000E-01  7.20000000E-01  1.00000000E+00  8.10000000E-01  2.00000000E-01
  0.00000000E+00  0.00000000E+00  1.00000000E+00  0.00000000E+00  0.00000000E+00
  0.00000000E+00  0.00000000E+00  1.00000000E+00  0.00000000E+00  0.00000000E+00
  0.00000000E+00  0.00000000E+00  1.00000000E+00  0.00000000E+00  0.00000000E+00
  0.00000000E+00  0.00000000E+00  1.00000000E+00  0.00000000E+00  0.00000000E+00
  0.00000000E+00  0.00000000E+00  1.00000000E+00  0.00000000E+00  0.00000000E+00
  0.00000000E+00  0.00000000E+00  1.00000000E+00  0.00000000E+00  0.00000000E+00
  0.00000000E+00  0.00000000E+00  0.00000000E+00  1.00000000E+00  1.00000000E+00
  0.00000000E+00  1.00000000E+00  0.00000000E+00  0.00000000E+00  0.00000000E+00
  0.00000000E+00  0.00000000E+00  0.00000000E+00  0.00000000E+00  0.00000000E+00
  0.00000000E+00  0.00000000E+00
MxBond                                     I                4
NBond                                      I   N=           7
           4           0           1           1           1           2
           1
IBond                                      I   N=          28
           3           4           5           6           0           0
           0           0           1           0           0           0
           1           0           0           0           1           0
           0           0           1           7           0           0
           6           0           0           0
RBond                                      R   N=          28
  1.00000000E+00  1.00000000E+00  1.00000000E+00  1.00000000E+00  0.00000000E+00
  0.00000000E+00  0.00000000E+00  0.00000000E+00  1.00000000E+00  0.00000000E+00
  0.00000000E+00  0.00000000E+00  1.00000000E+00  0.00000000E+00  0.00000000E+00
  0.00000000E+00  1.00000000E+00  0.00000000E+00  0.00000000E+00  0.00000000E+00
  1.00000000E+00  3.00000000E+00  0.00000000E+00  0.00000000E+00  3.00000000E+00
  0.00000000E+00  0.00000000E+00  0.00000000E+00
Virial Ratio                               R      2.004958404451313E+00
SCF Energy                                 R     -5.930441787017517E+02
Total Energy                               R     -5.930441787017517E+02
RMS Force                                  R      1.617660373994051E-02
RMS Density                                R      3.888865589129171E-09
NImag                                      I                0
Job Status                                 I                1
Nuclear derivative order                   I                2
External E-field                           R   N=          35
  0.00000000E+00  0.00000000E+00  0.00000000E+00  0.00000000E+00  0.00000000E+00
  0.00000000E+00  0.00000000E+00  0.00000000E+00  0.00000000E+00  0.00000000E+00
  0.00000000E+00  0.00000000E+00  0.00000000E+00  0.00000000E+00  0.00000000E+00
  0.00000000E+00  0.00000000E+00  0.00000000E+00  0.00000000E+00  0.00000000E+00
  0.00000000E+00  0.00000000E+00  0.00000000E+00  0.00000000E+00  0.00000000E+00
  0.00000000E+00  0.00000000E+00  0.00000000E+00  0.00000000E+00  0.00000000E+00
  0.00000000E+00  0.00000000E+00  0.00000000E+00  0.00000000E+00  0.00000000E+00
IOpCl                                      I                0
IROHF                                      I                0
Alpha Orbital Energies                     R   N=          98
 -1.01258014E+02 -1.42214447E+01 -1.01178890E+01 -1.00950329E+01 -9.17235916E+00
 -6.93014591E+00 -6.93014578E+00 -6.92988923E+00 -7.78086205E-01 -6.04857134E-01
 -5.13623811E-01 -3.49521052E-01 -3.05081408E-01 -3.05053509E-01 -2.45449195E-01
 -2.09411263E-01 -2.09403266E-01 -5.89857246E-02 -5.89850396E-02 -5.68480072E-02
  1.06260700E-01  1.46186122E-01  1.46636055E-01  1.46646939E-01  1.49461503E-01
  1.49466263E-01  2.04518194E-01  2.09853103E-01  2.09853290E-01  2.13228162E-01
  2.39831362E-01  2.39855996E-01  2.53528480E-01  2.61057882E-01  2.61060905E-01
  2.72092963E-01  3.16869446E-01  3.40911617E-01  3.40914683E-01  3.48393553E-01
  3.48434708E-01  3.52812631E-01  3.92252599E-01  4.19098863E-01  4.84187712E-01
  7.11068557E-01  7.89267928E-01  7.89270709E-01  8.39885369E-01  8.39944019E-01
  8.59204162E-01  8.61016381E-01  8.61020604E-01  8.85940017E-01  9.78308267E-01
  1.01711813E+00  1.03657124E+00  1.03659264E+00  1.10474662E+00  1.12308566E+00
  1.12310871E+00  1.14829315E+00  1.14829996E+00  1.17021013E+00  1.17024072E+00
  1.23655574E+00  1.25808446E+00  1.35041376E+00  1.48808728E+00  1.48808969E+00
  1.52499385E+00  1.64856740E+00  1.64856765E+00  1.81391803E+00  1.81398934E+00
  1.87708352E+00  2.06811556E+00  2.06812144E+00  2.15409329E+00  2.17629112E+00
  2.23239367E+00  2.23253609E+00  2.42327936E+00  2.42336944E+00  2.78964802E+00
  2.78982276E+00  2.82052980E+00  2.97448788E+00  3.01852134E+00  3.01856355E+00
  3.22505682E+00  3.45611109E+00  3.55379149E+00  3.55387879E+00  4.22105591E+00
  4.39331959E+00  4.58553796E+00  4.73400953E+00
Alpha MO coefficients                      R   N=        9604
 -1.52896598E-06  2.15822510E-05  2.21409986E-05  2.47264072E-10 -2.52087201E-09
 -1.25708594E-04 -2.25228961E-04 -3.36085677E-10  4.02857231E-08  9.83440782E-04
  5.69829373E-04 -7.03318547E-11  7.51131180E-09 -3.70352637E-05 -6.07086423E-06
 -6.07476613E-06  1.52842593E-10 -2.23050546E-10  6.14490237E-11  9.95997675E-01
  1.51451381E-02  2.10265725E-06 -4.20148476E-11 -1.80219822E-10 -2.10629632E-02
 -3.42340384E-06  1.10350937E-10  5.79977702E-10  1.93286590E-03 -1.23412624E-05
 -3.04355095E-10  1.75523751E-09 -2.01187185E-04  2.85898125E-05  5.12975397E-10
 -1.58562902E-08  7.50423681E-03  7.51580703E-03  7.51580710E-03 -4.53495870E-11
  1.20029630E-09 -2.09167773E-12 -9.60315517E-06 -5.22635422E-05  8.05274564E-05
  2.35863475E-05  2.29660324E-08 -9.84023028E-06 -9.59753176E-06 -5.22965253E-05
  8.05262172E-05  2.35824140E-05  8.51187653E-06  4.93826027E-06 -9.59892563E-06
 -5.22956964E-05  8.05278384E-05  2.35826459E-05 -8.53454959E-06  4.89858728E-06
 -2.68770711E-06 -1.83078824E-05  5.09737152E-06 -5.96961060E-11  5.44619590E-10
 -1.19166225E-04 -3.95796452E-04  1.89082809E-09 -6.32961969E-08 -1.45422700E-03
  3.37394003E-04 -1.33408466E-09 -1.00197159E-08  4.56419869E-06 -2.85767026E-06
 -2.85829454E-06  8.78130167E-12 -4.05446409E-09  1.95993838E-11 -5.15606786E-06
 -2.38135949E-05  2.53011483E-06 -1.12869755E-11  3.89711570E-09  3.40900005E-04
 -1.39337881E-04  7.06251372E-10 -5.65712381E-08  2.67670351E-04 -8.71742012E-05
  5.72988502E-10 -1.26395558E-08 -3.06068693E-06 -1.05628567E-05 -1.05628659E-05
 -3.64361933E-11  4.47772237E-09 -9.49714619E-13 -4.73388782E-06 -2.18082397E-04
  1.05338901E-04 -4.01783724E-10 -5.97875295E-09  7.58006596E-04  5.31004409E-04
 -5.54810895E-10 -2.95177092E-08  8.54092628E-03  3.05446217E-03 -3.60783818E-09
 -7.89426736E-08  2.84517581E-04  3.35259257E-06  3.37009459E-06 -3.52982051E-10
 -1.51628587E-08 -3.40715326E-11 -4.99256269E-08 -4.03575424E-06  3.01214551E-06
  1.56754712E-11 -1.26401297E-09 -5.67664694E-06 -2.19176022E-05 -9.30636303E-11
  7.70463256E-09  6.62982652E-06  9.94419189E-05  3.10422962E-10 -2.79987237E-08
  6.80068314E-04  1.79805743E-04  8.29780161E-10 -1.10912237E-08  8.26906873E-06
 -1.41298221E-05 -1.41293917E-05  5.73629796E-11 -4.24925571E-09 -1.38254364E-11
  3.50784362E-06 -9.14637180E-05 -1.24012277E-04 -9.28121682E-06 -1.48898297E-08
  6.38432441E-06  3.51420192E-06 -9.14344591E-05 -1.24220725E-04 -9.27322790E-06
 -5.53461366E-06 -3.21035847E-06  3.51465471E-06 -9.14343535E-05 -1.24223011E-04
 -9.27290531E-06  5.54906498E-06 -3.18438437E-06  8.49248206E-05  3.32569756E-04
 -4.84386633E-04  2.34046893E-09 -1.20419857E-07  2.25961675E-04  1.02940809E-03
 -2.84826383E-09  6.96441653E-08 -6.81646395E-03  4.13498300E-03 -1.60837200E-08
  4.94954924E-07 -1.10367695E-03  1.21574501E-05  1.21570635E-05  6.02971020E-09
 -2.99562885E-07  2.86114378E-11  9.92764946E-01  3.45420942E-02 -1.91613238E-03
  1.06938259E-08 -5.49726157E-07  3.69747544E-03  8.34342523E-04 -5.46333283E-09
  2.89510762E-07 -3.22133014E-03 -4.87990059E-04  2.20521196E-09 -1.44918796E-08
 -7.45523617E-03 -8.32582862E-03 -8.32583074E-03 -5.07666198E-09  2.69140960E-07
  6.08242116E-12  2.48700228E-03  9.38166980E-05 -1.49908348E-04 -6.11582361E-11
 -5.14958287E-08  4.74668846E-03  2.09479475E-03 -1.13115348E-08  3.65124342E-07
  6.44951811E-02  3.21737519E-02 -3.27827090E-08 -6.02782361E-07 -6.62972845E-04
 -1.37141274E-04 -1.37050730E-04  1.72489774E-09 -2.45897011E-08 -9.41244489E-10
 -1.88219691E-07 -7.84540718E-06  2.67049559E-05  1.17370877E-10 -7.61780132E-09
 -1.22712366E-05 -1.70069995E-04 -6.59329499E-10  4.61679393E-08 -2.31496371E-04
  7.34861843E-04  1.72791456E-09 -1.54111488E-07  9.07407865E-03  2.98271041E-03
  1.95555017E-08 -7.37264008E-07  3.86124332E-05 -4.20989397E-05 -4.20970572E-05
  5.00753054E-10 -3.17327981E-08 -9.77501879E-11 -1.17813864E-04 -6.35781251E-04
  6.58988228E-04 -8.20541419E-06  1.04220609E-08 -4.41012360E-06 -1.17811524E-04
 -6.36060141E-04  6.59412765E-04 -7.98714492E-06  3.84544298E-06  2.20747271E-06
 -1.17812371E-04 -6.36067853E-04  6.59415155E-04 -7.99314726E-06 -3.85638145E-06
  2.19016026E-06  9.92857587E-01  4.97753911E-02  4.88828990E-04 -2.69167682E-09
  3.21695533E-07 -1.05418277E-02  5.28837751E-03 -1.39416117E-08  2.48617486E-07
 -7.98167249E-02  2.31402829E-02 -8.56756651E-08  6.46146612E-07 -8.28828176E-03
 -9.67088542E-03 -9.67088813E-03 -7.93563629E-09  3.82457729E-07  1.53914924E-10
 -4.01688250E-04  3.86690433E-04  2.19328276E-04 -6.60685356E-10  5.19400708E-08
 -6.16349201E-03  2.44311775E-03 -1.82809569E-08  9.59683155E-07  9.73640254E-03
 -6.62919791E-03  3.66065922E-08 -8.47723583E-07  6.96736738E-05  3.18802683E-04
  3.18803008E-04  2.60681704E-09 -1.67199546E-07 -1.20430659E-11  9.93109780E-01
  5.00837593E-02  6.27234359E-04  1.64588099E-09  1.98919470E-07 -2.21860928E-02
 -4.04048183E-03  1.36762582E-08 -1.22834578E-06  3.34019102E-02  1.93630085E-02
  9.84240698E-09 -1.18679584E-06 -9.17404111E-03 -8.63295521E-03 -8.63284217E-03
  2.27554487E-09  1.10336025E-07  3.04150035E-09  1.30549392E-06  2.07956120E-05
 -1.39467481E-06  3.43055485E-10  3.59632617E-09  6.37039784E-05 -1.03024976E-05
 -2.17672578E-09 -2.08496892E-08 -4.54764906E-04  1.45900898E-04  6.98570925E-09
  6.87590317E-08  6.19424878E-03  2.06167916E-03  1.18121661E-08 -5.08826477E-07
  5.08993972E-05  3.11995876E-05  3.11916766E-05  1.74989824E-09  4.52022523E-09
  4.38334952E-10 -4.86658947E-05  3.16365476E-03  2.98739646E-04  2.50907857E-05
  3.26778854E-07 -1.40032324E-04 -4.84894843E-05  3.16482917E-03  3.00051607E-04
  2.50494756E-05  1.21067124E-04  7.03414284E-05 -4.84899270E-05  3.16483861E-03
  3.00085597E-04  2.50548976E-05 -1.21390724E-04  6.97774622E-05 -2.68290636E-03
 -1.37372644E-04  3.78239099E-05  1.77012501E-09  1.89639707E-08  4.74585757E-04
 -9.10599433E-03  2.05399229E-08 -1.03990683E-06 -4.35113673E-02  1.16729742E-02
 -6.74610077E-08  4.00857287E-07 -7.13194675E-04 -3.94592167E-05 -3.94345702E-05
  3.92461333E-09 -1.29358492E-07 -7.45017902E-10 -4.01988882E-05 -1.64823497E-04
 -2.33505757E-04  5.29504508E-10 -2.48727467E-08  6.14110397E-03 -2.25123480E-03
  1.99862641E-08 -1.21127694E-06  5.03786219E-03 -2.42420362E-03  2.61616352E-08
 -2.13243060E-07  1.54154092E-04 -1.06110932E-04 -1.06108746E-04 -3.76523788E-09
  2.20933760E-07  4.49837760E-11  4.47842845E-05  1.77336830E-04  2.84379752E-04
 -1.10846218E-09 -7.73891090E-08 -3.33987896E-03 -3.89803402E-03  1.21675004E-08
  5.72851568E-07  9.40679787E-03  1.01895788E-02 -7.96025151E-09 -7.67905756E-07
  2.34306625E-05  8.53389653E-05  8.53289694E-05  7.65431189E-11 -4.34206152E-08
 -2.21960896E-10 -2.84631930E-01  1.02269680E+00  8.19527552E-05 -2.62733918E-09
 -3.67201476E-08  7.53467780E-02  5.06551942E-04  2.12383184E-10 -6.72388200E-08
 -2.21861079E-02 -1.64719636E-03 -6.67086735E-10  1.84755906E-07  1.59645513E-02
  5.40597298E-03  9.17994366E-10 -5.91005683E-07 -1.56411736E-02 -1.55325763E-02
 -1.55325628E-02 -5.80072347E-10  1.90845006E-08 -3.57475469E-12 -6.79189991E-05
 -3.08054471E-04 -2.51628947E-03  5.40574746E-05  1.47362853E-08 -6.73294289E-06
 -6.79061241E-05 -3.08491500E-04 -2.51676406E-03  5.40936543E-05  5.85424642E-06
  3.37220933E-06 -6.79099183E-05 -3.08467545E-04 -2.51687866E-03  5.40851806E-05
 -5.86852584E-06  3.34310684E-06 -3.75050146E-05 -2.21689070E-04 -1.40414131E-05
 -2.09749697E-10 -6.86544658E-09 -5.86724032E-04 -5.18313863E-03  1.97969493E-08
 -7.28259805E-07 -8.96840181E-03  2.26847462E-03 -3.79217697E-08  1.43967321E-06
  4.88636988E-05 -3.52816860E-05 -3.52879080E-05  1.86355567E-10 -2.75121069E-08
  1.84266064E-10 -1.07073730E-04 -4.22597355E-04  7.53940224E-06 -1.03585090E-10
  2.97186038E-08  5.29182652E-03 -1.60317230E-03  9.44306750E-09 -6.65457256E-07
 -1.99054939E-03  7.37050224E-04  8.87665203E-09 -3.22232303E-07 -1.59597052E-04
 -2.19389137E-04 -2.19389251E-04 -7.27373767E-10  5.89278131E-08 -4.24699822E-11
 -2.36486207E-08 -1.26462682E-07  2.18718564E-08  2.86514064E-07 -2.49379073E-05
  8.03199137E-07 -1.89824703E-07  6.58152552E-06 -5.71532933E-04  3.10451496E-06
 -1.16366746E-07 -4.45744512E-06  3.87437126E-04  2.37729771E-08 -3.48095858E-05
  3.47224570E-05 -5.59716256E-08  4.83136658E-06  1.82413175E-07 -8.73541415E-10
  1.62527740E-08  2.00397955E-04 -1.14055627E-02  9.90737370E-01  1.17386934E-07
  6.04697382E-06 -3.42083113E-04  2.97148225E-02 -2.36791628E-07 -2.45619915E-06
  1.33207822E-04 -1.15708465E-02 -1.50964763E-07  9.27017822E-07 -5.91410506E-05
  5.13689800E-03  4.78224686E-09  1.65425323E-06 -1.69093310E-06 -4.87127785E-07
  4.23442351E-05 -8.15571331E-09  1.52206269E-04 -1.27600277E-03  4.73420579E-03
  1.07576117E-04 -3.09532873E-10 -1.29512003E-04 -7.49226029E-05  6.27378557E-04
 -2.33028998E-03 -5.29403907E-05 -6.94399413E-05 -7.30393927E-06 -7.73436815E-05
  6.47686591E-04 -2.40565179E-03 -5.46540270E-05  7.11110475E-05 -8.26677583E-06
  1.17382832E-08  5.16787371E-08 -2.93815296E-08 -6.22906021E-07  5.41183562E-05
 -5.94382791E-08  4.39597694E-07  1.78515262E-06 -1.55162295E-04  1.42974306E-07
  1.25569833E-06 -1.30913629E-05  1.13717943E-03  1.58465651E-08 -5.52738128E-06
  5.56640982E-06  2.02895342E-07 -1.76243688E-05  2.93068111E-08 -6.84629261E-09
 -1.21770147E-08  1.20875953E-09  1.80981101E-07 -1.57381413E-05 -7.18820484E-08
  9.69786560E-08 -1.20979075E-06  1.05176093E-04 -1.31794985E-06 -1.11560623E-07
  4.47501465E-06 -3.88848507E-04 -1.42061981E-08  3.49290543E-06 -3.54176072E-06
  1.72973224E-07 -1.50275096E-05 -1.83727634E-08 -1.71498540E-09 -7.09637113E-09
  1.77565660E-09 -2.50293837E-05 -2.88720368E-07  6.69893438E-08 -1.99356378E-08
 -5.70634958E-04 -6.56731114E-06  4.07349299E-07  1.29523117E-07  3.86505124E-04
  4.45233368E-06 -3.33808187E-09 -1.59228587E-07  1.55050389E-07  4.74599475E-06
  5.42844919E-08 -4.01013954E-05 -1.35741455E-09  4.21314015E-09 -6.09598981E-06
  9.90737410E-01  1.14055644E-02 -3.50771204E-09 -1.86089422E-07  2.97147305E-02
  3.42081579E-04  9.15056790E-09  7.57558194E-08 -1.15706376E-02 -1.33201490E-04
 -9.32514212E-09 -3.10237544E-08  5.13655979E-03  5.91290105E-05 -1.25725047E-09
  6.98117411E-09 -8.40379536E-09  4.23417354E-05  4.87793834E-07  1.90068087E-06
  1.39978618E-06 -1.17528100E-05  4.34545085E-05  9.90290095E-07  3.27759565E-05
 -1.11536526E-06 -1.32646773E-04  1.11013025E-03 -4.12080058E-03 -9.36518964E-05
 -8.93706172E-05 -7.05128782E-05  1.31245881E-04 -1.09851288E-03  4.07731726E-03
  9.26712065E-05 -8.84111122E-05  6.99594842E-05  5.30364381E-10  2.06801493E-09
  1.57252374E-10  5.41317934E-05  6.23290974E-07 -2.48002200E-08 -1.68978492E-09
 -1.55391939E-04 -1.79001407E-06 -3.28104670E-07  1.15381501E-07  1.13689668E-03
  1.30882532E-05  5.56828380E-10 -2.39672241E-08  2.59999526E-08 -1.75904800E-05
 -2.02504489E-07 -6.42053558E-06 -5.21777362E-10 -1.80823597E-09  1.98495166E-11
 -1.57378592E-05 -1.81376846E-07  1.56829242E-08 -4.08281769E-09  1.05202058E-04
  1.21212413E-06 -4.34948858E-09 -1.20338132E-08 -3.88487254E-04 -4.47382732E-06
 -9.83361024E-10  1.47648828E-08 -1.71948336E-08 -1.50447556E-05 -1.73224622E-07
  4.05975598E-06 -3.25039236E-05 -2.52831676E-04  6.14441840E-05 -2.42218586E-09
  1.76485880E-08 -1.57268239E-03 -3.02313265E-03  1.06947996E-08 -2.69088962E-07
 -1.10078169E-01 -5.83493260E-02  4.77316920E-08  1.57730641E-06  1.59237201E-04
 -9.78598805E-05 -9.78112782E-05 -9.04955653E-10 -8.41622818E-08 -1.06528062E-09
  6.92588996E-05 -9.49599991E-05  9.90672755E-01  8.40300622E-06 -2.00302892E-04
  4.44762256E-04  3.04344905E-02  2.53365909E-07 -6.11208201E-06 -1.50868550E-03
 -1.38726021E-02 -1.02359642E-07  2.64483596E-06 -1.48502359E-02 -3.40185506E-04
  6.19158359E-09  3.98468335E-07  1.43874751E-04  3.07068948E-04  3.07080656E-04
 -1.06474031E-09  4.22232864E-08  9.86640212E-11 -1.35587524E-04  6.31896148E-04
 -2.95105324E-03 -4.22294835E-05 -2.21112963E-07  9.44933212E-05 -1.35542970E-04
  6.32144048E-04 -2.95151785E-03 -4.21589959E-05 -8.17205996E-05 -4.74246886E-05
 -1.35533398E-04  6.32142833E-04 -2.95147201E-03 -4.21726180E-05  8.19401243E-05
 -4.70454828E-05 -1.31204827E-04 -5.44012237E-04  8.14016084E-07  3.96009270E-10