 Entering Gaussian System, Link 0=g16
 Initial command:
 /usr/local/g16_AVX//g16/l1.exe "/scratch/alanqf/0063-54505.ixchel.mda.cinvestav.mx/Gau-36060.inp" -scrdir="/scratch/alanqf/0063-54505.ixchel.mda.cinvestav.mx/"
 Entering Link 1 = /usr/local/g16_AVX//g16/l1.exe PID=     36061.
  
 Copyright (c) 1988-2017, Gaussian, Inc.  All Rights Reserved.
  
 This is part of the Gaussian(R) 16 program.  It is based on
 the Gaussian(R) 09 system (copyright 2009, Gaussian, Inc.),
 the Gaussian(R) 03 system (copyright 2003, Gaussian, Inc.),
 the Gaussian(R) 98 system (copyright 1998, Gaussian, Inc.),
 the Gaussian(R) 94 system (copyright 1995, Gaussian, Inc.),
 the Gaussian 92(TM) system (copyright 1992, Gaussian, Inc.),
 the Gaussian 90(TM) system (copyright 1990, Gaussian, Inc.),
 the Gaussian 88(TM) system (copyright 1988, Gaussian, Inc.),
 the Gaussian 86(TM) system (copyright 1986, Carnegie Mellon
 University), and the Gaussian 82(TM) system (copyright 1983,
 Carnegie Mellon University). Gaussian is a federally registered
 trademark of Gaussian, Inc.
  
 This software contains proprietary and confidential information,
 including trade secrets, belonging to Gaussian, Inc.
  
 This software is provided under written license and may be
 used, copied, transmitted, or stored only in accord with that
 written license.
  
 The following legend is applicable only to US Government
 contracts under FAR:
  
                    RESTRICTED RIGHTS LEGEND
  
 Use, reproduction and disclosure by the US Government is
 subject to restrictions as set forth in subparagraphs (a)
 and (c) of the Commercial Computer Software - Restricted
 Rights clause in FAR 52.227-19.
  
 Gaussian, Inc.
 340 Quinnipiac St., Bldg. 40, Wallingford CT 06492
  
  
 ---------------------------------------------------------------
 Warning -- This program may not be used in any manner that
 competes with the business of Gaussian, Inc. or will provide
 assistance to any competitor of Gaussian, Inc.  The licensee
 of this program is prohibited from giving any competitor of
 Gaussian, Inc. access to this program.  By using this program,
 the user acknowledges that Gaussian, Inc. is engaged in the
 business of creating and licensing software in the field of
 computational chemistry and represents and warrants to the
 licensee that it is not a competitor of Gaussian, Inc. and that
 it will not use this program in any manner prohibited above.
 ---------------------------------------------------------------
  

 Cite this work as:
 Gaussian 16, Revision B.01,
 M. J. Frisch, G. W. Trucks, H. B. Schlegel, G. E. Scuseria, 
 M. A. Robb, J. R. Cheeseman, G. Scalmani, V. Barone, 
 G. A. Petersson, H. Nakatsuji, X. Li, M. Caricato, A. V. Marenich, 
 J. Bloino, B. G. Janesko, R. Gomperts, B. Mennucci, H. P. Hratchian, 
 J. V. Ortiz, A. F. Izmaylov, J. L. Sonnenberg, D. Williams-Young, 
 F. Ding, F. Lipparini, F. Egidi, J. Goings, B. Peng, A. Petrone, 
 T. Henderson, D. Ranasinghe, V. G. Zakrzewski, J. Gao, N. Rega, 
 G. Zheng, W. Liang, M. Hada, M. Ehara, K. Toyota, R. Fukuda, 
 J. Hasegawa, M. Ishida, T. Nakajima, Y. Honda, O. Kitao, H. Nakai, 
 T. Vreven, K. Throssell, J. A. Montgomery, Jr., J. E. Peralta, 
 F. Ogliaro, M. J. Bearpark, J. J. Heyd, E. N. Brothers, K. N. Kudin, 
 V. N. Staroverov, T. A. Keith, R. Kobayashi, J. Normand, 
 K. Raghavachari, A. P. Rendell, J. C. Burant, S. S. Iyengar, 
 J. Tomasi, M. Cossi, J. M. Millam, M. Klene, C. Adamo, R. Cammi, 
 J. W. Ochterski, R. L. Martin, K. Morokuma, O. Farkas, 
 J. B. Foresman, and D. J. Fox, Gaussian, Inc., Wallingford CT, 2016.
 
 ******************************************
 Gaussian 16:  ES64L-G16RevB.01 20-Dec-2017
                13-Oct-2024 
 ******************************************
 %NProcShared=26
 Will use up to   26 processors via shared memory.
 %MEM=20GB
 %chk=CHKfiles/0063.chk
 ---------------------------------------------------------------------
 #p b3lyp 6-31++g(d,p) scf=verytight NoSymm freq=noraman int=ultrafine
 ---------------------------------------------------------------------
 1/10=4,30=1,38=1/1,3;
 2/12=2,15=1,17=6,18=5,40=1/2;
 3/5=1,6=6,7=1111,11=2,25=1,30=1,71=2,74=-5,75=-5,140=1/1,2,3;
 4//1;
 5/5=2,17=3,38=5,98=1/2;
 8/6=4,10=90,11=11/1;
 11/6=1,8=1,9=11,15=111,16=1,31=1/1,2,10;
 10/6=1,31=1/2;
 6/7=2,8=2,9=2,10=2,28=1/1;
 7/8=1,10=1,25=1,30=1/1,2,3,16;
 1/10=4,30=1/3;
 99//99;
 Leave Link    1 at Sun Oct 13 09:49:10 2024, MaxMem=  2684354560 cpu:               2.0 elap:               0.1
 (Enter /usr/local/g16_AVX//g16/l101.exe)
 -------------------------
 RxCoord=-3.79916 DE=13.55
 -------------------------
 Symbolic Z-matrix:
 Charge = -1 Multiplicity = 1
 C                     0.52499   0.00001  -0.00023 
 Cl                   -2.26501  0.         0.0001 
 H                     0.18722   0.00241  -1.03363 
 H                     0.18757   0.89374   0.51877 
 H                     0.18756  -0.89613   0.51461 
 C                     2.14803   0.       -0.00019 
 N                     3.32512  -0.00001   0.00013 
 
 ITRead=  0  0  0  0  0  0  0
 MicOpt= -1 -1 -1 -1 -1 -1 -1
 NAtoms=      7 NQM=        7 NQMF=       0 NMMI=      0 NMMIF=      0
                NMic=       0 NMicF=      0.
                    Isotopes and Nuclear Properties:
 (Nuclear quadrupole moments (NQMom) in fm**2, nuclear magnetic moments (NMagM)
  in nuclear magnetons)

  Atom         1           2           3           4           5           6           7
 IAtWgt=          12          35           1           1           1          12          14
 AtmWgt=  12.0000000  34.9688527   1.0078250   1.0078250   1.0078250  12.0000000  14.0030740
 NucSpn=           0           3           1           1           1           0           2
 AtZEff=  -0.0000000  -0.0000000  -0.0000000  -0.0000000  -0.0000000  -0.0000000  -0.0000000
 NQMom=    0.0000000  -8.1650000   0.0000000   0.0000000   0.0000000   0.0000000   2.0440000
 NMagM=    0.0000000   0.8218740   2.7928460   2.7928460   2.7928460   0.0000000   0.4037610
 AtZNuc=   6.0000000  17.0000000   1.0000000   1.0000000   1.0000000   6.0000000   7.0000000
 Leave Link  101 at Sun Oct 13 09:49:10 2024, MaxMem=  2684354560 cpu:               1.8 elap:               0.1
 (Enter /usr/local/g16_AVX//g16/l103.exe)

 GradGradGradGradGradGradGradGradGradGradGradGradGradGradGradGradGradGrad
 Berny optimization.
 Initialization pass.
 Trust Radius=3.00D-01 FncErr=1.00D-07 GrdErr=1.00D-07 EigMax=2.50D+02 EigMin=1.00D-04
 Number of steps in this run=      2 maximum allowed number of steps=      2.
 GradGradGradGradGradGradGradGradGradGradGradGradGradGradGradGradGradGrad

 Leave Link  103 at Sun Oct 13 09:49:10 2024, MaxMem=  2684354560 cpu:               1.2 elap:               0.1
 (Enter /usr/local/g16_AVX//g16/l202.exe)
                          Input orientation:                          
 ---------------------------------------------------------------------
 Center     Atomic      Atomic             Coordinates (Angstroms)
 Number     Number       Type             X           Y           Z
 ---------------------------------------------------------------------
      1          6           0        0.524986    0.000005   -0.000230
      2         17           0       -2.265012   -0.000001    0.000098
      3          1           0        0.187222    0.002407   -1.033628
      4          1           0        0.187574    0.893739    0.518773
      5          1           0        0.187559   -0.896131    0.514607
      6          6           0        2.148033    0.000001   -0.000186
      7          7           0        3.325119   -0.000005    0.000131
 ---------------------------------------------------------------------
                    Distance matrix (angstroms):
                    1          2          3          4          5
     1  C    0.000000
     2  Cl   2.789998   0.000000
     3  H    1.087199   2.661212   0.000000
     4  H    1.087185   2.661386   1.790090   0.000000
     5  H    1.087186   2.661367   1.790084   1.789875   0.000000
     6  C    1.623047   4.413045   2.216481   2.216187   2.216196
     7  N    2.800133   5.590131   3.303795   3.303325   3.303333
                    6          7
     6  C    0.000000
     7  N    1.177086   0.000000
 Symmetry turned off by external request.
 Stoichiometry    C2H3ClN(1-)
 Framework group  C1[X(C2H3ClN)]
 Deg. of freedom    15
 Full point group                 C1      NOp   1
 Rotational constants (GHZ):         156.5012654           1.2806717           1.2806700
 Leave Link  202 at Sun Oct 13 09:49:11 2024, MaxMem=  2684354560 cpu:               1.7 elap:               0.1
 (Enter /usr/local/g16_AVX//g16/l301.exe)
 Standard basis: 6-31++G(d,p) (6D, 7F)
 Ernie: Thresh=  0.10000D-02 Tol=  0.10000D-05 Strict=F.
    98 basis functions,   176 primitive gaussians,    98 cartesian basis functions
    20 alpha electrons       20 beta electrons
       nuclear repulsion energy       108.8493864392 Hartrees.
 IExCor=  402 DFT=T Ex+Corr=B3LYP ExCW=0 ScaHFX=  0.200000
 ScaDFX=  0.800000  0.720000  1.000000  0.810000 ScalE2=  1.000000  1.000000
 IRadAn=      5 IRanWt=     -1 IRanGd=            0 ICorTp=0 IEmpDi=  4
 NAtoms=    7 NActive=    7 NUniq=    7 SFac= 1.00D+00 NAtFMM=   60 NAOKFM=F Big=F
 Integral buffers will be    131072 words long.
 Raffenetti 2 integral format.
 Two-electron integral symmetry is turned off.
 Leave Link  301 at Sun Oct 13 09:49:11 2024, MaxMem=  2684354560 cpu:               1.7 elap:               0.1
 (Enter /usr/local/g16_AVX//g16/l302.exe)
 NPDir=0 NMtPBC=     1 NCelOv=     1 NCel=       1 NClECP=     1 NCelD=      1
         NCelK=      1 NCelE2=     1 NClLst=     1 CellRange=     0.0.
 One-electron integrals computed using PRISM.
 NBasis=    98 RedAO= T EigKep=  2.06D-05  NBF=    98
 NBsUse=    98 1.00D-06 EigRej= -1.00D+00 NBFU=    98
 Precomputing XC quadrature grid using
 IXCGrd= 4 IRadAn=           5 IRanWt=          -1 IRanGd=           0 AccXCQ= 0.00D+00.
 Generated NRdTot=       0 NPtTot=           0 NUsed=           0 NTot=          32
 NSgBfM=    98    98    98    98    98 MxSgAt=     7 MxSgA2=     7.
 Leave Link  302 at Sun Oct 13 09:49:11 2024, MaxMem=  2684354560 cpu:               9.0 elap:               0.4
 (Enter /usr/local/g16_AVX//g16/l303.exe)
 DipDrv:  MaxL=1.
 Leave Link  303 at Sun Oct 13 09:49:11 2024, MaxMem=  2684354560 cpu:               2.2 elap:               0.1
 (Enter /usr/local/g16_AVX//g16/l401.exe)
 ExpMin= 3.60D-02 ExpMax= 2.52D+04 ExpMxC= 3.78D+03 IAcc=3 IRadAn=         5 AccDes= 0.00D+00
 Harris functional with IExCor=  402 and IRadAn=       5 diagonalized for initial guess.
 HarFok:  IExCor=  402 AccDes= 0.00D+00 IRadAn=         5 IDoV= 1 UseB2=F ITyADJ=14
 ICtDFT=  3500011 ScaDFX=  1.000000  1.000000  1.000000  1.000000
 FoFCou: FMM=F IPFlag=           0 FMFlag=      100000 FMFlg1=           0
         NFxFlg=           0 DoJE=T BraDBF=F KetDBF=T FulRan=T
         wScrn=  0.000000 ICntrl=       500 IOpCl=  0 I1Cent=   200000004 NGrid=           0
         NMat0=    1 NMatS0=      1 NMatT0=    0 NMatD0=    1 NMtDS0=    0 NMtDT0=    0
 Symmetry not used in FoFCou.
 Harris En= -593.091179648632    
 JPrj=0 DoOrth=F DoCkMO=F.
 Leave Link  401 at Sun Oct 13 09:49:12 2024, MaxMem=  2684354560 cpu:               7.0 elap:               0.3
 (Enter /usr/local/g16_AVX//g16/l502.exe)
 Keep R1 ints in memory in canonical form, NReq=35752935.
 FoFCou: FMM=F IPFlag=           0 FMFlag=           0 FMFlg1=           0
         NFxFlg=           0 DoJE=F BraDBF=F KetDBF=F FulRan=T
         wScrn=  0.000000 ICntrl=       600 IOpCl=  0 I1Cent=           0 NGrid=           0
         NMat0=    1 NMatS0=   4851 NMatT0=    0 NMatD0=    1 NMtDS0=    0 NMtDT0=    0
 Symmetry not used in FoFCou.
 Two-electron integral symmetry not used.
 Closed shell SCF:
 Using DIIS extrapolation, IDIIS=  1040.
 NGot=  2684354560 LenX=  2672563405 LenY=  2672553360
 Requested convergence on RMS density matrix=1.00D-08 within 128 cycles.
 Requested convergence on MAX density matrix=1.00D-06.
 Requested convergence on             energy=1.00D-06.
 No special actions if energy rises.

 Cycle   1  Pass 1  IDiag  1:
 E= -592.936572308923    
 DIIS: error= 3.04D-02 at cycle   1 NSaved=   1.
 NSaved= 1 IEnMin= 1 EnMin= -592.936572308923     IErMin= 1 ErrMin= 3.04D-02
 ErrMax= 3.04D-02  0.00D+00 EMaxC= 1.00D-01 BMatC= 1.03D-01 BMatP= 1.03D-01
 IDIUse=3 WtCom= 6.96D-01 WtEn= 3.04D-01
 Coeff-Com:  0.100D+01
 Coeff-En:   0.100D+01
 Coeff:      0.100D+01
 Gap=     0.165 Goal=   None    Shift=    0.000
 GapD=    0.165 DampG=1.000 DampE=0.500 DampFc=0.5000 IDamp=-1.
 Damping current iteration by 5.00D-01
 RMSDP=1.05D-02 MaxDP=1.81D-01              OVMax= 1.76D-01

 Cycle   2  Pass 1  IDiag  1:
 E= -592.967606546237     Delta-E=       -0.031034237314 Rises=F Damp=T
 DIIS: error= 1.89D-02 at cycle   2 NSaved=   2.
 NSaved= 2 IEnMin= 2 EnMin= -592.967606546237     IErMin= 2 ErrMin= 1.89D-02
 ErrMax= 1.89D-02  0.00D+00 EMaxC= 1.00D-01 BMatC= 2.07D-02 BMatP= 1.03D-01
 IDIUse=3 WtCom= 8.11D-01 WtEn= 1.89D-01
 Coeff-Com:  0.225D+00 0.775D+00
 Coeff-En:   0.326D+00 0.674D+00
 Coeff:      0.244D+00 0.756D+00
 Gap=     0.149 Goal=   None    Shift=    0.000
 RMSDP=4.45D-03 MaxDP=1.19D-01 DE=-3.10D-02 OVMax= 1.65D-01

 Cycle   3  Pass 1  IDiag  1:
 E= -593.023716884902     Delta-E=       -0.056110338665 Rises=F Damp=F
 DIIS: error= 1.51D-02 at cycle   3 NSaved=   3.
 NSaved= 3 IEnMin= 3 EnMin= -593.023716884902     IErMin= 3 ErrMin= 1.51D-02
 ErrMax= 1.51D-02  0.00D+00 EMaxC= 1.00D-01 BMatC= 2.14D-02 BMatP= 2.07D-02
 IDIUse=3 WtCom= 8.49D-01 WtEn= 1.51D-01
 Coeff-Com:  0.516D-01 0.493D+00 0.455D+00
 Coeff-En:   0.000D+00 0.000D+00 0.100D+01
 Coeff:      0.438D-01 0.419D+00 0.537D+00
 Gap=     0.170 Goal=   None    Shift=    0.000
 RMSDP=3.39D-03 MaxDP=9.84D-02 DE=-5.61D-02 OVMax= 7.66D-02

 Cycle   4  Pass 1  IDiag  1:
 E= -593.036858410210     Delta-E=       -0.013141525309 Rises=F Damp=F
 DIIS: error= 9.77D-03 at cycle   4 NSaved=   4.
 NSaved= 4 IEnMin= 4 EnMin= -593.036858410210     IErMin= 4 ErrMin= 9.77D-03
 ErrMax= 9.77D-03  0.00D+00 EMaxC= 1.00D-01 BMatC= 8.03D-03 BMatP= 2.07D-02
 IDIUse=3 WtCom= 9.02D-01 WtEn= 9.77D-02
 Coeff-Com:  0.220D-01 0.602D-01 0.368D+00 0.550D+00
 Coeff-En:   0.000D+00 0.000D+00 0.317D+00 0.683D+00
 Coeff:      0.198D-01 0.543D-01 0.363D+00 0.563D+00
 Gap=     0.160 Goal=   None    Shift=    0.000
 RMSDP=1.17D-03 MaxDP=3.17D-02 DE=-1.31D-02 OVMax= 2.93D-02

 Cycle   5  Pass 1  IDiag  1:
 E= -593.044060634226     Delta-E=       -0.007202224016 Rises=F Damp=F
 DIIS: error= 8.77D-04 at cycle   5 NSaved=   5.
 NSaved= 5 IEnMin= 5 EnMin= -593.044060634226     IErMin= 5 ErrMin= 8.77D-04
 ErrMax= 8.77D-04  0.00D+00 EMaxC= 1.00D-01 BMatC= 1.05D-04 BMatP= 8.03D-03
 IDIUse=3 WtCom= 9.91D-01 WtEn= 8.77D-03
 Coeff-Com:  0.596D-02-0.162D-02 0.143D+00 0.267D+00 0.586D+00
 Coeff-En:   0.000D+00 0.000D+00 0.000D+00 0.000D+00 0.100D+01
 Coeff:      0.591D-02-0.161D-02 0.141D+00 0.264D+00 0.590D+00
 Gap=     0.164 Goal=   None    Shift=    0.000
 RMSDP=2.18D-04 MaxDP=3.54D-03 DE=-7.20D-03 OVMax= 3.71D-03

 Cycle   6  Pass 1  IDiag  1:
 E= -593.044175213235     Delta-E=       -0.000114579009 Rises=F Damp=F
 DIIS: error= 1.43D-04 at cycle   6 NSaved=   6.
 NSaved= 6 IEnMin= 6 EnMin= -593.044175213235     IErMin= 6 ErrMin= 1.43D-04
 ErrMax= 1.43D-04  0.00D+00 EMaxC= 1.00D-01 BMatC= 2.93D-06 BMatP= 1.05D-04
 IDIUse=3 WtCom= 9.99D-01 WtEn= 1.43D-03
 Coeff-Com:  0.138D-02-0.275D-02 0.326D-01 0.637D-01 0.224D+00 0.682D+00
 Coeff-En:   0.000D+00 0.000D+00 0.000D+00 0.000D+00 0.000D+00 0.100D+01
 Coeff:      0.138D-02-0.275D-02 0.325D-01 0.636D-01 0.223D+00 0.682D+00
 Gap=     0.163 Goal=   None    Shift=    0.000
 RMSDP=8.16D-05 MaxDP=2.87D-03 DE=-1.15D-04 OVMax= 6.36D-04

 Cycle   7  Pass 1  IDiag  1:
 E= -593.044178592565     Delta-E=       -0.000003379330 Rises=F Damp=F
 DIIS: error= 2.76D-05 at cycle   7 NSaved=   7.
 NSaved= 7 IEnMin= 7 EnMin= -593.044178592565     IErMin= 7 ErrMin= 2.76D-05
 ErrMax= 2.76D-05  0.00D+00 EMaxC= 1.00D-01 BMatC= 1.01D-07 BMatP= 2.93D-06
 IDIUse=1 WtCom= 1.00D+00 WtEn= 0.00D+00
 Coeff-Com:  0.237D-03-0.904D-03 0.586D-02 0.116D-01 0.594D-01 0.245D+00
 Coeff-Com:  0.679D+00
 Coeff:      0.237D-03-0.904D-03 0.586D-02 0.116D-01 0.594D-01 0.245D+00
 Coeff:      0.679D+00
 Gap=     0.163 Goal=   None    Shift=    0.000
 RMSDP=8.41D-06 MaxDP=2.17D-04 DE=-3.38D-06 OVMax= 1.14D-04

 Cycle   8  Pass 1  IDiag  1:
 E= -593.044178683720     Delta-E=       -0.000000091154 Rises=F Damp=F
 DIIS: error= 1.04D-05 at cycle   8 NSaved=   8.
 NSaved= 8 IEnMin= 8 EnMin= -593.044178683720     IErMin= 8 ErrMin= 1.04D-05
 ErrMax= 1.04D-05  0.00D+00 EMaxC= 1.00D-01 BMatC= 1.57D-08 BMatP= 1.01D-07
 IDIUse=1 WtCom= 1.00D+00 WtEn= 0.00D+00
 Coeff-Com: -0.126D-04-0.107D-03-0.805D-03-0.153D-02 0.313D-02 0.358D-01
 Coeff-Com:  0.319D+00 0.645D+00
 Coeff:     -0.126D-04-0.107D-03-0.805D-03-0.153D-02 0.313D-02 0.358D-01
 Coeff:      0.319D+00 0.645D+00
 Gap=     0.163 Goal=   None    Shift=    0.000
 RMSDP=2.10D-06 MaxDP=4.56D-05 DE=-9.12D-08 OVMax= 3.70D-05

 Cycle   9  Pass 1  IDiag  1:
 E= -593.044178701700     Delta-E=       -0.000000017980 Rises=F Damp=F
 DIIS: error= 4.65D-07 at cycle   9 NSaved=   9.
 NSaved= 9 IEnMin= 9 EnMin= -593.044178701700     IErMin= 9 ErrMin= 4.65D-07
 ErrMax= 4.65D-07  0.00D+00 EMaxC= 1.00D-01 BMatC= 3.18D-11 BMatP= 1.57D-08
 IDIUse=1 WtCom= 1.00D+00 WtEn= 0.00D+00
 Coeff-Com:  0.275D-05-0.430D-05-0.128D-03-0.204D-03-0.759D-03-0.228D-02
 Coeff-Com:  0.305D-02 0.382D-01 0.962D+00
 Coeff:      0.275D-05-0.430D-05-0.128D-03-0.204D-03-0.759D-03-0.228D-02
 Coeff:      0.305D-02 0.382D-01 0.962D+00
 Gap=     0.163 Goal=   None    Shift=    0.000
 RMSDP=6.72D-07 MaxDP=2.29D-05 DE=-1.80D-08 OVMax= 3.40D-06

 Cycle  10  Pass 1  IDiag  1:
 E= -593.044178701749     Delta-E=       -0.000000000050 Rises=F Damp=F
 DIIS: error= 1.23D-07 at cycle  10 NSaved=  10.
 NSaved=10 IEnMin=10 EnMin= -593.044178701749     IErMin=10 ErrMin= 1.23D-07
 ErrMax= 1.23D-07  0.00D+00 EMaxC= 1.00D-01 BMatC= 8.17D-13 BMatP= 3.18D-11
 IDIUse=1 WtCom= 1.00D+00 WtEn= 0.00D+00
 Coeff-Com:  0.111D-06 0.113D-05-0.145D-04-0.260D-04-0.208D-03-0.110D-02
 Coeff-Com: -0.466D-02-0.301D-02 0.139D+00 0.870D+00
 Coeff:      0.111D-06 0.113D-05-0.145D-04-0.260D-04-0.208D-03-0.110D-02
 Coeff:     -0.466D-02-0.301D-02 0.139D+00 0.870D+00
 Gap=     0.163 Goal=   None    Shift=    0.000
 RMSDP=1.38D-07 MaxDP=4.67D-06 DE=-4.98D-11 OVMax= 3.84D-07

 Cycle  11  Pass 1  IDiag  1:
 E= -593.044178701754     Delta-E=       -0.000000000005 Rises=F Damp=F
 DIIS: error= 4.23D-08 at cycle  11 NSaved=  11.
 NSaved=11 IEnMin=11 EnMin= -593.044178701754     IErMin=11 ErrMin= 4.23D-08
 ErrMax= 4.23D-08  0.00D+00 EMaxC= 1.00D-01 BMatC= 4.25D-14 BMatP= 8.17D-13
 IDIUse=1 WtCom= 1.00D+00 WtEn= 0.00D+00
 Coeff-Com: -0.199D-06 0.463D-06 0.727D-06 0.236D-07-0.224D-04-0.187D-03
 Coeff-Com: -0.118D-02-0.202D-02-0.489D-03 0.230D+00 0.774D+00
 Coeff:     -0.199D-06 0.463D-06 0.727D-06 0.236D-07-0.224D-04-0.187D-03
 Coeff:     -0.118D-02-0.202D-02-0.489D-03 0.230D+00 0.774D+00
 Gap=     0.163 Goal=   None    Shift=    0.000
 RMSDP=2.05D-08 MaxDP=6.58D-07 DE=-4.77D-12 OVMax= 1.01D-07

 Cycle  12  Pass 1  IDiag  1:
 E= -593.044178701752     Delta-E=        0.000000000003 Rises=F Damp=F
 DIIS: error= 5.53D-09 at cycle  12 NSaved=  12.
 NSaved=12 IEnMin=11 EnMin= -593.044178701754     IErMin=12 ErrMin= 5.53D-09
 ErrMax= 5.53D-09  0.00D+00 EMaxC= 1.00D-01 BMatC= 1.76D-15 BMatP= 4.25D-14
 IDIUse=1 WtCom= 1.00D+00 WtEn= 0.00D+00
 Coeff-Com: -0.638D-07 0.823D-07 0.566D-06 0.886D-06 0.417D-05 0.130D-04
 Coeff-Com:  0.219D-04-0.226D-03-0.502D-02 0.101D-01 0.158D+00 0.837D+00
 Coeff:     -0.638D-07 0.823D-07 0.566D-06 0.886D-06 0.417D-05 0.130D-04
 Coeff:      0.219D-04-0.226D-03-0.502D-02 0.101D-01 0.158D+00 0.837D+00
 Gap=     0.163 Goal=   None    Shift=    0.000
 RMSDP=3.89D-09 MaxDP=1.18D-07 DE= 2.50D-12 OVMax= 1.76D-08

 SCF Done:  E(RB3LYP) =  -593.044178702     A.U. after   12 cycles
            NFock= 12  Conv=0.39D-08     -V/T= 2.0050
 KE= 5.901181343178D+02 PE=-1.628020376707D+03 EE= 3.360086772487D+02
 Leave Link  502 at Sun Oct 13 09:49:13 2024, MaxMem=  2684354560 cpu:              32.9 elap:               1.5
 (Enter /usr/local/g16_AVX//g16/l801.exe)
 DoSCS=F DFT=T ScalE2(SS,OS)=  1.000000  1.000000
 Range of M.O.s used for correlation:     1    98
 NBasis=    98 NAE=    20 NBE=    20 NFC=     0 NFV=     0
 NROrb=     98 NOA=    20 NOB=    20 NVA=    78 NVB=    78

 **** Warning!!: The largest alpha MO coefficient is  0.10494871D+03

 Leave Link  801 at Sun Oct 13 09:49:13 2024, MaxMem=  2684354560 cpu:               0.5 elap:               0.0
 (Enter /usr/local/g16_AVX//g16/l1101.exe)
 Using compressed storage, NAtomX=     7.
 Will process      8 centers per pass.
 Leave Link 1101 at Sun Oct 13 09:49:13 2024, MaxMem=  2684354560 cpu:               3.0 elap:               0.2
 (Enter /usr/local/g16_AVX//g16/l1102.exe)
 Symmetrizing basis deriv contribution to polar:
 IMax=3 JMax=2 DiffMx= 0.00D+00
 Leave Link 1102 at Sun Oct 13 09:49:14 2024, MaxMem=  2684354560 cpu:               0.6 elap:               0.1
 (Enter /usr/local/g16_AVX//g16/l1110.exe)
 Forming Gx(P) for the SCF density, NAtomX=     7.
 Integral derivatives from FoFJK, PRISM(SPDF).
 Do as many integral derivatives as possible in FoFJK.
 G2DrvN: MDV=    2684353864.
 G2DrvN: will do     8 centers at a time, making    1 passes.
 Calling FoFCou, ICntrl=  3107 FMM=F I1Cent=   0 AccDes= 0.00D+00.
 FoFJK:  IHMeth= 1 ICntrl=    3107 DoSepK=F KAlg= 0 I1Cent=           0 FoldK=F
 IRaf=         0 NMat=       1 IRICut=       1 DoRegI=T DoRafI=F ISym2E= 0 IDoP0=0 IntGTp=1.
 FoFCou: FMM=F IPFlag=           0 FMFlag=      100000 FMFlg1=           0
         NFxFlg=           0 DoJE=F BraDBF=F KetDBF=F FulRan=T
         wScrn=  0.000000 ICntrl=      3107 IOpCl=  0 I1Cent=           0 NGrid=           0
         NMat0=    1 NMatS0=      1 NMatT0=    0 NMatD0=    1 NMtDS0=    0 NMtDT0=    0
 Symmetry not used in FoFCou.
 End of G2Drv F.D. properties file   721 does not exist.
 End of G2Drv F.D. properties file   722 does not exist.
 End of G2Drv F.D. properties file   788 does not exist.
 Leave Link 1110 at Sun Oct 13 09:49:15 2024, MaxMem=  2684354560 cpu:              38.3 elap:               1.5
 (Enter /usr/local/g16_AVX//g16/l1002.exe)
 Minotr:  Closed shell wavefunction.
          IDoAtm=1111111
          Direct CPHF calculation.
          Differentiating once with respect to electric field.
                with respect to dipole field.
          Differentiating once with respect to nuclear coordinates.
          Requested convergence is 1.0D-08 RMS, and 1.0D-07 maximum.
          Secondary convergence is 1.0D-12 RMS, and 1.0D-12 maximum.
          NewPWx=T KeepS1=F KeepF1=F KeepIn=T MapXYZ=F SortEE=F KeepMc=T.
         2122 words used for storage of precomputed grid.
 Keep R1 ints in memory in canonical form, NReq=35668383.
 FoFCou: FMM=F IPFlag=           0 FMFlag=           0 FMFlg1=           0
         NFxFlg=           0 DoJE=F BraDBF=F KetDBF=F FulRan=T
         wScrn=  0.000000 ICntrl=       600 IOpCl=  0 I1Cent=           0 NGrid=           0
         NMat0=    1 NMatS0=   4851 NMatT0=    0 NMatD0=    1 NMtDS0=    0 NMtDT0=    0
 Symmetry not used in FoFCou.
 Two-electron integral symmetry not used.
          MDV=    2684354560 using IRadAn=       1.
          Solving linear equations simultaneously, MaxMat=       0.
          There are    24 degrees of freedom in the 1st order CPHF.  IDoFFX=6 NUNeed=     3.
     21 vectors produced by pass  0 Test12= 6.50D-15 4.17D-09 XBig12= 7.58D+01 3.68D+00.
 AX will form    21 AO Fock derivatives at one time.
     21 vectors produced by pass  1 Test12= 6.50D-15 4.17D-09 XBig12= 5.32D+01 3.20D+00.
     21 vectors produced by pass  2 Test12= 6.50D-15 4.17D-09 XBig12= 2.07D+00 3.93D-01.
     21 vectors produced by pass  3 Test12= 6.50D-15 4.17D-09 XBig12= 1.87D-02 3.08D-02.
     21 vectors produced by pass  4 Test12= 6.50D-15 4.17D-09 XBig12= 3.52D-05 1.28D-03.
     20 vectors produced by pass  5 Test12= 6.50D-15 4.17D-09 XBig12= 5.68D-08 5.09D-05.
      6 vectors produced by pass  6 Test12= 6.50D-15 4.17D-09 XBig12= 1.18D-10 2.07D-06.
      1 vectors produced by pass  7 Test12= 6.50D-15 4.17D-09 XBig12= 1.88D-13 1.35D-07.
      1 vectors produced by pass  8 Test12= 6.50D-15 4.17D-09 XBig12= 3.53D-16 5.16D-09.
 InvSVY:  IOpt=1 It=  1 EMax= 3.55D-15
 Solved reduced A of dimension   133 with    24 vectors.
 FullF1:  Do perturbations      1 to       3.
 Isotropic polarizability for W=    0.000000       56.07 Bohr**3.
 End of Minotr F.D. properties file   721 does not exist.
 End of Minotr F.D. properties file   722 does not exist.
 End of Minotr F.D. properties file   788 does not exist.
 Leave Link 1002 at Sun Oct 13 09:49:17 2024, MaxMem=  2684354560 cpu:              52.8 elap:               2.1
 (Enter /usr/local/g16_AVX//g16/l601.exe)
 Copying SCF densities to generalized density rwf, IOpCl= 0 IROHF=0.

 **********************************************************************

            Population analysis using the SCF Density.

 **********************************************************************

 Alpha  occ. eigenvalues -- -101.25801 -14.22144 -10.11789 -10.09503  -9.17236
 Alpha  occ. eigenvalues --   -6.93015  -6.93015  -6.92989  -0.77809  -0.60486
 Alpha  occ. eigenvalues --   -0.51362  -0.34952  -0.30508  -0.30505  -0.24545
 Alpha  occ. eigenvalues --   -0.20941  -0.20940  -0.05899  -0.05899  -0.05685
 Alpha virt. eigenvalues --    0.10626   0.14619   0.14664   0.14665   0.14946
 Alpha virt. eigenvalues --    0.14947   0.20452   0.20985   0.20985   0.21323
 Alpha virt. eigenvalues --    0.23983   0.23986   0.25353   0.26106   0.26106
 Alpha virt. eigenvalues --    0.27209   0.31687   0.34091   0.34091   0.34839
 Alpha virt. eigenvalues --    0.34843   0.35281   0.39225   0.41910   0.48419
 Alpha virt. eigenvalues --    0.71107   0.78927   0.78927   0.83989   0.83994
 Alpha virt. eigenvalues --    0.85920   0.86102   0.86102   0.88594   0.97831
 Alpha virt. eigenvalues --    1.01712   1.03657   1.03659   1.10475   1.12309
 Alpha virt. eigenvalues --    1.12311   1.14829   1.14830   1.17021   1.17024
 Alpha virt. eigenvalues --    1.23656   1.25808   1.35041   1.48809   1.48809
 Alpha virt. eigenvalues --    1.52499   1.64857   1.64857   1.81392   1.81399
 Alpha virt. eigenvalues --    1.87708   2.06812   2.06812   2.15409   2.17629
 Alpha virt. eigenvalues --    2.23239   2.23254   2.42328   2.42337   2.78965
 Alpha virt. eigenvalues --    2.78982   2.82053   2.97449   3.01852   3.01856
 Alpha virt. eigenvalues --    3.22506   3.45611   3.55379   3.55388   4.22106
 Alpha virt. eigenvalues --    4.39332   4.58554   4.73401
          Condensed to atoms (all electrons):
               1          2          3          4          5          6
     1  C    5.767763  -0.152860   0.428277   0.428126   0.428125  -0.817746
     2  Cl  -0.152860  17.976652  -0.020572  -0.020598  -0.020598   0.111340
     3  H    0.428277  -0.020572   0.482594  -0.022127  -0.022128  -0.059563
     4  H    0.428126  -0.020598  -0.022127   0.482647  -0.022158  -0.059385
     5  H    0.428125  -0.020598  -0.022128  -0.022158   0.482643  -0.059382
     6  C   -0.817746   0.111340  -0.059563  -0.059385  -0.059382   6.555981
     7  N   -0.100847   0.002540  -0.005194  -0.005214  -0.005214   0.575077
               7
     1  C   -0.100847
     2  Cl   0.002540
     3  H   -0.005194
     4  H   -0.005214
     5  H   -0.005214
     6  C    0.575077
     7  N    7.091920
 Mulliken charges:
               1
     1  C    0.019162
     2  Cl  -0.875905
     3  H    0.218712
     4  H    0.218710
     5  H    0.218712
     6  C   -0.246322
     7  N   -0.553069
 Sum of Mulliken charges =  -1.00000
 Mulliken charges with hydrogens summed into heavy atoms:
               1
     1  C    0.675296
     2  Cl  -0.875905
     6  C   -0.246322
     7  N   -0.553069
 APT charges:
               1
     1  C    0.311865
     2  Cl  -0.995889
     3  H    0.066502
     4  H    0.066406
     5  H    0.066411
     6  C   -0.023942
     7  N   -0.491354
 Sum of APT charges =  -1.00000
 APT charges with hydrogens summed into heavy atoms:
               1
     1  C    0.511185
     2  Cl  -0.995889
     6  C   -0.023942
     7  N   -0.491354
 Electronic spatial extent (au):  <R**2>=            819.7133
 Charge=             -1.0000 electrons
 Dipole moment (field-independent basis, Debye):
    X=              4.5194    Y=              0.0000    Z=             -0.0008  Tot=              4.5194
 Quadrupole moment (field-independent basis, Debye-Ang):
   XX=            -84.0899   YY=            -35.4935   ZZ=            -35.4926
   XY=              0.0000   XZ=              0.0003   YZ=              0.0000
 Traceless Quadrupole moment (field-independent basis, Debye-Ang):
   XX=            -32.3979   YY=             16.1985   ZZ=             16.1994
   XY=              0.0000   XZ=              0.0003   YZ=              0.0000
 Octapole moment (field-independent basis, Debye-Ang**2):
  XXX=            -23.1572  YYY=             -0.0061  ZZZ=             -0.8819  XYY=              2.7414
  XXY=              0.0002  XXZ=             -0.0064  XZZ=              2.7411  YZZ=              0.0062
  YYZ=              0.8813  XYZ=              0.0000
 Hexadecapole moment (field-independent basis, Debye-Ang**3):
 XXXX=          -1611.9243 YYYY=            -57.5963 ZZZZ=            -57.5961 XXXY=              0.0005
 XXXZ=              0.0014 YYYX=             -0.0005 YYYZ=              0.0000 ZZZX=             -0.0674
 ZZZY=             -0.0000 XXYY=           -207.2379 XXZZ=           -207.2378 YYZZ=            -19.1988
 XXYZ=             -0.0000 YYXZ=              0.0831 ZZXY=              0.0006
 N-N= 1.088493864392D+02 E-N=-1.628020376544D+03  KE= 5.901181343178D+02
  Exact polarizability:  86.032  -0.000  41.095   0.002  -0.000  41.097
 Approx polarizability: 105.289  -0.000  50.471   0.006   0.000  50.473
 No NMR shielding tensors so no spin-rotation constants.
 Leave Link  601 at Sun Oct 13 09:49:17 2024, MaxMem=  2684354560 cpu:               3.2 elap:               0.2
 (Enter /usr/local/g16_AVX//g16/l701.exe)
 ... and contract with generalized density number  0.
 Compute integral second derivatives.
 Leave Link  701 at Sun Oct 13 09:49:18 2024, MaxMem=  2684354560 cpu:               3.7 elap:               0.2
 (Enter /usr/local/g16_AVX//g16/l702.exe)
 L702 exits ... SP integral derivatives will be done elsewhere.
 Leave Link  702 at Sun Oct 13 09:49:18 2024, MaxMem=  2684354560 cpu:               1.4 elap:               0.1
 (Enter /usr/local/g16_AVX//g16/l703.exe)
 Integral derivatives from FoFJK, PRISM(SPDF).
 Compute integral second derivatives, UseDBF=F ICtDFT=           0.
 Calling FoFJK, ICntrl=    100127 FMM=F ISym2X=0 I1Cent= 0 IOpClX= 0 NMat=1 NMatS=1 NMatT=0.
 FoFJK:  IHMeth= 1 ICntrl=  100127 DoSepK=F KAlg= 0 I1Cent=           0 FoldK=F
 IRaf=         0 NMat=       1 IRICut=       1 DoRegI=T DoRafI=F ISym2E= 0 IDoP0=0 IntGTp=1.
 FoFCou: FMM=F IPFlag=           0 FMFlag=      100000 FMFlg1=         800
         NFxFlg=           0 DoJE=F BraDBF=F KetDBF=F FulRan=T
         wScrn=  0.000000 ICntrl=    100127 IOpCl=  0 I1Cent=           0 NGrid=           0
         NMat0=    1 NMatS0=      1 NMatT0=    0 NMatD0=    1 NMtDS0=    0 NMtDT0=    0
 Symmetry not used in FoFCou.
 Leave Link  703 at Sun Oct 13 09:49:20 2024, MaxMem=  2684354560 cpu:              64.5 elap:               2.5
 (Enter /usr/local/g16_AVX//g16/l716.exe)
 Dipole        = 1.77806587D+00 7.04267970D-06-3.25951761D-04
 Polarizability= 8.60320912D+01-5.41777327D-05 4.10954608D+01
                 1.63199462D-03-4.08105010D-06 4.10974462D+01
 Full mass-weighted force constant matrix:
 Low frequencies ---  -53.6178  -53.3601    0.0027    0.0034    0.0043  149.0474
 Low frequencies ---  170.6593  170.7379  222.0913
 Diagonal vibrational polarizability:
       21.4396280      24.5159275      24.5648947
 Harmonic frequencies (cm**-1), IR intensities (KM/Mole), Raman scattering
 activities (A**4/AMU), depolarization ratios for plane and unpolarized
 incident light, reduced masses (AMU), force constants (mDyne/A),
 and normal coordinates:
                      1                      2                      3
                      A                      A                      A
 Frequencies --    155.0845               155.2300               222.0913
 Red. masses --      4.3188                 4.3205                14.0894
 Frc consts  --      0.0612                 0.0613                 0.4095
 IR Inten    --     21.8122                21.8092                19.0336
  Atom  AN      X      Y      Z        X      Y      Z        X      Y      Z
     1   6     0.00   0.01   0.41     0.00   0.41  -0.01    -0.34   0.00   0.00
     2  17    -0.00  -0.00  -0.10    -0.00  -0.10   0.00     0.46  -0.00  -0.00
     3   1    -0.20   0.01   0.48     0.00   0.47  -0.01    -0.31   0.00  -0.00
     4   1     0.10   0.01   0.47     0.17   0.48  -0.00    -0.31   0.00   0.00
     5   1     0.10   0.00   0.47    -0.17   0.48  -0.01    -0.31  -0.00   0.00
     6   6     0.00   0.00   0.09     0.00   0.09  -0.00    -0.43   0.00  -0.00
     7   7     0.00  -0.00  -0.28     0.00  -0.28   0.00    -0.44  -0.00  -0.00
                      4                      5                      6
                      A                      A                      A
 Frequencies --    444.8879               444.9484               489.0839
 Red. masses --      3.4616                 3.4620                 8.4063
 Frc consts  --      0.4037                 0.4038                 1.1847
 IR Inten    --      0.1625                 0.1622                96.7831
  Atom  AN      X      Y      Z        X      Y      Z        X      Y      Z
     1   6    -0.00  -0.00  -0.11    -0.00  -0.11   0.00     0.68  -0.00  -0.00
     2  17     0.00   0.00   0.01    -0.00   0.01  -0.00    -0.03   0.00   0.00
     3   1     0.57  -0.01  -0.31    -0.01  -0.31   0.01     0.33  -0.00   0.09
     4   1    -0.30  -0.01  -0.31    -0.49  -0.31   0.00     0.33  -0.08  -0.05
     5   1    -0.28  -0.00  -0.31     0.50  -0.31   0.01     0.33   0.08  -0.05
     6   6    -0.00   0.01   0.40     0.00   0.40  -0.01    -0.29   0.00   0.00
     7   7     0.00  -0.00  -0.20     0.00  -0.20   0.00    -0.33  -0.00  -0.00
                      7                      8                      9
                      A                      A                      A
 Frequencies --   1018.5251              1018.6374              1273.7081
 Red. masses --      1.3882                 1.3881                 1.0954
 Frc consts  --      0.8485                 0.8486                 1.0470
 IR Inten    --      0.4844                 0.4876                 7.2277
  Atom  AN      X      Y      Z        X      Y      Z        X      Y      Z
     1   6    -0.00  -0.00   0.14     0.00   0.14   0.00    -0.08   0.00  -0.00
     2  17    -0.00   0.00  -0.00    -0.00  -0.00  -0.00    -0.00   0.00   0.00
     3   1     0.75   0.00  -0.10    -0.00  -0.27  -0.00     0.54   0.00  -0.19
     4   1    -0.37   0.07  -0.23    -0.65  -0.15   0.07     0.54   0.16   0.09
     5   1    -0.37  -0.07  -0.23     0.65  -0.15  -0.07     0.54  -0.16   0.09
     6   6     0.00   0.00  -0.12    -0.00  -0.12  -0.00    -0.01   0.00   0.00
     7   7    -0.00  -0.00   0.02     0.00   0.02   0.00    -0.03   0.00  -0.00
                     10                     11                     12
                      A                      A                      A
 Frequencies --   1439.5314              1439.5880              2185.9421
 Red. masses --      1.0507                 1.0508                12.3873
 Frc consts  --      1.2829                 1.2830                34.8743
 IR Inten    --      9.4872                 9.4764                 8.1543
  Atom  AN      X      Y      Z        X      Y      Z        X      Y      Z
     1   6    -0.00  -0.06   0.00     0.00  -0.00  -0.06    -0.02   0.00  -0.00
     2  17    -0.00  -0.00   0.00     0.00  -0.00  -0.00    -0.00  -0.00   0.00
     3   1    -0.01   0.74   0.01     0.32   0.02  -0.14    -0.09  -0.00   0.05
     4   1    -0.27   0.09  -0.39    -0.17  -0.38   0.50    -0.09  -0.05  -0.03
     5   1     0.28   0.07   0.37    -0.15   0.38   0.53    -0.09   0.05  -0.03
     6   6    -0.00  -0.02   0.00     0.00  -0.00  -0.02     0.76  -0.00   0.00
     7   7    -0.00   0.00  -0.00     0.00   0.00   0.00    -0.62   0.00  -0.00
                     13                     14                     15
                      A                      A                      A
 Frequencies --   3115.9572              3230.4202              3230.4810
 Red. masses --      1.0251                 1.1098                 1.1098
 Frc consts  --      5.8643                 6.8234                 6.8238
 IR Inten    --      0.2685                 0.4611                 0.4636
  Atom  AN      X      Y      Z        X      Y      Z        X      Y      Z
     1   6    -0.04  -0.00  -0.00     0.00  -0.10   0.01    -0.00  -0.01  -0.10
     2  17    -0.00  -0.00  -0.00     0.00   0.00  -0.00     0.00   0.00   0.00
     3   1     0.17  -0.00   0.55    -0.02  -0.02  -0.05     0.25  -0.00   0.77
     4   1     0.17  -0.48  -0.28    -0.21   0.55   0.33    -0.14   0.38   0.20
     5   1     0.17   0.48  -0.28     0.22   0.60  -0.35    -0.11  -0.31   0.15
     6   6    -0.00   0.00   0.00    -0.00   0.00  -0.00     0.00   0.00   0.00
     7   7     0.00  -0.00  -0.00     0.00  -0.00   0.00    -0.00  -0.00  -0.00

 -------------------
 - Thermochemistry -
 -------------------
 Temperature   298.150 Kelvin.  Pressure   1.00000 Atm.
 Atom     1 has atomic number  6 and mass  12.00000
 Atom     2 has atomic number 17 and mass  34.96885
 Atom     3 has atomic number  1 and mass   1.00783
 Atom     4 has atomic number  1 and mass   1.00783
 Atom     5 has atomic number  1 and mass   1.00783
 Atom     6 has atomic number  6 and mass  12.00000
 Atom     7 has atomic number  7 and mass  14.00307
 Molecular mass:    75.99540 amu.
 Principal axes and moments of inertia in atomic units:
                           1         2         3
     Eigenvalues --    11.531801409.214581409.21640
           X            1.00000   0.00002   0.00000
           Y           -0.00000   0.00867   0.99996
           Z           -0.00002   0.99996  -0.00867
 This molecule is an asymmetric top.
 Rotational symmetry number  1.
 Rotational temperatures (Kelvin)      7.51088     0.06146     0.06146
 Rotational constants (GHZ):         156.50127     1.28067     1.28067
 Zero-point vibrational energy     118813.8 (Joules/Mol)
                                   28.39718 (Kcal/Mol)
 Warning -- explicit consideration of   6 degrees of freedom as
           vibrations may cause significant error
 Vibrational temperatures:    223.13   223.34   319.54   640.09   640.18
          (Kelvin)            703.68  1465.43  1465.59  1832.58  2071.16
                             2071.25  3145.08  4483.17  4647.85  4647.94
 
 Zero-point correction=                           0.045254 (Hartree/Particle)
 Thermal correction to Energy=                    0.050745
 Thermal correction to Enthalpy=                  0.051689
 Thermal correction to Gibbs Free Energy=         0.016889
 Sum of electronic and zero-point Energies=           -592.998925
 Sum of electronic and thermal Energies=              -592.993434
 Sum of electronic and thermal Enthalpies=            -592.992490
 Sum of electronic and thermal Free Energies=         -593.027290
 
                     E (Thermal)             CV                S
                      KCal/Mol        Cal/Mol-Kelvin    Cal/Mol-Kelvin
 Total                   31.843             16.648             73.243
 Electronic               0.000              0.000              0.000
 Translational            0.889              2.981             38.900
 Rotational               0.889              2.981             24.641
 Vibrational             30.065             10.687              9.702
 Vibration     1          0.620              1.897              2.609
 Vibration     2          0.620              1.897              2.607
 Vibration     3          0.648              1.807              1.942
 Vibration     4          0.804              1.372              0.811
 Vibration     5          0.804              1.372              0.811
 Vibration     6          0.845              1.274              0.686
                       Q            Log10(Q)             Ln(Q)
 Total Bot       0.170466D-07         -7.768361        -17.887312
 Total V=0       0.111408D+14         13.046918         30.041638
 Vib (Bot)       0.120846D-19        -19.917767        -45.862354
 Vib (Bot)    1  0.130552D+01          0.115785          0.266604
 Vib (Bot)    2  0.130424D+01          0.115359          0.265623
 Vib (Bot)    3  0.889857D+00         -0.050680         -0.116695
 Vib (Bot)    4  0.387056D+00         -0.412226         -0.949186
 Vib (Bot)    5  0.386984D+00         -0.412307         -0.949371
 Vib (Bot)    6  0.339284D+00         -0.469437         -1.080919
 Vib (V=0)       0.789790D+01          0.897511          2.066596
 Vib (V=0)    1  0.189800D+01          0.278295          0.640799
 Vib (V=0)    2  0.189680D+01          0.278022          0.640168
 Vib (V=0)    3  0.152071D+01          0.182046          0.419176
 Vib (V=0)    4  0.113231D+01          0.053964          0.124257
 Vib (V=0)    5  0.113226D+01          0.053947          0.124219
 Vib (V=0)    6  0.110425D+01          0.043066          0.099163
 Electronic      0.100000D+01          0.000000          0.000000
 Translational   0.260396D+08          7.415635         17.075130
 Rotational      0.541716D+05          4.733772         10.899912
 
                                                      RxCoord=-3.79916 DE=13.55
                                                             IR Spectrum
 
      3   3                                    2                            1     1         1                                        
      2   1                                    1                            4     2         0                    4 4        2 1      
      3   1                                    8                            4     7         1                    8 4        2 5      
      0   6                                    6                            0     4         9                    9 5        2 5      
 
      X   X                                    X                            X     X         X                    X X        X X      
                                               X                            X                                    X          X X      
                                                                            X                                    X          X X      
                                                                            X                                    X          X X      
                                                                                                                 X            X      
                                                                                                                 X            X      
                                                                                                                 X            X      
                                                                                                                 X            X      
                                                                                                                 X            X      
                                                                                                                 X                   
                                                                                                                 X                   
                                                                                                                 X                   
                                                                                                                 X                   
                                                                                                                 X                   
                                                                                                                 X                   
                                                                                                                 X                   
                                                                                                                 X                   
                                                                                                                 X                   
                                                                                                                 X                   
                                                                                                                 X                   
 
 -------------------------------------------------------------------
 Center     Atomic                   Forces (Hartrees/Bohr)
 Number     Number              X              Y              Z
 -------------------------------------------------------------------
      1        6           0.063648560   -0.000000733    0.000026135
      2       17          -0.016692652   -0.000000111    0.000006377
      3        1           0.000208230   -0.000003395    0.001646979
      4        1           0.000189191   -0.001406440   -0.000836993
      5        1           0.000190325    0.001411004   -0.000830217
      6        6          -0.020086608   -0.000000599    0.000000040
      7        7          -0.027457046    0.000000274   -0.000012321
 -------------------------------------------------------------------
 Cartesian Forces:  Max     0.063648560 RMS     0.016176604
 Z-matrix is all fixed cartesians, so copy forces.
 Force constants in Cartesian coordinates: 
                1             2             3             4             5 
      1  0.208730D+00
      2  0.205315D-05  0.604350D+00
      3  0.785954D-04  0.177894D-05  0.604477D+00
      4 -0.858789D-02  0.000000D+00  0.231312D-05  0.368399D-01
      5  0.000000D+00 -0.676733D-03  0.000000D+00  0.000000D+00 -0.191402D-02
      6  0.124819D-05  0.000000D+00 -0.677069D-03 -0.270695D-05  0.000000D+00
      7 -0.554693D-01  0.200216D-03 -0.861267D-01 -0.535184D-02  0.000000D+00
      8  0.194147D-03 -0.430311D-01  0.635768D-03  0.319217D-05 -0.104451D-02
      9 -0.835398D-01  0.635781D-03 -0.316455D+00 -0.140329D-02 -0.477670D-05
     10 -0.554217D-01  0.744141D-01  0.432051D-01 -0.535457D-02 -0.124452D-03
     11  0.721765D-01 -0.247546D+00 -0.118762D+00  0.121289D-02  0.576147D-03
     12  0.419038D-01 -0.118766D+00 -0.111990D+00  0.704711D-03  0.952548D-03
     13 -0.554236D-01 -0.746164D-01  0.428595D-01 -0.535474D-02  0.124988D-03
     14 -0.723730D-01 -0.248644D+00  0.118124D+00 -0.121566D-02  0.584407D-03
     15  0.415686D-01  0.118128D+00 -0.110887D+00  0.699252D-03 -0.947468D-03
     16 -0.421088D-01  0.000000D+00 -0.128852D-04 -0.808038D-02  0.000000D+00
     17  0.000000D+00 -0.818358D-01  0.000000D+00  0.000000D+00  0.313256D-02
     18 -0.250578D-04  0.000000D+00 -0.818547D-01  0.157694D-05  0.000000D+00
     19  0.828104D-02  0.000000D+00 -0.596615D-05 -0.411049D-02  0.000000D+00
     20  0.000000D+00  0.173832D-01  0.000000D+00  0.000000D+00 -0.657848D-03
     21  0.126268D-04  0.000000D+00  0.173865D-01 -0.185358D-05  0.000000D+00
                6             7             8             9            10 
      6 -0.193476D-02
      7  0.143679D-03  0.739993D-01
      8 -0.475195D-05 -0.211453D-03  0.439139D-01
      9  0.112271D-02  0.909887D-01 -0.669275D-03  0.331476D+00
     10 -0.722624D-04  0.375520D-02 -0.834697D-02 -0.408251D-02  0.739682D-01
     11  0.952666D-03 -0.682839D-03  0.119198D-02  0.217378D-02 -0.786174D-01
     12 -0.488629D-03  0.925536D-02 -0.241721D-01 -0.116492D-01 -0.456478D-01
     13 -0.716095D-04  0.375519D-02  0.836583D-02 -0.404372D-02  0.374949D-02
     14 -0.947601D-03  0.639609D-03  0.108902D-02 -0.211420D-02 -0.767734D-02
     15 -0.497541D-03  0.925859D-02  0.242315D-01 -0.115470D-01 -0.521762D-02
     16  0.119676D-05 -0.199092D-01  0.113384D-05 -0.462356D-03 -0.199173D-01
     17  0.000000D+00  0.623005D-04 -0.303469D-02 -0.283444D-04  0.231660D-01
     18  0.313335D-02 -0.267691D-01 -0.281628D-04  0.916639D-02  0.134492D-01
     19  0.000000D+00 -0.779387D-03 -0.587744D-05  0.254305D-02 -0.779291D-03
     20  0.000000D+00 -0.755323D-05  0.915418D-03  0.703036D-05 -0.281386D-02
     21 -0.658060D-03  0.324949D-02  0.701711D-05 -0.211393D-02 -0.163411D-02
               11            12            13            14            15 
     11  0.259022D+00
     12  0.124893D+00  0.116425D+00
     13  0.770131D-02 -0.518166D-02  0.739700D-01
     14 -0.179794D-01  0.131170D-01  0.788306D-01  0.260178D+00
     15 -0.132355D-01  0.750984D-02 -0.452826D-01 -0.124223D+00  0.115266D+00
     16  0.407746D-03  0.242875D-03 -0.199173D-01 -0.408463D-03  0.240793D-03
     17  0.608404D-02  0.528998D-02 -0.232277D-01  0.613357D-02 -0.526178D-02
     18  0.529298D-02  0.415038D-04  0.133410D-01 -0.526495D-02 -0.766813D-05
     19 -0.219821D-02 -0.127729D-02 -0.779075D-03  0.220418D-02 -0.126703D-02
     20 -0.134954D-02 -0.131458D-02  0.282134D-02 -0.136182D-02  0.130757D-02
     21 -0.131541D-02  0.151068D-03 -0.162094D-02  0.130841D-02  0.163278D-03
               16            17            18            19            20 
     16  0.124386D+01
     17 -0.583857D-05  0.111020D+00
     18  0.285635D-03  0.000000D+00  0.111020D+00
     19 -0.113393D+01  0.524202D-05 -0.283263D-03  0.113210D+01
     20  0.553662D-05 -0.415001D-01  0.000000D+00 -0.545119D-05  0.265707D-01
     21 -0.295258D-03  0.000000D+00 -0.414987D-01  0.290049D-03  0.000000D+00
               21 
     21  0.265698D-01
 Leave Link  716 at Sun Oct 13 09:49:20 2024, MaxMem=  2684354560 cpu:               1.5 elap:               0.1
 (Enter /usr/local/g16_AVX//g16/l103.exe)

 GradGradGradGradGradGradGradGradGradGradGradGradGradGradGradGradGradGrad
 Berny optimization.
 Search for a local minimum.
 Step number   1 out of a maximum of    2
 All quantities printed in internal units (Hartrees-Bohrs-Radians)
 Second derivative matrix not updated -- analytic derivatives used.
 ITU=  0
     Eigenvalues ---    0.00410   0.00411   0.03052   0.03053   0.03638
     Eigenvalues ---    0.07144   0.09787   0.09788   0.12776   0.15872
     Eigenvalues ---    0.15872   0.46455   0.88129   0.88142   2.32340
 Quadratic step=7.958D-01 exceeds max=3.000D-01 adjusted using Lamda=-1.239D-01.
 Angle between NR and scaled steps=  18.29 degrees.
 Angle between quadratic step and forces=  18.84 degrees.
 Linear search not attempted -- first point.
 B after Tr=    -0.018882   -0.000000    0.000008
         Rot=    1.000000    0.000000   -0.000001    0.000000 Ang=  -0.00 deg.
 Variable       Old X    -DE/DX   Delta X   Delta X   Delta X     New X
                                 (Linear)    (Quad)   (Total)
    X1        0.99208   0.06365   0.00000   0.24194   0.22306   1.21514
    Y1        0.00001  -0.00000   0.00000  -0.00000  -0.00000   0.00001
    Z1       -0.00043   0.00003   0.00000   0.00005   0.00006  -0.00038
    X2       -4.28025  -0.01669   0.00000  -0.06345  -0.08234  -4.36259
    Y2       -0.00000  -0.00000   0.00000  -0.00000  -0.00000  -0.00000
    Z2        0.00019   0.00001   0.00000   0.00000   0.00002   0.00021
    X3        0.35380   0.00021   0.00000   0.04570   0.02681   0.38061
    Y3        0.00455  -0.00000   0.00000  -0.00009  -0.00009   0.00446
    Z3       -1.95327   0.00165   0.00000   0.03930   0.03931  -1.91397
    X4        0.35446   0.00019   0.00000   0.04555   0.02667   0.38113
    Y4        1.68892  -0.00141   0.00000  -0.03387  -0.03387   1.65505
    Z4        0.98034  -0.00084   0.00000  -0.01976  -0.01975   0.96059
    X5        0.35444   0.00019   0.00000   0.04555   0.02667   0.38111
    Y5       -1.69344   0.00141   0.00000   0.03397   0.03397  -1.65948
    Z5        0.97247  -0.00083   0.00000  -0.01960  -0.01959   0.95287
    X6        4.05919  -0.02009   0.00000  -0.08496  -0.10384   3.95536
    Y6        0.00000  -0.00000   0.00000  -0.00000  -0.00000  -0.00000
    Z6       -0.00035   0.00000   0.00000   0.00003   0.00003  -0.00032
    X7        6.28356  -0.02746   0.00000  -0.09816  -0.11704   6.16652
    Y7       -0.00001   0.00000   0.00000   0.00000   0.00000  -0.00001
    Z7        0.00025  -0.00001   0.00000  -0.00006  -0.00007   0.00018
         Item               Value     Threshold  Converged?
 Maximum Force            0.063649     0.000450     NO 
 RMS     Force            0.016177     0.000300     NO 
 Maximum Displacement     0.223060     0.001800     NO 
 RMS     Displacement     0.064652     0.001200     NO 
 Predicted change in Energy=-1.613438D-02
 GradGradGradGradGradGradGradGradGradGradGradGradGradGradGradGradGradGrad

 Leave Link  103 at Sun Oct 13 09:49:20 2024, MaxMem=  2684354560 cpu:               0.5 elap:               0.0
 (Enter /usr/local/g16_AVX//g16/l9999.exe)

 ----------------------------------------------------------------------

 Electric dipole moment (input orientation):
 (Debye = 10**-18 statcoulomb cm , SI units = C m)
                  (au)            (Debye)         (10**-30 SI)
   Tot        0.177807D+01      0.451939D+01      0.150751D+02
   x          0.177807D+01      0.451939D+01      0.150751D+02
   y          0.000000D+00      0.000000D+00      0.000000D+00
   z         -0.325952D-03     -0.828487D-03     -0.276353D-02

 Dipole polarizability, Alpha (input orientation).
 (esu units = cm**3 , SI units = C**2 m**2 J**-1)
 Alpha(0;0):
               (au)            (10**-24 esu)      (10**-40 SI)
   iso        0.560750D+02      0.830946D+01      0.924552D+01
   aniso      0.449356D+02      0.665877D+01      0.740889D+01
   xx         0.860321D+02      0.127486D+02      0.141848D+02
   yx        -0.541777D-04     -0.802831D-05     -0.893270D-05
   yy         0.410955D+02      0.608972D+01      0.677573D+01
   zx         0.163199D-02      0.241837D-03      0.269080D-03
   zy         0.000000D+00      0.000000D+00      0.000000D+00
   zz         0.410974D+02      0.609001D+01      0.677605D+01

 ----------------------------------------------------------------------

 Dipole orientation:
     6          0.00025277          0.00000552          0.99207982
    17          0.00059945          0.00001507         -4.28025231
     1          1.95320893          0.00455491          0.35415639
     1         -0.98041054          1.68891665          0.35429046
     1         -0.97252454         -1.69344742          0.35425016
     6         -0.00039263         -0.00001419          4.05919407
     7         -0.00139945         -0.00003434          6.28356409

 Electric dipole moment (dipole orientation):
 (Debye = 10**-18 statcoulomb cm , SI units = C m)
                  (au)            (Debye)         (10**-30 SI)
   Tot        0.177807D+01      0.451939D+01      0.150751D+02
   x          0.000000D+00      0.000000D+00      0.000000D+00
   y          0.000000D+00      0.000000D+00      0.000000D+00
   z          0.177807D+01      0.451939D+01      0.150751D+02

 Dipole polarizability, Alpha (dipole orientation).
 (esu units = cm**3 , SI units = C**2 m**2 J**-1)
 Alpha(0;0):
               (au)            (10**-24 esu)      (10**-40 SI)
   iso        0.560750D+02      0.830946D+01      0.924552D+01
   aniso      0.449356D+02      0.665877D+01      0.740889D+01
   xx         0.410974D+02      0.609001D+01      0.677605D+01
   yx         0.000000D+00      0.000000D+00      0.000000D+00
   yy         0.410955D+02      0.608972D+01      0.677573D+01
   zx        -0.986933D-02     -0.146248D-02     -0.162723D-02
   zy        -0.232204D-03     -0.344091D-04     -0.382853D-04
   zz         0.860321D+02      0.127486D+02      0.141848D+02

 ----------------------------------------------------------------------
 1\1\GINC-NODO8\Freq\RB3LYP\6-31++G(d,p)\C2H3Cl1N1(1-)\ALANQF\13-Oct-20
 24\0\\#p b3lyp 6-31++g(d,p) scf=verytight NoSymm freq=noraman int=ultr
 afine\\RxCoord=-3.79916 DE=13.55\\-1,1\C,0.524986,0.000005,-0.00023\Cl
 ,-2.265012,-0.000001,0.000098\H,0.187222,0.002407,-1.033628\H,0.187574
 ,0.893739,0.518773\H,0.187559,-0.896131,0.514607\C,2.148033,0.000001,-
 0.000186\N,3.325119,-0.000005,0.000131\\Version=ES64L-G16RevB.01\HF=-5
 93.0441787\RMSD=3.889e-09\RMSF=1.618e-02\ZeroPoint=0.0452538\Thermal=0
 .0507446\Dipole=1.8445018,0.000007,-0.0003338\DipoleDeriv=0.7799569,-0
 .0000002,0.0000136,-0.0000072,0.0777873,0.0000003,0.0000976,0.0000002,
 0.0778518,-1.1807102,0.0000004,0.0000172,0.0000021,-0.9034672,0.,0.000
 0304,0.,-0.903489,0.0800375,-0.0000321,0.0141105,-0.0000097,0.0951932,
 0.0001649,0.0049832,0.0001653,0.0242768,0.0798527,-0.0122263,-0.007125
 ,-0.0042839,0.0420969,-0.0308043,-0.0025305,-0.0308217,0.0772693,0.079
 8664,0.0122588,-0.0070667,0.0042996,0.0418111,0.0306394,-0.0025105,0.0
 306566,0.0775554,-0.1170093,0.0000003,-0.0000532,-0.0000042,0.0226185,
 -0.0000005,0.00008,-0.0000005,0.0225649,-0.7219939,-0.0000009,0.000103
 7,0.0000033,-0.3760398,0.0000001,-0.0001501,0.0000001,-0.3760291\Polar
 =86.0320912,-0.0000542,41.0954608,0.001632,-0.0000041,41.0974462\Quadr
 upole=-24.0870478,12.0431906,12.0438573,0.0000278,0.0001986,0.000005\P
 G=C01 [X(C2H3Cl1N1)]\NImag=0\\0.20873021,0.00000205,0.60435019,0.00007
 860,0.00000178,0.60447690,-0.00858789,0.,0.00000231,0.03683990,0.00000
 017,-0.00067673,0.,-0.00000037,-0.00191402,0.00000125,0.,-0.00067707,-
 0.00000271,-0.00000030,-0.00193476,-0.05546927,0.00020022,-0.08612671,
 -0.00535184,-0.00000028,0.00014368,0.07399925,0.00019415,-0.04303113,0
 .00063577,0.00000319,-0.00104451,-0.00000475,-0.00021145,0.04391391,-0
 .08353984,0.00063578,-0.31645469,-0.00140329,-0.00000478,0.00112271,0.
 09098866,-0.00066927,0.33147567,-0.05542170,0.07441407,0.04320510,-0.0
 0535457,-0.00012445,-0.00007226,0.00375520,-0.00834697,-0.00408251,0.0
 7396819,0.07217655,-0.24754561,-0.11876154,0.00121289,0.00057615,0.000
 95267,-0.00068284,0.00119198,0.00217378,-0.07861744,0.25902241,0.04190
 378,-0.11876593,-0.11199007,0.00070471,0.00095255,-0.00048863,0.009255
 36,-0.02417208,-0.01164918,-0.04564777,0.12489303,0.11642547,-0.055423
 59,-0.07461640,0.04285955,-0.00535474,0.00012499,-0.00007161,0.0037551
 9,0.00836583,-0.00404372,0.00374949,0.00770131,-0.00518166,0.07397000,
 -0.07237295,-0.24864414,0.11812390,-0.00121566,0.00058441,-0.00094760,
 0.00063961,0.00108902,-0.00211420,-0.00767734,-0.01797943,0.01311703,0
 .07883063,0.26017839,0.04156865,0.11812831,-0.11088692,0.00069925,-0.0
 0094747,-0.00049754,0.00925859,0.02423148,-0.01154697,-0.00521762,-0.0
 1323552,0.00750984,-0.04528262,-0.12422259,0.11526598,-0.04210879,-0.0
 0000006,-0.00001289,-0.00808038,-0.00000005,0.00000120,-0.01990915,0.0
 0000113,-0.00046236,-0.01991733,0.00040775,0.00024287,-0.01991729,-0.0
 0040846,0.00024079,1.24386432,0.00000011,-0.08183578,0.00000009,-0.000
 00011,0.00313256,-0.00000002,0.00006230,-0.00303469,-0.00002834,0.0231
 6599,0.00608404,0.00528998,-0.02322769,0.00613357,-0.00526178,-0.00000
 584,0.11102039,-0.00002506,0.00000006,-0.08185466,0.00000158,-0.000000
 02,0.00313335,-0.02676907,-0.00002816,0.00916639,0.01344917,0.00529298
 ,0.00004150,0.01334101,-0.00526495,-0.00000767,0.00028564,0.00000010,0
 .11101973,0.00828104,0.00000013,-0.00000597,-0.00411049,0.,0.00000045,
 -0.00077939,-0.00000588,0.00254305,-0.00077929,-0.00219821,-0.00127729
 ,-0.00077907,0.00220418,-0.00126703,-1.13393138,0.00000524,-0.00028326
 ,1.13209859,-0.00000008,0.01738320,0.,0.00000006,-0.00065785,0.,-0.000
 00755,0.00091542,0.00000703,-0.00281386,-0.00134954,-0.00131458,0.0028
 2134,-0.00136182,0.00130757,0.00000554,-0.04150009,-0.00000001,-0.0000
 0545,0.02657068,0.00001263,0.,0.01738650,-0.00000185,0.,-0.00065806,0.
 00324949,0.00000702,-0.00211393,-0.00163411,-0.00131541,0.00015107,-0.
 00162094,0.00130841,0.00016328,-0.00029526,-0.00000001,-0.04149865,0.0
 0029005,0.,0.02656980\\-0.06364856,0.00000073,-0.00002614,0.01669265,0
 .00000011,-0.00000638,-0.00020823,0.00000340,-0.00164698,-0.00018919,0
 .00140644,0.00083699,-0.00019032,-0.00141100,0.00083022,0.02008661,0.0
 0000060,-0.00000004,0.02745705,-0.00000027,0.00001232\\\@


 HO!  SUCH BUGS AND GOBLINS IN MY LIFE!

                            -- HAMLET, ACT 5, SCENE 2
 Job cpu time:       0 days  0 hours  3 minutes 50.6 seconds.
 Elapsed time:       0 days  0 hours  0 minutes 10.0 seconds.
 File lengths (MBytes):  RWF=     88 Int=      0 D2E=      0 Chk=      2 Scr=      2
 Normal termination of Gaussian 16 at Sun Oct 13 09:49:21 2024.
