RxCoord=-3.59920 DE=16.50                                               
Freq      RB3LYP                                                      6-31++G(d,p)        
Number of atoms                            I                7
Info1-9                                    I   N=           9
          16          16           0           0           0         100
           6          18        -502
Full Title                                 C   N=           3
RxCoord=-3.59920 DE=16.50           
Route                                      C   N=           6
#p b3lyp 6-31++g(d,p) scf=verytight NoSymm freq=noraman int=
ultrafine   
Charge                                     I               -1
Multiplicity                               I                1
Number of electrons                        I               40
Number of alpha electrons                  I               20
Number of beta electrons                   I               20
Number of basis functions                  I               98
Number of independent functions            I               98
Number of point charges in /Mol/           I                0
Number of translation vectors              I                0
Atomic numbers                             I   N=           7
           6          17           1           1           1           6
           7
Nuclear charges                            R   N=           7
  6.00000000E+00  1.70000000E+01  1.00000000E+00  1.00000000E+00  1.00000000E+00
  6.00000000E+00  7.00000000E+00
Current cartesian coordinates              R   N=          21
  9.43186875E-01  9.44863062E-06 -4.55423996E-04 -4.27518221E+00 -1.88972612E-06
  1.96531517E-04  3.31671501E-01  4.55990914E-03 -1.96017511E+00  3.32211963E-01
  1.69487268E+00  9.83645912E-01  3.32183617E-01 -1.69940803E+00  9.75748746E-01
  4.07633011E+00  3.77945225E-06 -3.47709607E-04  6.30291126E+00 -9.44863062E-06
  2.57002753E-04
Number of symbols in /Mol/                 I                0
Force Field                                I                0
Atom Types                                 C   N=           7
                                                            
                        
Int Atom Types                             I   N=           7
           0           0           0           0           0           0
           0
MM charges                                 R   N=           7
  0.00000000E+00  0.00000000E+00  0.00000000E+00  0.00000000E+00  0.00000000E+00
  0.00000000E+00  0.00000000E+00
Integer atomic weights                     I   N=           7
          12          35           1           1           1          12
          14
Real atomic weights                        R   N=           7
  1.20000000E+01  3.49688527E+01  1.00782504E+00  1.00782504E+00  1.00782504E+00
  1.20000000E+01  1.40030740E+01
Atom fragment info                         I   N=           7
           0           0           0           0           0           0
           0
Atom residue num                           I   N=           7
           0           0           0           0           0           0
           0
Nuclear spins                              I   N=           7
           0           3           1           1           1           0
           2
Nuclear ZEff                               R   N=           7
 -3.60000000E+00 -1.42400000E+01 -1.00000000E+00 -1.00000000E+00 -1.00000000E+00
 -3.60000000E+00 -4.55000000E+00
Nuclear ZNuc                               R   N=           7
  6.00000000E+00  1.70000000E+01  1.00000000E+00  1.00000000E+00  1.00000000E+00
  6.00000000E+00  7.00000000E+00
Nuclear QMom                               R   N=           7
  0.00000000E+00 -8.16500000E+00  0.00000000E+00  0.00000000E+00  0.00000000E+00
  0.00000000E+00  2.04400000E+00
Nuclear GFac                               R   N=           7
  0.00000000E+00  8.21874000E-01  2.79284600E+00  2.79284600E+00  2.79284600E+00
  0.00000000E+00  4.03761000E-01
MicOpt                                     I   N=           7
          -1          -1          -1          -1          -1          -1
          -1
Number of residues                         I                0
Number of secondary structures             I                0
Number of contracted shells                I               33
Number of primitive shells                 I               72
Pure/Cartesian d shells                    I                1
Pure/Cartesian f shells                    I                0
Highest angular momentum                   I                2
Largest degree of contraction              I                6
Shell types                                I   N=          33
           0          -1          -1          -1           2           0
          -1          -1          -1          -1           2           0
           0           0           1           0           0           0
           1           0           0           0           1           0
          -1          -1          -1           2           0          -1
          -1          -1           2
Number of primitives per shell             I   N=          33
           6           3           1           1           1           6
           6           3           1           1           1           3
           1           1           1           3           1           1
           1           3           1           1           1           6
           3           1           1           1           6           3
           1           1           1
Shell to atom map                          I   N=          33
           1           1           1           1           1           2
           2           2           2           2           2           3
           3           3           3           4           4           4
           4           5           5           5           5           6
           6           6           6           6           7           7
           7           7           7
Primitive exponents                        R   N=          72
  3.04752488E+03  4.57369518E+02  1.03948685E+02  2.92101553E+01  9.28666296E+00
  3.16392696E+00  7.86827235E+00  1.88128854E+00  5.44249258E-01  1.68714478E-01
  4.38000000E-02  8.00000000E-01  2.51801000E+04  3.78035000E+03  8.60474000E+02
  2.42145000E+02  7.73349000E+01  2.62470000E+01  4.91765000E+02  1.16984000E+02
  3.74153000E+01  1.37834000E+01  5.45215000E+00  2.22588000E+00  3.18649000E+00
  1.14427000E+00  4.20377000E-01  1.42657000E-01  4.83000000E-02  7.50000000E-01
  1.87311370E+01  2.82539436E+00  6.40121692E-01  1.61277759E-01  3.60000000E-02
  1.10000000E+00  1.87311370E+01  2.82539436E+00  6.40121692E-01  1.61277759E-01
  3.60000000E-02  1.10000000E+00  1.87311370E+01  2.82539436E+00  6.40121692E-01
  1.61277759E-01  3.60000000E-02  1.10000000E+00  3.04752488E+03  4.57369518E+02
  1.03948685E+02  2.92101553E+01  9.28666296E+00  3.16392696E+00  7.86827235E+00
  1.88128854E+00  5.44249258E-01  1.68714478E-01  4.38000000E-02  8.00000000E-01
  4.17351146E+03  6.27457911E+02  1.42902093E+02  4.02343293E+01  1.28202129E+01
  4.39043701E+00  1.16263619E+01  2.71627981E+00  7.72218397E-01  2.12031498E-01
  6.39000000E-02  8.00000000E-01
Contraction coefficients                   R   N=          72
  1.83473713E-03  1.40373228E-02  6.88426223E-02  2.32184443E-01  4.67941348E-01
  3.62311985E-01 -1.19332420E-01 -1.60854152E-01  1.14345644E+00  1.00000000E+00
  1.00000000E+00  1.00000000E+00  1.83295985E-03  1.40341988E-02  6.90973943E-02
  2.37451980E-01  4.83033960E-01  3.39855972E-01 -2.29739142E-03 -3.07137189E-02
 -1.12528069E-01  4.50163278E-02  5.89353363E-01  4.65206287E-01 -2.51828028E-01
  6.15892514E-02  1.06018433E+00  1.00000000E+00  1.00000000E+00  1.00000000E+00
  3.34946043E-02  2.34726953E-01  8.13757326E-01  1.00000000E+00  1.00000000E+00
  1.00000000E+00  3.34946043E-02  2.34726953E-01  8.13757326E-01  1.00000000E+00
  1.00000000E+00  1.00000000E+00  3.34946043E-02  2.34726953E-01  8.13757326E-01
  1.00000000E+00  1.00000000E+00  1.00000000E+00  1.83473713E-03  1.40373228E-02
  6.88426223E-02  2.32184443E-01  4.67941348E-01  3.62311985E-01 -1.19332420E-01
 -1.60854152E-01  1.14345644E+00  1.00000000E+00  1.00000000E+00  1.00000000E+00
  1.83477216E-03  1.39946270E-02  6.85865518E-02  2.32240873E-01  4.69069948E-01
  3.60455199E-01 -1.14961182E-01 -1.69117479E-01  1.14585195E+00  1.00000000E+00
  1.00000000E+00  1.00000000E+00
P(S=P) Contraction coefficients            R   N=          72
  0.00000000E+00  0.00000000E+00  0.00000000E+00  0.00000000E+00  0.00000000E+00
  0.00000000E+00  6.89990666E-02  3.16423961E-01  7.44308291E-01  1.00000000E+00
  1.00000000E+00  0.00000000E+00  0.00000000E+00  0.00000000E+00  0.00000000E+00
  0.00000000E+00  0.00000000E+00  0.00000000E+00  3.98940088E-03  3.03177067E-02
  1.29880029E-01  3.27951072E-01  4.53527100E-01  2.52154056E-01 -1.42993147E-02
  3.23572333E-01  7.43507765E-01  1.00000000E+00  1.00000000E+00  0.00000000E+00
  0.00000000E+00  0.00000000E+00  0.00000000E+00  0.00000000E+00  0.00000000E+00
  0.00000000E+00  0.00000000E+00  0.00000000E+00  0.00000000E+00  0.00000000E+00
  0.00000000E+00  0.00000000E+00  0.00000000E+00  0.00000000E+00  0.00000000E+00
  0.00000000E+00  0.00000000E+00  0.00000000E+00  0.00000000E+00  0.00000000E+00
  0.00000000E+00  0.00000000E+00  0.00000000E+00  0.00000000E+00  6.89990666E-02
  3.16423961E-01  7.44308291E-01  1.00000000E+00  1.00000000E+00  0.00000000E+00
  0.00000000E+00  0.00000000E+00  0.00000000E+00  0.00000000E+00  0.00000000E+00
  0.00000000E+00  6.75797439E-02  3.23907296E-01  7.40895140E-01  1.00000000E+00
  1.00000000E+00  0.00000000E+00
Coordinates of each shell                  R   N=          99
  9.43186875E-01  9.44863062E-06 -4.55423996E-04  9.43186875E-01  9.44863062E-06
 -4.55423996E-04  9.43186875E-01  9.44863062E-06 -4.55423996E-04  9.43186875E-01
  9.44863062E-06 -4.55423996E-04  9.43186875E-01  9.44863062E-06 -4.55423996E-04
 -4.27518221E+00 -1.88972612E-06  1.96531517E-04 -4.27518221E+00 -1.88972612E-06
  1.96531517E-04 -4.27518221E+00 -1.88972612E-06  1.96531517E-04 -4.27518221E+00
 -1.88972612E-06  1.96531517E-04 -4.27518221E+00 -1.88972612E-06  1.96531517E-04
 -4.27518221E+00 -1.88972612E-06  1.96531517E-04  3.31671501E-01  4.55990914E-03
 -1.96017511E+00  3.31671501E-01  4.55990914E-03 -1.96017511E+00  3.31671501E-01
  4.55990914E-03 -1.96017511E+00  3.31671501E-01  4.55990914E-03 -1.96017511E+00
  3.32211963E-01  1.69487268E+00  9.83645912E-01  3.32211963E-01  1.69487268E+00
  9.83645912E-01  3.32211963E-01  1.69487268E+00  9.83645912E-01  3.32211963E-01
  1.69487268E+00  9.83645912E-01  3.32183617E-01 -1.69940803E+00  9.75748746E-01
  3.32183617E-01 -1.69940803E+00  9.75748746E-01  3.32183617E-01 -1.69940803E+00
  9.75748746E-01  3.32183617E-01 -1.69940803E+00  9.75748746E-01  4.07633011E+00
  3.77945225E-06 -3.47709607E-04  4.07633011E+00  3.77945225E-06 -3.47709607E-04
  4.07633011E+00  3.77945225E-06 -3.47709607E-04  4.07633011E+00  3.77945225E-06
 -3.47709607E-04  4.07633011E+00  3.77945225E-06 -3.47709607E-04  6.30291126E+00
 -9.44863062E-06  2.57002753E-04  6.30291126E+00 -9.44863062E-06  2.57002753E-04
  6.30291126E+00 -9.44863062E-06  2.57002753E-04  6.30291126E+00 -9.44863062E-06
  2.57002753E-04  6.30291126E+00 -9.44863062E-06  2.57002753E-04
Num ILSW                                   I              100
ILSW                                       I   N=         100
           0           1           0           0           2           0
           0           0           0           0         402          -1
           5           0           0           0           2           0
           0           0           0           0           1           0
           1           1           0           0           0           0
           0           0      100000           0          -1           0
           0           0           0           0           0           0
           0           0           0           1           0           0
           0 -2000000000           1           0           0           0
           0           0           4          52           0           0
           0           0           5           0           0           0
           0           0           0           7           0           1
           0           0           0           0           0           0
           0           0           0           0           0           0
           0           0           0           0           0           0
           0           0           0           0           0           0
           0           0           0           0
Num RLSW                                   I               52
RLSW                                       R   N=          52
  8.00000000E-01  7.20000000E-01  1.00000000E+00  8.10000000E-01  2.00000000E-01
  0.00000000E+00  0.00000000E+00  1.00000000E+00  0.00000000E+00  0.00000000E+00
  0.00000000E+00  0.00000000E+00  1.00000000E+00  0.00000000E+00  0.00000000E+00
  0.00000000E+00  0.00000000E+00  1.00000000E+00  0.00000000E+00  0.00000000E+00
  0.00000000E+00  0.00000000E+00  1.00000000E+00  0.00000000E+00  0.00000000E+00
  0.00000000E+00  0.00000000E+00  1.00000000E+00  0.00000000E+00  0.00000000E+00
  0.00000000E+00  0.00000000E+00  1.00000000E+00  0.00000000E+00  0.00000000E+00
  0.00000000E+00  0.00000000E+00  0.00000000E+00  1.00000000E+00  1.00000000E+00
  0.00000000E+00  1.00000000E+00  0.00000000E+00  0.00000000E+00  0.00000000E+00
  0.00000000E+00  0.00000000E+00  0.00000000E+00  0.00000000E+00  0.00000000E+00
  0.00000000E+00  0.00000000E+00
MxBond                                     I                4
NBond                                      I   N=           7
           4           0           1           1           1           2
           1
IBond                                      I   N=          28
           3           4           5           6           0           0
           0           0           1           0           0           0
           1           0           0           0           1           0
           0           0           1           7           0           0
           6           0           0           0
RBond                                      R   N=          28
  1.00000000E+00  1.00000000E+00  1.00000000E+00  1.00000000E+00  0.00000000E+00
  0.00000000E+00  0.00000000E+00  0.00000000E+00  1.00000000E+00  0.00000000E+00
  0.00000000E+00  0.00000000E+00  1.00000000E+00  0.00000000E+00  0.00000000E+00
  0.00000000E+00  1.00000000E+00  0.00000000E+00  0.00000000E+00  0.00000000E+00
  1.00000000E+00  2.00000000E+00  0.00000000E+00  0.00000000E+00  2.00000000E+00
  0.00000000E+00  0.00000000E+00  0.00000000E+00
Virial Ratio                               R      2.004986280064216E+00
SCF Energy                                 R     -5.930399035333373E+02
Total Energy                               R     -5.930399035333373E+02
RMS Force                                  R      1.728507350778783E-02
RMS Density                                R      8.226469802104461E-09
NImag                                      I                0
Job Status                                 I                1
Nuclear derivative order                   I                2
External E-field                           R   N=          35
  0.00000000E+00  0.00000000E+00  0.00000000E+00  0.00000000E+00  0.00000000E+00
  0.00000000E+00  0.00000000E+00  0.00000000E+00  0.00000000E+00  0.00000000E+00
  0.00000000E+00  0.00000000E+00  0.00000000E+00  0.00000000E+00  0.00000000E+00
  0.00000000E+00  0.00000000E+00  0.00000000E+00  0.00000000E+00  0.00000000E+00
  0.00000000E+00  0.00000000E+00  0.00000000E+00  0.00000000E+00  0.00000000E+00
  0.00000000E+00  0.00000000E+00  0.00000000E+00  0.00000000E+00  0.00000000E+00
  0.00000000E+00  0.00000000E+00  0.00000000E+00  0.00000000E+00  0.00000000E+00
IOpCl                                      I                0
IROHF                                      I                0
Alpha Orbital Energies                     R   N=          98
 -1.01259270E+02 -1.42202023E+01 -1.01161483E+01 -1.00975089E+01 -9.17366081E+00
 -6.93141403E+00 -6.93141393E+00 -6.93124268E+00 -7.75538200E-01 -6.00675875E-01
 -5.14699373E-01 -3.44327572E-01 -3.04264566E-01 -3.04246323E-01 -2.42980434E-01
 -2.08753005E-01 -2.08747778E-01 -6.01978484E-02 -6.01974484E-02 -5.80549788E-02
  1.06444483E-01  1.46355804E-01  1.46706258E-01  1.46716652E-01  1.50667268E-01
  1.50670350E-01  2.04236824E-01  2.10051809E-01  2.10052824E-01  2.10461139E-01
  2.39978426E-01  2.39998022E-01  2.49567416E-01  2.60867470E-01  2.60870185E-01
  2.66958967E-01  3.15629153E-01  3.40817915E-01  3.40821444E-01  3.47817153E-01
  3.47843682E-01  3.51838314E-01  3.91916248E-01  4.20737066E-01  4.82516637E-01
  7.14916432E-01  7.88671998E-01  7.88673299E-01  8.37768881E-01  8.37810969E-01
  8.54401781E-01  8.60680616E-01  8.60685846E-01  8.84778985E-01  9.77977927E-01
  1.01257183E+00  1.03854957E+00  1.03856376E+00  1.10807524E+00  1.12256173E+00
  1.12257998E+00  1.14705798E+00  1.14706413E+00  1.16985798E+00  1.16987731E+00
  1.23816318E+00  1.25521971E+00  1.35383124E+00  1.49601381E+00  1.49601574E+00
  1.52229893E+00  1.65153975E+00  1.65154015E+00  1.80377704E+00  1.80382871E+00
  1.86824110E+00  2.07074994E+00  2.07075356E+00  2.14983221E+00  2.15136626E+00
  2.22613856E+00  2.22625665E+00  2.43329170E+00  2.43335699E+00  2.78646464E+00
  2.78658793E+00  2.81026350E+00  2.95879617E+00  3.00629778E+00  3.00633894E+00
  3.21441490E+00  3.45604124E+00  3.55289184E+00  3.55297756E+00  4.21503511E+00
  4.38683465E+00  4.58341139E+00  4.71405348E+00
Alpha MO coefficients                      R   N=        9604
 -1.96300849E-06  1.79753574E-05  2.43828985E-05  2.56291457E-10 -3.63913071E-09
 -1.00868593E-04 -2.22718506E-04 -7.45949570E-10  3.37360144E-08  8.67834825E-04
  5.40546912E-04  2.36094819E-10  4.53260338E-09 -3.57187378E-05 -6.73047678E-06
 -6.73312231E-06  1.59092341E-10  1.87867040E-12  3.57120647E-11  9.95997664E-01
  1.51454622E-02  2.26866881E-06 -4.53253471E-11 -2.65303300E-10 -2.10625402E-02
 -3.33568381E-06  1.16494244E-10  3.31553027E-10  1.92900128E-03 -1.50358893E-05
 -3.25339622E-10  2.89830695E-09 -1.97725312E-04  3.05449284E-05  5.18170923E-10
 -1.67758145E-08  7.50404459E-03  7.51648433E-03  7.51648437E-03 -4.79861460E-11
  1.50117575E-09 -2.54782101E-12 -1.04075008E-05 -5.36847083E-05  8.00339858E-05
  2.42062685E-05  2.31465247E-08 -9.91663618E-06 -1.04055527E-05 -5.37092671E-05
  8.00402721E-05  2.42041287E-05  8.57653922E-06  4.97513215E-06 -1.04070549E-05
 -5.37086565E-05  8.00420622E-05  2.42043171E-05 -8.59939583E-06  4.93521253E-06
 -2.76841981E-06 -1.75048847E-05  5.38534040E-06 -6.18480208E-11  3.75189238E-10
 -1.29133690E-04 -3.84588541E-04  1.95031197E-09 -6.33748888E-08 -1.33633897E-03
  3.07292989E-04 -7.12505840E-10 -1.71814393E-09  2.19474636E-06 -3.06477466E-06
 -3.06530135E-06  4.46445252E-11 -4.35205495E-09  1.98707351E-11 -5.10764120E-06
 -2.34424964E-05  1.97692503E-06 -3.00102588E-11  3.51934034E-09  3.36651391E-04
 -1.39310604E-04  9.37747138E-10 -5.55145875E-08  2.62283909E-04 -8.25509452E-05
  4.39728165E-10 -1.55543886E-08 -2.24128603E-06 -1.07072512E-05 -1.07072424E-05
 -6.10721521E-11  4.75637842E-09 -1.16855013E-12 -6.78174377E-06 -2.09661575E-04
  8.37101943E-05 -2.94346693E-10 -2.39858951E-09  7.01282953E-04  4.89603108E-04
  3.58604154E-10 -2.75015984E-08  7.83771620E-03  2.88154104E-03 -1.49131823E-09
 -7.99417300E-08  2.50225895E-04 -3.18030001E-06 -3.16542978E-06  8.07700942E-12
 -9.88862816E-09  5.30447104E-11 -4.68043369E-08 -3.66019814E-06  2.76163712E-06
  1.01464397E-11 -1.23169026E-09 -5.58898869E-06 -2.02920419E-05 -6.19369276E-11
  7.51287162E-09  3.25953845E-06  9.46857102E-05  2.47111402E-10 -2.72404523E-08
  6.73323927E-04  1.77525530E-04  4.72382411E-10 -1.56160662E-08  8.76258778E-06
 -1.29914920E-05 -1.29912073E-05  2.99931371E-11 -4.35759355E-09 -1.21138425E-11
  4.22626550E-06 -9.85300048E-05 -1.21900620E-04 -1.00360199E-05 -1.73211344E-08
  7.41453923E-06  4.23168457E-06 -9.84966578E-05 -1.22089578E-04 -1.00282357E-05
 -6.42285561E-06 -3.72568513E-06  4.23234768E-06 -9.84960314E-05 -1.22092464E-04
 -1.00278331E-05  6.43973626E-06 -3.69567139E-06  8.49601432E-05  3.20996293E-04
 -4.74983190E-04  2.56775459E-09 -1.17944138E-07  2.44912422E-04  9.23999906E-04
 -1.95136029E-09  6.42430252E-08 -6.11496292E-03  3.94568876E-03 -1.38145064E-08
  5.18680802E-07 -1.06174704E-03  1.10424965E-05  1.10421091E-05  6.63401593E-09
 -2.96940828E-07  3.66338403E-11  9.92763008E-01  3.45220128E-02 -1.88739354E-03
  1.24171149E-08 -5.43946226E-07  3.78028220E-03  8.06855100E-04 -6.34529825E-09
  2.79337270E-07 -3.21647415E-03 -4.70222997E-04  1.17486923E-09 -2.35926867E-08
 -7.47387497E-03 -8.32619136E-03 -8.32619298E-03 -5.75259604E-09  2.64673769E-07
  2.83699989E-12  2.51777314E-03  9.99993750E-05 -1.11197638E-04 -3.70510429E-10
 -4.32081012E-08  4.31075337E-03  1.95722862E-03 -1.00043624E-08  3.09642980E-07
  5.88353014E-02  3.08943413E-02 -1.57683339E-08 -5.54245278E-07 -5.96995887E-04
 -1.29708606E-04 -1.29637235E-04  1.25359615E-09 -2.11822901E-08 -8.63639671E-10
 -1.36377533E-07 -7.10407783E-06  2.64551623E-05  8.08684699E-11 -8.20599721E-09
 -9.52968243E-06 -1.68673767E-04 -4.52636451E-10  4.93989244E-08 -2.47340215E-04
  7.32325197E-04  1.23702631E-09 -1.61698220E-07  9.24118874E-03  3.02050007E-03
  1.85386566E-08 -7.97964644E-07  3.95616296E-05 -4.08064895E-05 -4.08054384E-05
  3.84781776E-10 -3.32895083E-08 -8.52979097E-11 -1.14195053E-04 -6.28160008E-04
  6.39707531E-04 -1.09132172E-05  1.70676176E-08 -7.27607688E-06 -1.14187438E-04
 -6.28390754E-04  6.40116381E-04 -1.07234219E-05  6.31543758E-06  3.64691592E-06
 -1.14188347E-04 -6.28399150E-04  6.40128630E-04 -1.07302455E-05 -6.33320629E-06
  3.61820058E-06  9.92861251E-01  4.97021599E-02  5.26505228E-04 -4.25311531E-09
  3.14288669E-07 -1.04857253E-02  4.84390812E-03 -9.15245557E-09  2.56856575E-07
 -7.42625512E-02  2.17197037E-02 -5.20320295E-08  9.40143347E-07 -8.35781848E-03
 -9.65551385E-03 -9.65551689E-03 -8.76484145E-09  3.75247971E-07  1.85275461E-10
 -3.98814191E-04  3.82366245E-04  2.04330741E-04 -8.90406918E-10  4.54488200E-08
 -5.83670896E-03  2.29832648E-03 -2.01548113E-08  9.05817656E-07  9.78640044E-03
 -6.51506447E-03  2.89521490E-08 -9.77322815E-07  8.41623957E-05  3.12288833E-04
  3.12289205E-04  3.20735516E-09 -1.48750969E-07 -1.03947254E-11  9.93121075E-01
  5.00057517E-02  6.10716160E-04  1.59129290E-09  1.19879096E-07 -2.17549923E-02
 -3.94367648E-03  1.15010371E-08 -8.74570201E-07  2.99262482E-02  1.82638380E-02
  2.39431807E-08 -8.40733262E-07 -9.21710179E-03 -8.59474202E-03 -8.59467052E-03
  2.02750174E-09  9.07800139E-08  3.91129160E-09  1.13822409E-06  1.99267466E-05
 -2.19026403E-06  3.64863894E-10  2.67367055E-09  5.55405943E-05 -8.48880841E-06
 -2.30889551E-09 -1.41113402E-08 -4.37016800E-04  1.53322637E-04  7.26415964E-09
  3.70507191E-08  6.14259517E-03  2.01971289E-03  1.10101069E-08 -5.37653250E-07
  5.77621363E-05  2.91705165E-05  2.91666644E-05  1.82312162E-09 -3.11335727E-09
  4.26731833E-10 -5.97922037E-05  3.15361806E-03  2.59616343E-04  2.43244232E-05
  3.43588458E-07 -1.47270502E-04 -5.96704211E-05  3.15448577E-03  2.60497600E-04
  2.42894041E-05  1.27329726E-04  7.39583291E-05 -5.96706422E-05  3.15449669E-03
  2.60546282E-04  2.42953785E-05 -1.27669771E-04  7.33656389E-05 -2.70301665E-03
 -1.45228194E-04  1.20252691E-05  2.04251949E-09  1.69868632E-08  3.68362436E-06
 -8.99255794E-03  1.84794649E-08 -1.15983111E-06 -3.97751382E-02  1.08039489E-02
 -5.06538708E-08  4.83249022E-07 -6.54509212E-04 -4.01303397E-05 -4.01078921E-05
  4.00985658E-09 -1.28312372E-07 -8.09422945E-10 -4.53210344E-05 -1.92457966E-04
 -2.19307427E-04  1.30880233E-10 -2.22495161E-08  6.26494832E-03 -2.32216170E-03
  2.70237855E-08 -1.18876272E-06  4.91706008E-03 -2.33328906E-03  2.22940076E-08
 -2.57150492E-07  1.42397455E-04 -1.13782265E-04 -1.13780750E-04 -4.88527625E-09
  2.10288006E-07  6.16365151E-11  4.17468532E-05  1.48911121E-04  2.87818719E-04
 -1.00609637E-09 -6.64023698E-08 -2.96917762E-03 -3.72940957E-03  8.01245913E-09
  4.33151072E-07  9.52076055E-03  1.06876543E-02 -9.18030700E-09 -9.25103494E-07
  4.75108332E-05  8.14678919E-05  8.14577596E-05 -2.64308132E-10 -4.05780298E-08
 -2.86688879E-10 -2.84631470E-01  1.02269788E+00  1.06420619E-04 -2.99094658E-09
 -5.30243234E-08  7.53615372E-02  5.07723786E-04  7.21823052E-11 -6.98426462E-08
 -2.22445033E-02 -1.65477233E-03 -4.39129593E-10  1.94037322E-07  1.63621363E-02
  5.54243097E-03  1.50362215E-09 -6.27074246E-07 -1.56393511E-02 -1.55313881E-02
 -1.55313796E-02 -5.66759061E-10  2.01308161E-08  1.67588776E-11 -6.71036999E-05
 -2.89362169E-04 -2.46331883E-03  4.89140470E-05  5.19481347E-09 -2.52832999E-06
 -6.71059052E-05 -2.89581734E-04 -2.46405678E-03  4.89205598E-05  2.20181451E-06
  1.26133670E-06 -6.71097907E-05 -2.89561636E-04 -2.46416821E-03  4.89121483E-05
 -2.20637753E-06  1.24956792E-06 -3.43271369E-05 -2.03573419E-04 -1.20227437E-05
 -1.97663398E-10 -8.72969204E-09 -7.67067366E-04 -4.83959405E-03  1.86592587E-08
 -6.91962642E-07 -9.67295912E-03  2.63774022E-03 -3.34799110E-08  1.55526825E-06
  4.73913152E-05 -3.15574871E-05 -3.15618492E-05  4.69701135E-10 -2.68976912E-08
  1.61956272E-10 -1.04210754E-04 -4.09594809E-04  6.35213286E-06 -4.08357465E-10
  2.78246641E-08  5.06754471E-03 -1.53236687E-03  1.23109568E-08 -6.32800328E-07
 -1.94633493E-03  6.48028902E-04  7.46203560E-09 -3.56339252E-07 -1.55528508E-04
 -2.14908062E-04 -2.14908717E-04 -1.02212343E-09  5.70898716E-08 -3.61276654E-11
 -1.82259891E-08 -1.04762475E-07  1.03798190E-08  3.15170167E-07 -2.62428795E-05
  6.76095998E-07  2.79632097E-08  6.56946382E-06 -5.45544331E-04  7.92010587E-06
  2.86854877E-06 -4.64753220E-06  3.86275593E-04  2.81524564E-08 -3.38677205E-05
  3.38050633E-05  2.94255424E-08 -2.48252898E-06  1.98256069E-07 -5.35197351E-09
  2.97307551E-08  1.88772643E-04 -1.19250166E-02  9.90730851E-01  1.02066731E-07
  5.67766831E-06 -3.57685909E-04  2.97165272E-02 -2.18548757E-07 -2.23001154E-06
  1.39328331E-04 -1.15752170E-02  8.10887064E-07  1.19420409E-06 -6.19261420E-05
  5.14447698E-03  1.06705993E-08  1.60673173E-06 -1.65407888E-06 -5.37077053E-07
  4.46496737E-05 -8.94442424E-09  1.51949083E-04 -1.26214326E-03  4.71942050E-03
  1.14042664E-04 -1.70691264E-08 -1.27425872E-04 -7.47173922E-05  6.20167317E-04
 -2.32053067E-03 -5.60851532E-05 -6.82608027E-05 -7.18169908E-06 -7.72722040E-05
  6.41407241E-04 -2.39995095E-03 -5.80059000E-05  6.99975091E-05 -8.20150081E-06
  1.73045849E-08  7.48067389E-08 -2.83655352E-08 -6.51959804E-07  5.41776736E-05
 -7.84937661E-08  6.56275983E-07  1.97751891E-06 -1.64425543E-04 -6.69589661E-06
  3.31317798E-06 -1.35631929E-05  1.12700097E-03  2.81884739E-08 -5.07149189E-06
  5.12547671E-06  2.01076570E-07 -1.67026737E-05  3.00663492E-08 -4.62180427E-10
  1.34552445E-08  3.13286563E-10  1.94660691E-07 -1.61966371E-05 -3.52597360E-07
  1.98784978E-07 -1.30416362E-06  1.08475284E-04 -8.16881058E-07 -5.13791992E-07
  4.64574018E-06 -3.86195568E-04 -1.04147987E-08  3.45247114E-06 -3.47334507E-06
  1.86382861E-07 -1.54886231E-05 -2.01897272E-08 -1.71462421E-09 -6.61531713E-09
  1.99258983E-09 -2.62987893E-05 -3.17253365E-07  7.95780419E-08 -2.24402016E-09
 -5.44993326E-04 -6.55686594E-06  1.03393294E-06  4.80252346E-07  3.85759881E-04
  4.64513154E-06 -4.35219825E-09 -1.72527710E-07  1.69016360E-07 -2.53548105E-06
 -3.09739498E-08 -3.90415434E-05 -1.91334163E-09  5.53954116E-09 -1.04255480E-05
  9.90730882E-01  1.19250190E-02 -5.33853641E-09 -3.19782127E-07  2.97164719E-02
  3.57684530E-04  1.49234160E-08  1.38523502E-07 -1.15751021E-02 -1.39322491E-04
  8.87855427E-08 -1.85905933E-08  5.14430897E-03  6.19157059E-05 -1.92675516E-09
  6.12185853E-09 -1.05693227E-08  4.46448284E-05  5.37723687E-07  1.84955150E-06
  1.47743115E-06 -1.22941338E-05  4.58222363E-05  1.10996955E-06  3.22072634E-05
 -1.16517715E-06 -1.32411518E-04  1.09869330E-03 -4.10972260E-03 -9.93291699E-05
 -8.79937233E-05 -6.93720495E-05  1.30934121E-04 -1.08654406E-03  4.06392280E-03
  9.82295830E-05 -8.69778908E-05  6.88195338E-05  1.35012492E-09  5.51393814E-09
  1.95344160E-10  5.41924772E-05  6.52447366E-07 -3.19396081E-08  2.76152991E-08
 -1.64593918E-04 -1.98275332E-06 -1.12172246E-06  3.66435849E-07  1.12683639E-03
  1.35653418E-05  2.10633573E-09 -2.34810248E-08  2.78195666E-08 -1.66797388E-05
 -2.00733009E-07 -5.90232850E-06 -7.37032439E-12  4.78518208E-10 -1.22280094E-10
 -1.61939159E-05 -1.95210980E-07 -1.35039557E-08  8.17397074E-09  1.08484607E-04
  1.30729709E-06  3.61062572E-08 -5.57627678E-08 -3.85922537E-04 -4.64793211E-06
 -1.11185981E-09  1.74523768E-08 -1.76830338E-08 -1.55020555E-05 -1.86639661E-07
  3.99638582E-06 -3.24772982E-05 -2.77618494E-04  2.74840975E-05 -2.53243827E-09
  2.92878507E-08 -1.22422593E-03 -2.73130662E-03  7.02413710E-09 -3.16418245E-07
 -1.04399327E-01 -5.82569528E-02  2.25125843E-08  1.41515000E-06  1.99466646E-04
 -9.65515426E-05 -9.65091576E-05 -1.30805138E-09 -8.32738801E-08 -1.15233750E-09
  7.64963049E-05 -1.25007529E-04  9.90669002E-01  1.26980844E-05 -1.88616136E-04
  4.42959927E-04  3.04474611E-02  3.81910445E-07 -5.77296202E-06 -1.44225794E-03
 -1.38922187E-02 -1.51841175E-07  2.53935042E-06 -1.57773233E-02 -6.25389586E-04
  2.86398663E-08  6.17600799E-07  1.42326885E-04  2.98984101E-04  2.98994630E-04
 -7.79462590E-10  4.72533982E-08  8.51051456E-11 -1.28386749E-04  6.87812429E-04
 -2.99147336E-03 -5.56605940E-05 -2.39562123E-07  1.02653963E-04 -1.28327069E-04
  6.88180048E-04 -2.99199609E-03 -5.56560311E-05 -8.87954906E-05 -5.15155195E-05
 -1.28315528E-04  6.88167030E-04 -2.99192529E-03 -5.56682696E-05  8.90331235E-05
 -5.11027190E-05 -1.26728042E-04 -5.17390678E-04 -2.25833920E-06  1.92876155E-09