RxCoord=-3.39924 DE=19.64                                               
Freq      RB3LYP                                                      6-31++G(d,p)        
Number of atoms                            I                7
Info1-9                                    I   N=           9
          16          16           0           0           0         100
           6          18        -502
Full Title                                 C   N=           3
RxCoord=-3.39924 DE=19.64           
Route                                      C   N=           6
#p b3lyp 6-31++g(d,p) scf=verytight NoSymm freq=noraman int=
ultrafine   
Charge                                     I               -1
Multiplicity                               I                1
Number of electrons                        I               40
Number of alpha electrons                  I               20
Number of beta electrons                   I               20
Number of basis functions                  I               98
Number of independent functions            I               98
Number of point charges in /Mol/           I                0
Number of translation vectors              I                0
Atomic numbers                             I   N=           7
           6          17           1           1           1           6
           7
Nuclear charges                            R   N=           7
  6.00000000E+00  1.70000000E+01  1.00000000E+00  1.00000000E+00  1.00000000E+00
  6.00000000E+00  7.00000000E+00
Current cartesian coordinates              R   N=          21
  8.94035099E-01  1.13383567E-05 -4.64872627E-04 -4.27021601E+00 -1.88972612E-06
  2.02200695E-04  3.11670640E-01  4.57313722E-03 -1.96726159E+00  3.12090159E-01
  1.70099918E+00  9.87087103E-01  3.12061813E-01 -1.70554775E+00  9.79159702E-01
  4.09383843E+00  3.77945225E-06 -3.47709607E-04  6.32196159E+00 -9.44863062E-06
  2.64561657E-04
Number of symbols in /Mol/                 I                0
Force Field                                I                0
Atom Types                                 C   N=           7
                                                            
                        
Int Atom Types                             I   N=           7
           0           0           0           0           0           0
           0
MM charges                                 R   N=           7
  0.00000000E+00  0.00000000E+00  0.00000000E+00  0.00000000E+00  0.00000000E+00
  0.00000000E+00  0.00000000E+00
Integer atomic weights                     I   N=           7
          12          35           1           1           1          12
          14
Real atomic weights                        R   N=           7
  1.20000000E+01  3.49688527E+01  1.00782504E+00  1.00782504E+00  1.00782504E+00
  1.20000000E+01  1.40030740E+01
Atom fragment info                         I   N=           7
           0           0           0           0           0           0
           0
Atom residue num                           I   N=           7
           0           0           0           0           0           0
           0
Nuclear spins                              I   N=           7
           0           3           1           1           1           0
           2
Nuclear ZEff                               R   N=           7
 -3.60000000E+00 -1.42400000E+01 -1.00000000E+00 -1.00000000E+00 -1.00000000E+00
 -3.60000000E+00 -4.55000000E+00
Nuclear ZNuc                               R   N=           7
  6.00000000E+00  1.70000000E+01  1.00000000E+00  1.00000000E+00  1.00000000E+00
  6.00000000E+00  7.00000000E+00
Nuclear QMom                               R   N=           7
  0.00000000E+00 -8.16500000E+00  0.00000000E+00  0.00000000E+00  0.00000000E+00
  0.00000000E+00  2.04400000E+00
Nuclear GFac                               R   N=           7
  0.00000000E+00  8.21874000E-01  2.79284600E+00  2.79284600E+00  2.79284600E+00
  0.00000000E+00  4.03761000E-01
MicOpt                                     I   N=           7
          -1          -1          -1          -1          -1          -1
          -1
Number of residues                         I                0
Number of secondary structures             I                0
Number of contracted shells                I               33
Number of primitive shells                 I               72
Pure/Cartesian d shells                    I                1
Pure/Cartesian f shells                    I                0
Highest angular momentum                   I                2
Largest degree of contraction              I                6
Shell types                                I   N=          33
           0          -1          -1          -1           2           0
          -1          -1          -1          -1           2           0
           0           0           1           0           0           0
           1           0           0           0           1           0
          -1          -1          -1           2           0          -1
          -1          -1           2
Number of primitives per shell             I   N=          33
           6           3           1           1           1           6
           6           3           1           1           1           3
           1           1           1           3           1           1
           1           3           1           1           1           6
           3           1           1           1           6           3
           1           1           1
Shell to atom map                          I   N=          33
           1           1           1           1           1           2
           2           2           2           2           2           3
           3           3           3           4           4           4
           4           5           5           5           5           6
           6           6           6           6           7           7
           7           7           7
Primitive exponents                        R   N=          72
  3.04752488E+03  4.57369518E+02  1.03948685E+02  2.92101553E+01  9.28666296E+00
  3.16392696E+00  7.86827235E+00  1.88128854E+00  5.44249258E-01  1.68714478E-01
  4.38000000E-02  8.00000000E-01  2.51801000E+04  3.78035000E+03  8.60474000E+02
  2.42145000E+02  7.73349000E+01  2.62470000E+01  4.91765000E+02  1.16984000E+02
  3.74153000E+01  1.37834000E+01  5.45215000E+00  2.22588000E+00  3.18649000E+00
  1.14427000E+00  4.20377000E-01  1.42657000E-01  4.83000000E-02  7.50000000E-01
  1.87311370E+01  2.82539436E+00  6.40121692E-01  1.61277759E-01  3.60000000E-02
  1.10000000E+00  1.87311370E+01  2.82539436E+00  6.40121692E-01  1.61277759E-01
  3.60000000E-02  1.10000000E+00  1.87311370E+01  2.82539436E+00  6.40121692E-01
  1.61277759E-01  3.60000000E-02  1.10000000E+00  3.04752488E+03  4.57369518E+02
  1.03948685E+02  2.92101553E+01  9.28666296E+00  3.16392696E+00  7.86827235E+00
  1.88128854E+00  5.44249258E-01  1.68714478E-01  4.38000000E-02  8.00000000E-01
  4.17351146E+03  6.27457911E+02  1.42902093E+02  4.02343293E+01  1.28202129E+01
  4.39043701E+00  1.16263619E+01  2.71627981E+00  7.72218397E-01  2.12031498E-01
  6.39000000E-02  8.00000000E-01
Contraction coefficients                   R   N=          72
  1.83473713E-03  1.40373228E-02  6.88426223E-02  2.32184443E-01  4.67941348E-01
  3.62311985E-01 -1.19332420E-01 -1.60854152E-01  1.14345644E+00  1.00000000E+00
  1.00000000E+00  1.00000000E+00  1.83295985E-03  1.40341988E-02  6.90973943E-02
  2.37451980E-01  4.83033960E-01  3.39855972E-01 -2.29739142E-03 -3.07137189E-02
 -1.12528069E-01  4.50163278E-02  5.89353363E-01  4.65206287E-01 -2.51828028E-01
  6.15892514E-02  1.06018433E+00  1.00000000E+00  1.00000000E+00  1.00000000E+00
  3.34946043E-02  2.34726953E-01  8.13757326E-01  1.00000000E+00  1.00000000E+00
  1.00000000E+00  3.34946043E-02  2.34726953E-01  8.13757326E-01  1.00000000E+00
  1.00000000E+00  1.00000000E+00  3.34946043E-02  2.34726953E-01  8.13757326E-01
  1.00000000E+00  1.00000000E+00  1.00000000E+00  1.83473713E-03  1.40373228E-02
  6.88426223E-02  2.32184443E-01  4.67941348E-01  3.62311985E-01 -1.19332420E-01
 -1.60854152E-01  1.14345644E+00  1.00000000E+00  1.00000000E+00  1.00000000E+00
  1.83477216E-03  1.39946270E-02  6.85865518E-02  2.32240873E-01  4.69069948E-01
  3.60455199E-01 -1.14961182E-01 -1.69117479E-01  1.14585195E+00  1.00000000E+00
  1.00000000E+00  1.00000000E+00
P(S=P) Contraction coefficients            R   N=          72
  0.00000000E+00  0.00000000E+00  0.00000000E+00  0.00000000E+00  0.00000000E+00
  0.00000000E+00  6.89990666E-02  3.16423961E-01  7.44308291E-01  1.00000000E+00
  1.00000000E+00  0.00000000E+00  0.00000000E+00  0.00000000E+00  0.00000000E+00
  0.00000000E+00  0.00000000E+00  0.00000000E+00  3.98940088E-03  3.03177067E-02
  1.29880029E-01  3.27951072E-01  4.53527100E-01  2.52154056E-01 -1.42993147E-02
  3.23572333E-01  7.43507765E-01  1.00000000E+00  1.00000000E+00  0.00000000E+00
  0.00000000E+00  0.00000000E+00  0.00000000E+00  0.00000000E+00  0.00000000E+00
  0.00000000E+00  0.00000000E+00  0.00000000E+00  0.00000000E+00  0.00000000E+00
  0.00000000E+00  0.00000000E+00  0.00000000E+00  0.00000000E+00  0.00000000E+00
  0.00000000E+00  0.00000000E+00  0.00000000E+00  0.00000000E+00  0.00000000E+00
  0.00000000E+00  0.00000000E+00  0.00000000E+00  0.00000000E+00  6.89990666E-02
  3.16423961E-01  7.44308291E-01  1.00000000E+00  1.00000000E+00  0.00000000E+00
  0.00000000E+00  0.00000000E+00  0.00000000E+00  0.00000000E+00  0.00000000E+00
  0.00000000E+00  6.75797439E-02  3.23907296E-01  7.40895140E-01  1.00000000E+00
  1.00000000E+00  0.00000000E+00
Coordinates of each shell                  R   N=          99
  8.94035099E-01  1.13383567E-05 -4.64872627E-04  8.94035099E-01  1.13383567E-05
 -4.64872627E-04  8.94035099E-01  1.13383567E-05 -4.64872627E-04  8.94035099E-01
  1.13383567E-05 -4.64872627E-04  8.94035099E-01  1.13383567E-05 -4.64872627E-04
 -4.27021601E+00 -1.88972612E-06  2.02200695E-04 -4.27021601E+00 -1.88972612E-06
  2.02200695E-04 -4.27021601E+00 -1.88972612E-06  2.02200695E-04 -4.27021601E+00
 -1.88972612E-06  2.02200695E-04 -4.27021601E+00 -1.88972612E-06  2.02200695E-04
 -4.27021601E+00 -1.88972612E-06  2.02200695E-04  3.11670640E-01  4.57313722E-03
 -1.96726159E+00  3.11670640E-01  4.57313722E-03 -1.96726159E+00  3.11670640E-01
  4.57313722E-03 -1.96726159E+00  3.11670640E-01  4.57313722E-03 -1.96726159E+00
  3.12090159E-01  1.70099918E+00  9.87087103E-01  3.12090159E-01  1.70099918E+00
  9.87087103E-01  3.12090159E-01  1.70099918E+00  9.87087103E-01  3.12090159E-01
  1.70099918E+00  9.87087103E-01  3.12061813E-01 -1.70554775E+00  9.79159702E-01
  3.12061813E-01 -1.70554775E+00  9.79159702E-01  3.12061813E-01 -1.70554775E+00
  9.79159702E-01  3.12061813E-01 -1.70554775E+00  9.79159702E-01  4.09383843E+00
  3.77945225E-06 -3.47709607E-04  4.09383843E+00  3.77945225E-06 -3.47709607E-04
  4.09383843E+00  3.77945225E-06 -3.47709607E-04  4.09383843E+00  3.77945225E-06
 -3.47709607E-04  4.09383843E+00  3.77945225E-06 -3.47709607E-04  6.32196159E+00
 -9.44863062E-06  2.64561657E-04  6.32196159E+00 -9.44863062E-06  2.64561657E-04
  6.32196159E+00 -9.44863062E-06  2.64561657E-04  6.32196159E+00 -9.44863062E-06
  2.64561657E-04  6.32196159E+00 -9.44863062E-06  2.64561657E-04
Num ILSW                                   I              100
ILSW                                       I   N=         100
           0           1           0           0           2           0
           0           0           0           0         402          -1
           5           0           0           0           2           0
           0           0           0           0           1           0
           1           1           0           0           0           0
           0           0      100000           0          -1           0
           0           0           0           0           0           0
           0           0           0           1           0           0
           0 -2000000000           1           0           0           0
           0           0           4          52           0           0
           0           0           5           0           0           0
           0           0           0           7           0           1
           0           0           0           0           0           0
           0           0           0           0           0           0
           0           0           0           0           0           0
           0           0           0           0           0           0
           0           0           0           0
Num RLSW                                   I               52
RLSW                                       R   N=          52
  8.00000000E-01  7.20000000E-01  1.00000000E+00  8.10000000E-01  2.00000000E-01
  0.00000000E+00  0.00000000E+00  1.00000000E+00  0.00000000E+00  0.00000000E+00
  0.00000000E+00  0.00000000E+00  1.00000000E+00  0.00000000E+00  0.00000000E+00
  0.00000000E+00  0.00000000E+00  1.00000000E+00  0.00000000E+00  0.00000000E+00
  0.00000000E+00  0.00000000E+00  1.00000000E+00  0.00000000E+00  0.00000000E+00
  0.00000000E+00  0.00000000E+00  1.00000000E+00  0.00000000E+00  0.00000000E+00
  0.00000000E+00  0.00000000E+00  1.00000000E+00  0.00000000E+00  0.00000000E+00
  0.00000000E+00  0.00000000E+00  0.00000000E+00  1.00000000E+00  1.00000000E+00
  0.00000000E+00  1.00000000E+00  0.00000000E+00  0.00000000E+00  0.00000000E+00
  0.00000000E+00  0.00000000E+00  0.00000000E+00  0.00000000E+00  0.00000000E+00
  0.00000000E+00  0.00000000E+00
MxBond                                     I                4
NBond                                      I   N=           7
           4           0           1           1           1           2
           1
IBond                                      I   N=          28
           3           4           5           6           0           0
           0           0           1           0           0           0
           1           0           0           0           1           0
           0           0           1           7           0           0
           6           0           0           0
RBond                                      R   N=          28
  1.00000000E+00  1.00000000E+00  1.00000000E+00  1.00000000E+00  0.00000000E+00
  0.00000000E+00  0.00000000E+00  0.00000000E+00  1.00000000E+00  0.00000000E+00
  0.00000000E+00  0.00000000E+00  1.00000000E+00  0.00000000E+00  0.00000000E+00
  0.00000000E+00  1.00000000E+00  0.00000000E+00  0.00000000E+00  0.00000000E+00
  1.00000000E+00  2.00000000E+00  0.00000000E+00  0.00000000E+00  2.00000000E+00
  0.00000000E+00  0.00000000E+00  0.00000000E+00
Virial Ratio                               R      2.005002717414755E+00
SCF Energy                                 R     -5.930353856838846E+02
Total Energy                               R     -5.930353856838846E+02
RMS Force                                  R      1.793347785516488E-02
RMS Density                                R      2.089318725160771E-09
NImag                                      I                0
Job Status                                 I                1
Nuclear derivative order                   I                2
External E-field                           R   N=          35
  0.00000000E+00  0.00000000E+00  0.00000000E+00  0.00000000E+00  0.00000000E+00
  0.00000000E+00  0.00000000E+00  0.00000000E+00  0.00000000E+00  0.00000000E+00
  0.00000000E+00  0.00000000E+00  0.00000000E+00  0.00000000E+00  0.00000000E+00
  0.00000000E+00  0.00000000E+00  0.00000000E+00  0.00000000E+00  0.00000000E+00
  0.00000000E+00  0.00000000E+00  0.00000000E+00  0.00000000E+00  0.00000000E+00
  0.00000000E+00  0.00000000E+00  0.00000000E+00  0.00000000E+00  0.00000000E+00
  0.00000000E+00  0.00000000E+00  0.00000000E+00  0.00000000E+00  0.00000000E+00
IOpCl                                      I                0
IROHF                                      I                0
Alpha Orbital Energies                     R   N=          98
 -1.01260851E+02 -1.42183878E+01 -1.01136734E+01 -1.00999162E+01 -9.17528377E+00
 -6.93299655E+00 -6.93299650E+00 -6.93293173E+00 -7.72728821E-01 -5.97002656E-01
 -5.15982995E-01 -3.38869454E-01 -3.03820824E-01 -3.03810289E-01 -2.40018425E-01
 -2.07641187E-01 -2.07637973E-01 -6.16638484E-02 -6.16636830E-02 -5.95614984E-02
  1.06649770E-01  1.46566468E-01  1.46619369E-01  1.46628206E-01  1.52455887E-01
  1.52458088E-01  2.02161396E-01  2.07947545E-01  2.10352636E-01  2.10354327E-01
  2.40041574E-01  2.40056078E-01  2.44964466E-01  2.60612795E-01  2.60614981E-01
  2.64126121E-01  3.14632541E-01  3.40811086E-01  3.40815418E-01  3.47387834E-01
  3.47402264E-01  3.51320616E-01  3.91626343E-01  4.22545962E-01  4.80738757E-01
  7.18783197E-01  7.88287617E-01  7.88287964E-01  8.35487240E-01  8.35514220E-01
  8.49303516E-01  8.60288492E-01  8.60294578E-01  8.84598738E-01  9.77499697E-01
  1.00794979E+00  1.04053147E+00  1.04054073E+00  1.11201470E+00  1.12220589E+00
  1.12221998E+00  1.14555699E+00  1.14556251E+00  1.16913930E+00  1.16914815E+00
  1.24009170E+00  1.25263959E+00  1.35765077E+00  1.50475520E+00  1.50475718E+00
  1.52021786E+00  1.65473028E+00  1.65473059E+00  1.79405516E+00  1.79409021E+00
  1.86015057E+00  2.07379896E+00  2.07380036E+00  2.12701858E+00  2.14843971E+00
  2.21907051E+00  2.21916158E+00  2.44551686E+00  2.44556067E+00  2.78360479E+00
  2.78368303E+00  2.79722169E+00  2.94449038E+00  2.99514369E+00  2.99517885E+00
  3.20574881E+00  3.45593227E+00  3.55278277E+00  3.55285634E+00  4.20981576E+00
  4.38254650E+00  4.58082335E+00  4.69467893E+00
Alpha MO coefficients                      R   N=        9604
 -2.39503141E-06  1.38729212E-05  2.63632358E-05  2.59323497E-10 -4.56165899E-09
 -7.66812600E-05 -2.19414430E-04 -9.12846381E-10  2.91688658E-08  7.62891648E-04
  5.13329710E-04  1.53363938E-10  7.47030360E-11 -3.39427999E-05 -7.34090479E-06
 -7.34287235E-06  2.46854468E-10  1.55458726E-10  2.72216963E-11  9.95997655E-01
  1.51457693E-02  2.49784994E-06 -4.81701111E-11 -3.20460252E-10 -2.10620805E-02
 -3.30299112E-06  1.37149288E-10  8.45713260E-11  1.92514312E-03 -1.76796426E-05
 -3.89912820E-10  4.00386028E-09 -1.94126397E-04  3.24961613E-05  6.13729772E-10
 -1.73184598E-08  7.50382843E-03  7.51712566E-03  7.51712567E-03 -5.94605303E-11
  1.76958699E-09 -2.93689682E-12 -1.10834676E-05 -5.49429459E-05  7.95746860E-05
  2.47704772E-05  2.31682689E-08 -9.92697436E-06 -1.10853356E-05 -5.49599891E-05
  7.95886287E-05  2.47695848E-05  8.58439124E-06  4.97915304E-06 -1.10869668E-05
 -5.49595570E-05  7.95903739E-05  2.47697089E-05 -8.60728386E-06  4.93922227E-06
 -2.82780646E-06 -1.64732797E-05  5.56241829E-06 -6.61173098E-11  2.02307303E-10
 -1.38175920E-04 -3.72470102E-04  2.06018797E-09 -6.27094897E-08 -1.22952565E-03
  2.79514863E-04 -9.47670532E-10  2.16148423E-09 -2.07659046E-07 -3.24655513E-06
 -3.24696592E-06  3.20349274E-11 -4.76384213E-09  1.98773702E-11 -5.03327111E-06
 -2.29596472E-05  1.40295639E-06 -1.03504033E-11  3.22945288E-09  3.31312033E-04
 -1.38793076E-04  8.44325264E-10 -5.49923789E-08  2.57044501E-04 -7.81317908E-05
  5.02312422E-10 -1.71525153E-08 -1.39498985E-06 -1.07920781E-05 -1.07920564E-05
 -5.91423947E-11  5.07811085E-09 -1.59765215E-12 -8.62965058E-06 -1.98834447E-04
  6.45789292E-05 -2.11490701E-10  1.80157795E-10  6.49080917E-04  4.49941247E-04
 -6.09404487E-10 -3.19661339E-08  7.16757552E-03  2.70652955E-03 -3.21392165E-09
 -9.14090392E-08  2.17656099E-04 -9.58407920E-06 -9.57067019E-06 -2.32081740E-10
 -7.23414830E-09  6.09906801E-11 -4.32041885E-08 -3.25945644E-06  2.52722945E-06
  1.30468833E-11 -1.14438996E-09 -5.41185413E-06 -1.87060955E-05 -7.83683350E-11
  6.99069501E-09 -3.94065674E-07  8.95626227E-05  2.99208069E-10 -2.55134619E-08
  6.63346094E-04  1.74278308E-04  7.48543105E-10 -1.67289456E-08  9.15895942E-06
 -1.17990239E-05 -1.17988689E-05  4.44612632E-11 -4.15905908E-09 -1.46754348E-11
  4.82670086E-06 -1.05015618E-04 -1.20341184E-04 -1.07828994E-05 -1.90294717E-08
  8.18296696E-06  4.83265999E-06 -1.04974046E-04 -1.20510169E-04 -1.07749068E-05
 -7.08557461E-06 -4.10980913E-06  4.83329589E-06 -1.04974439E-04 -1.20514194E-04
 -1.07745343E-05  7.10437053E-06 -4.07671380E-06  8.48447626E-05  3.08831100E-04
 -4.66150398E-04  2.52273487E-09 -1.16038462E-07  2.53758556E-04  8.19192383E-04
 -1.85856331E-09  5.32848482E-08 -5.44221877E-03  3.75492171E-03 -1.52509512E-08
  5.18926748E-07 -1.02621490E-03  9.91080683E-06  9.91050647E-06  6.55307926E-09
 -2.95250381E-07  3.38489983E-11  9.92760613E-01  3.45057024E-02 -1.86120631E-03
  1.20708727E-08 -5.41848555E-07  3.86805339E-03  7.75120501E-04 -5.99925618E-09
  2.69956954E-07 -3.21083496E-03 -4.50023050E-04  1.70800537E-09 -2.50290065E-08
 -7.49050009E-03 -8.32810803E-03 -8.32810923E-03 -5.64132083E-09  2.62231742E-07
 -3.37640526E-12  2.85140534E-03  1.13843857E-04 -7.80342326E-05 -5.94911228E-11
 -3.36728405E-08  3.90816783E-03  1.83492655E-03 -1.43906867E-08  2.46508389E-07
  5.35938611E-02  2.96686656E-02 -2.26446436E-08 -5.88543879E-07 -5.32649494E-04
 -1.24497740E-04 -1.24445047E-04  1.61716022E-09 -1.54345705E-08 -5.36971696E-10
 -8.61680777E-08 -6.41161970E-06  2.61345785E-05  1.14781408E-10 -8.33791362E-09
 -6.92437533E-06 -1.66971246E-04 -6.52310721E-10  5.00187305E-08 -2.61997385E-04
  7.29622199E-04  1.81208419E-09 -1.62376542E-07  9.40251814E-03  3.05502008E-03
  2.22302885E-08 -8.30399614E-07  4.06561647E-05 -3.96211422E-05 -3.96207425E-05
  5.40464478E-10 -3.33741386E-08 -9.84786054E-11 -1.09929422E-04 -6.17670945E-04
  6.21028109E-04 -1.26387185E-05  2.22523405E-08 -9.38137720E-06 -1.09917367E-04
 -6.17851489E-04  6.21473376E-04 -1.24829499E-05  8.12939707E-06  4.70516903E-06
 -1.09918704E-04 -6.17863546E-04  6.21478196E-04 -1.24888223E-05 -8.15218616E-06
  4.66843061E-06  9.92862691E-01  4.96448529E-02  5.65990250E-04 -4.16026953E-09
  3.14491360E-07 -1.04350649E-02  4.44129244E-03 -1.00229207E-08  2.36221520E-07
 -6.91194579E-02  2.03786865E-02 -7.15241071E-08  9.92118114E-07 -8.41685592E-03
 -9.64493183E-03 -9.64493463E-03 -8.58130862E-09  3.70614356E-07  1.81716756E-10
 -3.97552578E-04  3.77359502E-04  1.93063403E-04 -6.20274035E-10  4.15649788E-08
 -5.54407124E-03  2.17059046E-03 -1.93649128E-08  8.61758602E-07  9.82524762E-03
 -6.40432135E-03  3.62674709E-08 -1.03172281E-06  9.44279035E-05  3.06393051E-04
  3.06393473E-04  2.72187235E-09 -1.36065061E-07 -1.54314986E-11  9.93129880E-01
  4.99360610E-02  5.95414146E-04 -2.23802575E-10  4.96868748E-08 -2.13370640E-02
 -3.84065236E-03  2.71953306E-08 -5.35863059E-07  2.66449533E-02  1.71312032E-02
  3.18029983E-08 -6.00196671E-07 -9.25543746E-03 -8.55920744E-03 -8.55917112E-03
  2.48149109E-09  7.44821550E-08  5.55287996E-09  9.35428910E-07  1.86760844E-05
 -3.03809136E-06  3.88465840E-10  1.72663905E-09  4.56366404E-05 -6.59197490E-06
 -2.47173008E-09 -7.31481060E-09 -4.11695711E-04  1.63862871E-04  7.81313545E-09
  6.60950603E-09  6.05068218E-03  1.96282094E-03  1.22047866E-08 -5.45908363E-07
  6.51374393E-05  2.63983695E-05  2.63982551E-05  1.99633442E-09 -1.04963210E-08
  4.41742716E-10 -7.12825937E-05  3.14469579E-03  2.17387588E-04  2.37563125E-05
  3.61961572E-07 -1.55489385E-04 -7.12113502E-05  3.14525871E-03  2.17950014E-04
  2.37293269E-05  1.34443724E-04  7.80699789E-05 -7.12093523E-05  3.14528732E-03
  2.18011288E-04  2.37356411E-05 -1.34802050E-04  7.74431748E-05 -3.02709678E-03
 -1.75105867E-04 -7.09251658E-06  2.36685995E-09  1.38909230E-08 -4.28414820E-04
 -8.85839559E-03  1.85709552E-08 -1.22776307E-06 -3.61752931E-02  9.94625625E-03
 -6.41621381E-08  4.56360138E-07 -5.87909214E-04 -3.70387931E-05 -3.70198956E-05
  4.33404501E-09 -1.25370274E-07 -7.70516095E-10 -5.04029653E-05 -2.20183167E-04
 -2.02655983E-04  7.10634754E-11 -1.64218479E-08  6.36928689E-03 -2.38242665E-03
  2.61592877E-08 -1.19102533E-06  4.77479240E-03 -2.23516597E-03  2.72721395E-08
 -2.67300272E-07  1.27748970E-04 -1.21676316E-04 -1.21675200E-04 -4.57320049E-09
  2.02880268E-07  6.83821630E-11  3.85639390E-05  1.20459790E-04  2.89241984E-04
 -1.10044580E-09 -5.61451584E-08 -2.62598692E-03 -3.56898308E-03  8.55849395E-09
  3.29792631E-07  9.60043117E-03  1.12182231E-02 -1.27971281E-08 -1.03606908E-06
  7.12955567E-05  7.70095969E-05  7.69987740E-05  4.23554279E-11 -3.56943314E-08
 -2.02756928E-10 -2.84631036E-01  1.02269908E+00  1.38441058E-04 -2.96671937E-09
 -6.53558260E-08  7.53756788E-02  5.08952985E-04  1.23534059E-10 -6.97227777E-08
 -2.23040031E-02 -1.66161244E-03 -6.45649477E-10  1.96620474E-07  1.67919243E-02
  5.68853689E-03  3.01273524E-09 -6.54235973E-07 -1.56366345E-02 -1.55304070E-02
 -1.55304026E-02 -6.25869507E-10  2.03817819E-08  5.31405905E-11 -6.55630141E-05
 -2.72572662E-04 -2.40804316E-03  4.39880689E-05 -5.11505839E-09  1.89523136E-06
 -6.55792250E-05 -2.72618113E-04 -2.40897251E-03  4.39681968E-05 -1.63689272E-06
 -9.59241739E-07 -6.55824568E-05 -2.72599462E-04 -2.40909832E-03  4.39591041E-05
  1.64251106E-06 -9.53117479E-07 -3.11007228E-05 -1.85904360E-04 -1.02830825E-05
 -3.33290107E-10 -9.91257092E-09 -9.18241399E-04 -4.50728224E-03  1.98923657E-08
 -6.46857983E-07 -1.03801623E-02  3.01631726E-03 -4.21929830E-08  1.60243709E-06
  4.77053113E-05 -2.77414224E-05 -2.77442686E-05  3.39262752E-10 -2.71471162E-08
  1.47215966E-10 -1.01243967E-04 -3.96259206E-04  5.58652057E-06 -1.83244183E-10
  2.76031245E-08  4.84203512E-03 -1.45832164E-03  1.02541635E-08 -6.09834290E-07
 -1.90053447E-03  5.53737282E-04  1.02499048E-08 -3.71656916E-07 -1.52114464E-04
 -2.09963130E-04 -2.09964197E-04 -8.19146632E-10  5.57508833E-08 -3.39056682E-11
 -1.18800854E-08 -7.53901337E-08 -7.39511321E-10  2.31181387E-07 -2.75580757E-05
  4.82822065E-07  1.85818025E-07  4.35536242E-06 -5.16765101E-04  1.11083471E-05
  5.27966795E-06 -3.22607517E-06  3.83477828E-04  2.88851136E-08 -3.29284524E-05
  3.28913475E-05  8.74219622E-08 -1.04574358E-05  5.56084241E-08 -8.69804898E-09
  3.89834290E-08  1.71344219E-04 -8.34216446E-03  9.90767417E-01  8.75877384E-08
  5.13524413E-06 -2.50226402E-04  2.97183722E-02 -1.96908346E-07 -1.94225797E-06
  9.74954297E-05 -1.15788332E-02  1.69383297E-06  1.40459407E-06 -4.33737041E-05
  5.15070903E-03  1.49686944E-08  1.57876355E-06 -1.63653397E-06 -3.98660295E-07
  4.73856039E-05 -2.23863679E-09  1.51883034E-04 -1.24495343E-03  4.69966332E-03
  1.20097726E-04  9.94112778E-08 -1.25009307E-04 -7.51502050E-05  6.15782297E-04
 -2.32521509E-03 -5.94495561E-05 -6.71316342E-05 -7.54470324E-06 -7.67519792E-05
  6.28940881E-04 -2.37486922E-03 -6.07201727E-05  6.82169895E-05 -8.05362216E-06
  2.07872620E-08  8.80511798E-08 -2.68546079E-08 -4.56821162E-07  5.42835158E-05
 -1.25060084E-07  7.33305452E-07  1.46101850E-06 -1.73772384E-04 -1.17687043E-05
  4.84303977E-06 -9.40737777E-06  1.11729305E-03  3.66866625E-08 -4.61388601E-06
  4.67821830E-06  1.31226029E-07 -1.55734536E-05  8.00127857E-09  3.40429162E-09
  2.80892473E-08  1.67480461E-10  1.40541122E-07 -1.67198971E-05 -4.91068569E-07
  2.39896681E-07 -9.41120799E-07  1.11931603E-04 -3.51088718E-07 -8.35535674E-07
  3.22856431E-06 -3.83560724E-04 -6.81463038E-09  3.40363637E-06 -3.40752838E-06
  1.33966434E-07 -1.59218232E-05 -5.64405076E-09 -1.41730429E-09 -3.44944417E-09
  2.44466498E-09 -2.75834886E-05 -2.33106845E-07  8.09035952E-08  1.26170187E-08
 -5.16507765E-04 -4.34467438E-06  1.76942161E-06  9.54648054E-07  3.83313974E-04
  3.23021570E-06 -7.38550101E-09 -4.79601888E-08  4.62637029E-08 -1.04822906E-05
 -8.88873393E-08 -3.79840915E-05 -2.79167659E-09  7.48479348E-09 -2.00785349E-05
  9.90767438E-01  8.34216825E-03 -9.32161515E-09 -6.15822797E-07  2.97183482E-02
  2.50225064E-04  2.67415129E-08  2.70539865E-07 -1.15787981E-02 -9.74896003E-05
  2.32031145E-07 -1.60859633E-08  5.15067998E-03  4.33629677E-05 -3.45011690E-09
 -2.05427637E-09 -6.90473210E-09  4.73786723E-05  3.99245007E-07  1.82190902E-06
  9.28159032E-07 -7.63481620E-06  2.86675931E-05  7.35557520E-07  3.12587576E-05
 -6.93245750E-07 -1.32032458E-04  1.08172754E-03 -4.08441721E-03 -1.04400547E-04
 -8.61764018E-05 -6.78919443E-05  1.31107173E-04 -1.07425956E-03  4.05586178E-03
  1.03678770E-04 -8.56733055E-05  6.74022899E-05  2.17585078E-09  8.75570144E-09
  4.81470038E-10  5.42985261E-05  4.57429914E-07 -5.92773254E-08  3.41376310E-08
 -1.73888532E-04 -1.46625388E-06 -2.12322692E-06  6.74179284E-07  1.11720384E-03
  9.40693186E-06  3.37452099E-09 -2.98866289E-09  1.00941875E-08 -1.55601819E-05
 -1.30915690E-07 -5.37927224E-06  1.22117630E-10  1.07208036E-09 -2.01245832E-10
 -1.67143517E-05 -1.40971853E-07 -1.89041665E-08  9.24779266E-09  1.11923913E-04
  9.43726016E-07  1.08176199E-07 -1.11030493E-07 -3.83348018E-04 -3.22875353E-06
 -1.16664330E-09  5.05942913E-09 -4.88023345E-09 -1.59321740E-05 -1.34241756E-07
  3.92973151E-06 -3.15622434E-05 -2.97427879E-04 -9.34444146E-06 -3.16998801E-09
  3.87166629E-08 -9.35202977E-04 -2.45805906E-03  6.82526999E-09 -3.33706109E-07
 -9.87668205E-02 -5.81421828E-02  3.21025076E-08  1.40177229E-06  2.39332726E-04
 -9.38949166E-05 -9.38568412E-05 -1.70824351E-09 -8.05371838E-08 -1.27329076E-09
  8.58592847E-05 -1.63236511E-04  9.90664898E-01  2.15228772E-05 -1.71147014E-04
  4.40289196E-04  3.04614705E-02  6.46934332E-07 -5.25544965E-06 -1.37007737E-03
 -1.39103455E-02 -2.55745909E-07  2.35220198E-06 -1.67425377E-02 -9.19509450E-04
  6.56975041E-08  8.24863795E-07  1.41242681E-04  2.90009107E-04  2.90018528E-04
 -6.27291473E-10  5.01827443E-08  1.16561092E-10 -1.20887888E-04  7.44643787E-04
 -3.03466293E-03 -6.85671693E-05 -2.57995799E-07  1.10696515E-04 -1.20814350E-04
  7.45095323E-04 -3.03533168E-03 -6.86204202E-05 -9.57648764E-05 -5.55486192E-05
 -1.20798169E-04  7.45065732E-04 -3.03518927E-03 -6.86315730E-05  9.60198855E-05
 -5.51025288E-05 -1.22155777E-04 -4.92577697E-04 -5.88664187E-06  1.64945085E-09