RxCoord=-3.29926 DE=21.26                                               
Freq      RB3LYP                                                      6-31++G(d,p)        
Number of atoms                            I                7
Info1-9                                    I   N=           9
          16          16           0           0           0         100
           6          18        -502
Full Title                                 C   N=           3
RxCoord=-3.29926 DE=21.26           
Route                                      C   N=           6
#p b3lyp 6-31++g(d,p) scf=verytight NoSymm freq=noraman int=
ultrafine   
Charge                                     I               -1
Multiplicity                               I                1
Number of electrons                        I               40
Number of alpha electrons                  I               20
Number of beta electrons                   I               20
Number of basis functions                  I               98
Number of independent functions            I               98
Number of point charges in /Mol/           I                0
Number of translation vectors              I                0
Atomic numbers                             I   N=           7
           6          17           1           1           1           6
           7
Nuclear charges                            R   N=           7
  6.00000000E+00  1.70000000E+01  1.00000000E+00  1.00000000E+00  1.00000000E+00
  6.00000000E+00  7.00000000E+00
Current cartesian coordinates              R   N=          21
  8.69359055E-01  1.13383567E-05 -4.64872627E-04 -4.26774236E+00 -1.88972612E-06
  2.04090421E-04  3.02414761E-01  4.58069613E-03 -1.97083884E+00  3.02777589E-01
  1.70409644E+00  9.88836989E-01  3.02751133E-01 -1.70865257E+00  9.80896360E-01
  4.10268045E+00  3.77945225E-06 -3.49599333E-04  6.33136297E+00 -9.44863062E-06
  2.68341110E-04
Number of symbols in /Mol/                 I                0
Force Field                                I                0
Atom Types                                 C   N=           7
                                                            
                        
Int Atom Types                             I   N=           7
           0           0           0           0           0           0
           0
MM charges                                 R   N=           7
  0.00000000E+00  0.00000000E+00  0.00000000E+00  0.00000000E+00  0.00000000E+00
  0.00000000E+00  0.00000000E+00
Integer atomic weights                     I   N=           7
          12          35           1           1           1          12
          14
Real atomic weights                        R   N=           7
  1.20000000E+01  3.49688527E+01  1.00782504E+00  1.00782504E+00  1.00782504E+00
  1.20000000E+01  1.40030740E+01
Atom fragment info                         I   N=           7
           0           0           0           0           0           0
           0
Atom residue num                           I   N=           7
           0           0           0           0           0           0
           0
Nuclear spins                              I   N=           7
           0           3           1           1           1           0
           2
Nuclear ZEff                               R   N=           7
 -3.60000000E+00 -1.42400000E+01 -1.00000000E+00 -1.00000000E+00 -1.00000000E+00
 -3.60000000E+00 -4.55000000E+00
Nuclear ZNuc                               R   N=           7
  6.00000000E+00  1.70000000E+01  1.00000000E+00  1.00000000E+00  1.00000000E+00
  6.00000000E+00  7.00000000E+00
Nuclear QMom                               R   N=           7
  0.00000000E+00 -8.16500000E+00  0.00000000E+00  0.00000000E+00  0.00000000E+00
  0.00000000E+00  2.04400000E+00
Nuclear GFac                               R   N=           7
  0.00000000E+00  8.21874000E-01  2.79284600E+00  2.79284600E+00  2.79284600E+00
  0.00000000E+00  4.03761000E-01
MicOpt                                     I   N=           7
          -1          -1          -1          -1          -1          -1
          -1
Number of residues                         I                0
Number of secondary structures             I                0
Number of contracted shells                I               33
Number of primitive shells                 I               72
Pure/Cartesian d shells                    I                1
Pure/Cartesian f shells                    I                0
Highest angular momentum                   I                2
Largest degree of contraction              I                6
Shell types                                I   N=          33
           0          -1          -1          -1           2           0
          -1          -1          -1          -1           2           0
           0           0           1           0           0           0
           1           0           0           0           1           0
          -1          -1          -1           2           0          -1
          -1          -1           2
Number of primitives per shell             I   N=          33
           6           3           1           1           1           6
           6           3           1           1           1           3
           1           1           1           3           1           1
           1           3           1           1           1           6
           3           1           1           1           6           3
           1           1           1
Shell to atom map                          I   N=          33
           1           1           1           1           1           2
           2           2           2           2           2           3
           3           3           3           4           4           4
           4           5           5           5           5           6
           6           6           6           6           7           7
           7           7           7
Primitive exponents                        R   N=          72
  3.04752488E+03  4.57369518E+02  1.03948685E+02  2.92101553E+01  9.28666296E+00
  3.16392696E+00  7.86827235E+00  1.88128854E+00  5.44249258E-01  1.68714478E-01
  4.38000000E-02  8.00000000E-01  2.51801000E+04  3.78035000E+03  8.60474000E+02
  2.42145000E+02  7.73349000E+01  2.62470000E+01  4.91765000E+02  1.16984000E+02
  3.74153000E+01  1.37834000E+01  5.45215000E+00  2.22588000E+00  3.18649000E+00
  1.14427000E+00  4.20377000E-01  1.42657000E-01  4.83000000E-02  7.50000000E-01
  1.87311370E+01  2.82539436E+00  6.40121692E-01  1.61277759E-01  3.60000000E-02
  1.10000000E+00  1.87311370E+01  2.82539436E+00  6.40121692E-01  1.61277759E-01
  3.60000000E-02  1.10000000E+00  1.87311370E+01  2.82539436E+00  6.40121692E-01
  1.61277759E-01  3.60000000E-02  1.10000000E+00  3.04752488E+03  4.57369518E+02
  1.03948685E+02  2.92101553E+01  9.28666296E+00  3.16392696E+00  7.86827235E+00
  1.88128854E+00  5.44249258E-01  1.68714478E-01  4.38000000E-02  8.00000000E-01
  4.17351146E+03  6.27457911E+02  1.42902093E+02  4.02343293E+01  1.28202129E+01
  4.39043701E+00  1.16263619E+01  2.71627981E+00  7.72218397E-01  2.12031498E-01
  6.39000000E-02  8.00000000E-01
Contraction coefficients                   R   N=          72
  1.83473713E-03  1.40373228E-02  6.88426223E-02  2.32184443E-01  4.67941348E-01
  3.62311985E-01 -1.19332420E-01 -1.60854152E-01  1.14345644E+00  1.00000000E+00
  1.00000000E+00  1.00000000E+00  1.83295985E-03  1.40341988E-02  6.90973943E-02
  2.37451980E-01  4.83033960E-01  3.39855972E-01 -2.29739142E-03 -3.07137189E-02
 -1.12528069E-01  4.50163278E-02  5.89353363E-01  4.65206287E-01 -2.51828028E-01
  6.15892514E-02  1.06018433E+00  1.00000000E+00  1.00000000E+00  1.00000000E+00
  3.34946043E-02  2.34726953E-01  8.13757326E-01  1.00000000E+00  1.00000000E+00
  1.00000000E+00  3.34946043E-02  2.34726953E-01  8.13757326E-01  1.00000000E+00
  1.00000000E+00  1.00000000E+00  3.34946043E-02  2.34726953E-01  8.13757326E-01
  1.00000000E+00  1.00000000E+00  1.00000000E+00  1.83473713E-03  1.40373228E-02
  6.88426223E-02  2.32184443E-01  4.67941348E-01  3.62311985E-01 -1.19332420E-01
 -1.60854152E-01  1.14345644E+00  1.00000000E+00  1.00000000E+00  1.00000000E+00
  1.83477216E-03  1.39946270E-02  6.85865518E-02  2.32240873E-01  4.69069948E-01
  3.60455199E-01 -1.14961182E-01 -1.69117479E-01  1.14585195E+00  1.00000000E+00
  1.00000000E+00  1.00000000E+00
P(S=P) Contraction coefficients            R   N=          72
  0.00000000E+00  0.00000000E+00  0.00000000E+00  0.00000000E+00  0.00000000E+00
  0.00000000E+00  6.89990666E-02  3.16423961E-01  7.44308291E-01  1.00000000E+00
  1.00000000E+00  0.00000000E+00  0.00000000E+00  0.00000000E+00  0.00000000E+00
  0.00000000E+00  0.00000000E+00  0.00000000E+00  3.98940088E-03  3.03177067E-02
  1.29880029E-01  3.27951072E-01  4.53527100E-01  2.52154056E-01 -1.42993147E-02
  3.23572333E-01  7.43507765E-01  1.00000000E+00  1.00000000E+00  0.00000000E+00
  0.00000000E+00  0.00000000E+00  0.00000000E+00  0.00000000E+00  0.00000000E+00
  0.00000000E+00  0.00000000E+00  0.00000000E+00  0.00000000E+00  0.00000000E+00
  0.00000000E+00  0.00000000E+00  0.00000000E+00  0.00000000E+00  0.00000000E+00
  0.00000000E+00  0.00000000E+00  0.00000000E+00  0.00000000E+00  0.00000000E+00
  0.00000000E+00  0.00000000E+00  0.00000000E+00  0.00000000E+00  6.89990666E-02
  3.16423961E-01  7.44308291E-01  1.00000000E+00  1.00000000E+00  0.00000000E+00
  0.00000000E+00  0.00000000E+00  0.00000000E+00  0.00000000E+00  0.00000000E+00
  0.00000000E+00  6.75797439E-02  3.23907296E-01  7.40895140E-01  1.00000000E+00
  1.00000000E+00  0.00000000E+00
Coordinates of each shell                  R   N=          99
  8.69359055E-01  1.13383567E-05 -4.64872627E-04  8.69359055E-01  1.13383567E-05
 -4.64872627E-04  8.69359055E-01  1.13383567E-05 -4.64872627E-04  8.69359055E-01
  1.13383567E-05 -4.64872627E-04  8.69359055E-01  1.13383567E-05 -4.64872627E-04
 -4.26774236E+00 -1.88972612E-06  2.04090421E-04 -4.26774236E+00 -1.88972612E-06
  2.04090421E-04 -4.26774236E+00 -1.88972612E-06  2.04090421E-04 -4.26774236E+00
 -1.88972612E-06  2.04090421E-04 -4.26774236E+00 -1.88972612E-06  2.04090421E-04
 -4.26774236E+00 -1.88972612E-06  2.04090421E-04  3.02414761E-01  4.58069613E-03
 -1.97083884E+00  3.02414761E-01  4.58069613E-03 -1.97083884E+00  3.02414761E-01
  4.58069613E-03 -1.97083884E+00  3.02414761E-01  4.58069613E-03 -1.97083884E+00
  3.02777589E-01  1.70409644E+00  9.88836989E-01  3.02777589E-01  1.70409644E+00
  9.88836989E-01  3.02777589E-01  1.70409644E+00  9.88836989E-01  3.02777589E-01
  1.70409644E+00  9.88836989E-01  3.02751133E-01 -1.70865257E+00  9.80896360E-01
  3.02751133E-01 -1.70865257E+00  9.80896360E-01  3.02751133E-01 -1.70865257E+00
  9.80896360E-01  3.02751133E-01 -1.70865257E+00  9.80896360E-01  4.10268045E+00
  3.77945225E-06 -3.49599333E-04  4.10268045E+00  3.77945225E-06 -3.49599333E-04
  4.10268045E+00  3.77945225E-06 -3.49599333E-04  4.10268045E+00  3.77945225E-06
 -3.49599333E-04  4.10268045E+00  3.77945225E-06 -3.49599333E-04  6.33136297E+00
 -9.44863062E-06  2.68341110E-04  6.33136297E+00 -9.44863062E-06  2.68341110E-04
  6.33136297E+00 -9.44863062E-06  2.68341110E-04  6.33136297E+00 -9.44863062E-06
  2.68341110E-04  6.33136297E+00 -9.44863062E-06  2.68341110E-04
Num ILSW                                   I              100
ILSW                                       I   N=         100
           0           1           0           0           2           0
           0           0           0           0         402          -1
           5           0           0           0           2           0
           0           0           0           0           1           0
           1           1           0           0           0           0
           0           0      100000           0          -1           0
           0           0           0           0           0           0
           0           0           0           1           0           0
           0 -2000000000           1           0           0           0
           0           0           4          52           0           0
           0           0           5           0           0           0
           0           0           0           7           0           1
           0           0           0           0           0           0
           0           0           0           0           0           0
           0           0           0           0           0           0
           0           0           0           0           0           0
           0           0           0           0
Num RLSW                                   I               52
RLSW                                       R   N=          52
  8.00000000E-01  7.20000000E-01  1.00000000E+00  8.10000000E-01  2.00000000E-01
  0.00000000E+00  0.00000000E+00  1.00000000E+00  0.00000000E+00  0.00000000E+00
  0.00000000E+00  0.00000000E+00  1.00000000E+00  0.00000000E+00  0.00000000E+00
  0.00000000E+00  0.00000000E+00  1.00000000E+00  0.00000000E+00  0.00000000E+00
  0.00000000E+00  0.00000000E+00  1.00000000E+00  0.00000000E+00  0.00000000E+00
  0.00000000E+00  0.00000000E+00  1.00000000E+00  0.00000000E+00  0.00000000E+00
  0.00000000E+00  0.00000000E+00  1.00000000E+00  0.00000000E+00  0.00000000E+00
  0.00000000E+00  0.00000000E+00  0.00000000E+00  1.00000000E+00  1.00000000E+00
  0.00000000E+00  1.00000000E+00  0.00000000E+00  0.00000000E+00  0.00000000E+00
  0.00000000E+00  0.00000000E+00  0.00000000E+00  0.00000000E+00  0.00000000E+00
  0.00000000E+00  0.00000000E+00
MxBond                                     I                4
NBond                                      I   N=           7
           4           0           1           1           1           2
           1
IBond                                      I   N=          28
           3           4           5           6           0           0
           0           0           1           0           0           0
           1           0           0           0           1           0
           0           0           1           7           0           0
           6           0           0           0
RBond                                      R   N=          28
  1.00000000E+00  1.00000000E+00  1.00000000E+00  1.00000000E+00  0.00000000E+00
  0.00000000E+00  0.00000000E+00  0.00000000E+00  1.00000000E+00  0.00000000E+00
  0.00000000E+00  0.00000000E+00  1.00000000E+00  0.00000000E+00  0.00000000E+00
  0.00000000E+00  1.00000000E+00  0.00000000E+00  0.00000000E+00  0.00000000E+00
  1.00000000E+00  2.00000000E+00  0.00000000E+00  0.00000000E+00  2.00000000E+00
  0.00000000E+00  0.00000000E+00  0.00000000E+00
Virial Ratio                               R      2.005007151605028E+00
SCF Energy                                 R     -5.930330730974265E+02
Total Energy                               R     -5.930330730974265E+02
RMS Force                                  R      1.810225419857331E-02
RMS Density                                R      9.634719567121777E-10
NImag                                      I                0
Job Status                                 I                1
Nuclear derivative order                   I                2
External E-field                           R   N=          35
  0.00000000E+00  0.00000000E+00  0.00000000E+00  0.00000000E+00  0.00000000E+00
  0.00000000E+00  0.00000000E+00  0.00000000E+00  0.00000000E+00  0.00000000E+00
  0.00000000E+00  0.00000000E+00  0.00000000E+00  0.00000000E+00  0.00000000E+00
  0.00000000E+00  0.00000000E+00  0.00000000E+00  0.00000000E+00  0.00000000E+00
  0.00000000E+00  0.00000000E+00  0.00000000E+00  0.00000000E+00  0.00000000E+00
  0.00000000E+00  0.00000000E+00  0.00000000E+00  0.00000000E+00  0.00000000E+00
  0.00000000E+00  0.00000000E+00  0.00000000E+00  0.00000000E+00  0.00000000E+00
IOpCl                                      I                0
IROHF                                      I                0
Alpha Orbital Energies                     R   N=          98
 -1.01261776E+02 -1.42172679E+01 -1.01121645E+01 -1.01010831E+01 -9.17622740E+00
 -6.93391717E+00 -6.93391714E+00 -6.93391420E+00 -7.71213352E-01 -5.95359008E-01
 -5.16708843E-01 -3.36045298E-01 -3.03726088E-01 -3.03719095E-01 -2.38354268E-01
 -2.06904003E-01 -2.06901593E-01 -6.25012163E-02 -6.25011517E-02 -6.04364338E-02
  1.06761009E-01  1.46583489E-01  1.46591575E-01  1.46687531E-01  1.53498010E-01
  1.53499708E-01  1.99917687E-01  2.07296086E-01  2.10546824E-01  2.10548756E-01
  2.40042895E-01  2.40054785E-01  2.42897807E-01  2.60461031E-01  2.60462887E-01
  2.63235387E-01  3.14194870E-01  3.40837224E-01  3.40842017E-01  3.47234740E-01
  3.47243762E-01  3.51203505E-01  3.91496245E-01  4.23495013E-01  4.79818418E-01
  7.20706537E-01  7.88186973E-01  7.88187586E-01  8.34289336E-01  8.34309377E-01
  8.46782722E-01  8.60074622E-01  8.60081052E-01  8.84743325E-01  9.77182024E-01
  1.00563550E+00  1.04151538E+00  1.04152242E+00  1.11414061E+00  1.12209374E+00
  1.12210592E+00  1.14469752E+00  1.14470274E+00  1.16864159E+00  1.16864554E+00
  1.24116021E+00  1.25146437E+00  1.35973215E+00  1.50937873E+00  1.50938084E+00
  1.51937924E+00  1.65641965E+00  1.65641986E+00  1.78936837E+00  1.78939623E+00
  1.85637460E+00  2.07547521E+00  2.07547554E+00  2.11718965E+00  2.14692558E+00
  2.21525527E+00  2.21533306E+00  2.45239440E+00  2.45242818E+00  2.78231417E+00
  2.78237256E+00  2.78965717E+00  2.93786313E+00  2.98988137E+00  2.98991115E+00
  3.20221486E+00  3.45582784E+00  3.55302229E+00  3.55308746E+00  4.20743256E+00
  4.38117642E+00  4.57933900E+00  4.68546922E+00
Alpha MO coefficients                      R   N=        9604
 -2.60712990E-06  1.16453937E-05  2.72475522E-05  2.45712118E-10 -4.93858515E-09
 -6.49438842E-05 -2.17514625E-04 -9.40951267E-10  2.76426971E-08  7.14296509E-04
  5.00585516E-04  1.63434124E-10 -2.59801071E-09 -3.28699721E-05 -7.62313629E-06
 -7.62497538E-06  2.55475080E-10  2.10328572E-10  1.97125723E-11  9.95997652E-01
  1.51459168E-02  2.63722102E-06 -4.40746243E-11 -3.43977020E-10 -2.10618374E-02
 -3.30619776E-06  1.33143066E-10 -1.94626929E-11  1.92320986E-03 -1.89840580E-05
 -3.86895820E-10  4.49465438E-09 -1.92223537E-04  3.34881665E-05  6.09914119E-10
 -1.74343382E-08  7.50371340E-03  7.51743404E-03  7.51743404E-03 -6.04992638E-11
  1.88533809E-09 -2.99955230E-12 -1.13726356E-05 -5.54994434E-05  7.93602093E-05
  2.50358618E-05  2.31168333E-08 -9.90565277E-06 -1.13764231E-05 -5.55132265E-05
  7.93779973E-05  2.50354212E-05  8.56554284E-06  4.96797233E-06 -1.13780002E-05
 -5.55128997E-05  7.93797105E-05  2.50355163E-05 -8.58839239E-06  4.92814401E-06
 -2.84894371E-06 -1.58881510E-05  5.61133860E-06 -6.21303469E-11  1.02367278E-10
 -1.42287090E-04 -3.66124268E-04  2.01247395E-09 -6.21529237E-08 -1.18021192E-03
  2.66526074E-04 -8.88915037E-10  2.51283014E-09 -1.39708016E-06 -3.32406840E-06
 -3.32442109E-06  3.69854637E-11 -5.02173381E-09  1.82726407E-11 -4.98645640E-06
 -2.26779292E-05  1.11372242E-06 -9.41860277E-12  3.12984291E-09  3.28235790E-04
 -1.38344056E-04  8.47836875E-10 -5.50636945E-08  2.54486604E-04 -7.60120285E-05
  4.91865271E-10 -1.75089395E-08 -9.69573483E-07 -1.08104368E-05 -1.08104099E-05
 -6.44159320E-11  5.26958142E-09 -1.53237946E-12 -9.47612357E-06 -1.92726039E-04
  5.58527930E-05 -1.61115963E-10  1.15712031E-09  6.24623200E-04  4.30839051E-04
 -6.35089338E-10 -3.65057330E-08  6.84721926E-03  2.61940478E-03 -3.07488056E-09
 -1.01342204E-07  2.02049128E-04 -1.26592145E-05 -1.26460408E-05 -2.39681279E-10
 -6.72845805E-09  7.69658290E-11 -4.11885712E-08 -3.05264803E-06  2.41720238E-06
  1.27042622E-11 -1.08370483E-09 -5.28946496E-06 -1.79366453E-05 -7.62178310E-11
  6.62707193E-09 -2.30180990E-06  8.68989793E-05  2.93455865E-10 -2.43498427E-08
  6.57332562E-04  1.72346262E-04  7.31179232E-10 -1.59648572E-08  9.31779556E-06
 -1.11911802E-05 -1.11910798E-05  4.29681758E-11 -3.95336193E-09 -1.44405682E-11
  5.07288770E-06 -1.08026281E-04 -1.19737612E-04 -1.11501346E-05 -1.96630482E-08
  8.46045174E-06  5.07963576E-06 -1.07979506E-04 -1.19897308E-04 -1.11418894E-05
 -7.32505464E-06 -4.24838497E-06  5.08027071E-06 -1.07979980E-04 -1.19901466E-04
 -1.11415235E-05  7.34456432E-06 -4.21421370E-06  8.47429140E-05  3.02729165E-04
 -4.61909207E-04  2.49038468E-09 -1.15439593E-07  2.54708446E-04  7.67373487E-04
 -1.63869615E-09  4.59267707E-08 -5.11927028E-03  3.66008983E-03 -1.48692972E-08
  5.11604965E-07 -1.01062953E-03  9.32287338E-06  9.32264191E-06  6.47960402E-09
 -2.95339210E-07  3.13647562E-11  9.92759270E-01  3.44987913E-02 -1.84890332E-03
  1.19370698E-08 -5.43096517E-07  3.91327928E-03  7.57939064E-04 -5.84179770E-09
  2.66066866E-07 -3.20765694E-03 -4.39212755E-04  1.62937249E-09 -2.28832510E-08
 -7.49814311E-03 -8.32955950E-03 -8.32956051E-03 -5.59355989E-09  2.62177122E-07
 -4.13823017E-12  3.25313602E-03  1.30138872E-04 -6.33157028E-05 -4.71527217E-11
 -2.86193857E-08  3.71542802E-03  1.77840938E-03 -1.40991205E-08  2.12435575E-07
  5.11269413E-02  2.90788675E-02 -2.09065954E-08 -6.37110096E-07 -5.02483712E-04
 -1.23821479E-04 -1.23777908E-04  1.50873103E-09 -1.19359871E-08 -4.46031353E-10
 -6.18720652E-08 -6.07631532E-06  2.59445664E-05  1.19000235E-10 -8.24533921E-09
 -5.67944150E-06 -1.65989278E-04 -6.79818125E-10  4.94259983E-08 -2.68965709E-04
  7.28219475E-04  1.91125028E-09 -1.60378627E-07  9.48221654E-03  3.07143383E-03
  2.21869909E-08 -8.36116522E-07  4.12855199E-05 -3.90505891E-05 -3.90504263E-05
  5.57056991E-10 -3.29009075E-08 -9.40719782E-11 -1.07581827E-04 -6.11056276E-04
  6.11967886E-04 -1.31806228E-05  2.40610655E-08 -1.01561863E-05 -1.07567979E-04
 -6.11213201E-04  6.12448618E-04 -1.30428031E-05  8.79673665E-06  5.09524031E-06
 -1.07569257E-04 -6.11225216E-04  6.12453334E-04 -1.30480200E-05 -8.82131011E-06
  5.05540515E-06  9.92862165E-01  4.96212157E-02  5.86611583E-04 -4.38958518E-09
  3.18155456E-07 -1.04114886E-02  4.25308853E-03 -9.39366050E-09  2.15626824E-07
 -6.67007574E-02  1.97389178E-02 -6.90481900E-08  9.28055707E-07 -8.44243963E-03
 -9.64116233E-03 -9.64116489E-03 -8.43223655E-09  3.70206144E-07  1.65206256E-10
 -3.97443284E-04  3.74561820E-04  1.88827991E-04 -5.90298418E-10  4.06959434E-08
 -5.40850299E-03  2.11242466E-03 -1.88175547E-08  8.44070860E-07  9.84138042E-03
 -6.35054791E-03  3.60288533E-08 -1.03092163E-06  9.79035643E-05  3.03658508E-04
  3.03658963E-04  2.60079276E-09 -1.31979342E-07 -1.46434239E-11  9.93132900E-01
  4.99036048E-02  5.87860231E-04 -4.87063562E-10  1.84219142E-08 -2.11334207E-02
 -3.78637743E-03  2.78707126E-08 -3.70152529E-07  2.50736086E-02  1.65500320E-02
  3.10916485E-08 -5.11542694E-07 -9.27245803E-03 -8.54233361E-03 -8.54231497E-03
  2.50579811E-09  6.78545634E-08  5.45595894E-09  8.20015536E-07  1.78976386E-05
 -3.49008572E-06  3.70735321E-10  1.25305113E-09  3.99945135E-05 -5.56338699E-06
 -2.36804608E-09 -3.96149750E-09 -3.95906098E-04  1.70323820E-04  7.55362768E-09
 -7.94654494E-09  5.98755497E-03  1.92813916E-03  1.18963635E-08 -5.42537876E-07
  6.90301274E-05  2.47184205E-05  2.47199892E-05  1.94156869E-09 -1.40156135E-08
  4.22507055E-10 -7.71179003E-05  3.14073439E-03  1.95052296E-04  2.35742153E-05
  3.72056089E-07 -1.59924294E-04 -7.70714457E-05  3.14115536E-03  1.95491717E-04
  2.35516524E-05  1.38282897E-04  8.02895198E-05 -7.70694290E-05  3.14118605E-03
  1.95550861E-04  2.35575158E-05 -1.38651311E-04  7.96446862E-05 -3.42428582E-03
 -2.03888921E-04 -1.44220092E-05  2.27421316E-09  1.21573575E-08 -6.28227376E-04
 -8.78361087E-03  1.90945485E-08 -1.24606563E-06 -3.44202217E-02  9.52022504E-03
 -6.08427683E-08  4.01063496E-07 -5.51203067E-04 -3.29202779E-05 -3.29033487E-05
  4.19775877E-09 -1.23766907E-07 -6.92252879E-10 -5.28474817E-05 -2.33959974E-04
 -1.93612041E-04  1.54062427E-11 -1.23043378E-08  6.41395581E-03 -2.40862290E-03
  2.60659706E-08 -1.20360082E-06  4.69437853E-03 -2.18261649E-03  2.62204253E-08
 -2.58661554E-07  1.19551659E-04 -1.25704908E-04 -1.25703917E-04 -4.46153842E-09
  2.00755647E-07  6.43210275E-11  3.69319907E-05  1.06363685E-04  2.89197189E-04
 -1.02798959E-09 -5.15474038E-08 -2.46441947E-03 -3.49197346E-03  7.88260353E-09
  2.91529345E-07  9.62454909E-03  1.14954941E-02 -1.15016233E-08 -1.08096845E-06
  8.30047413E-05  7.45781691E-05  7.45668717E-05  6.48778617E-11 -3.25645948E-08
 -1.73207764E-10 -2.84630829E-01  1.02269975E+00  1.57443258E-04 -2.50040118E-09
 -7.05711530E-08  7.53825282E-02  5.09594606E-04  1.89724446E-10 -6.89408213E-08
 -2.23343810E-02 -1.66480272E-03 -7.91146397E-10  1.96052241E-07  1.70201863E-02
  5.76557444E-03  3.86211843E-09 -6.65449750E-07 -1.56349071E-02 -1.55299795E-02
 -1.55299769E-02 -5.91029431E-10  2.01938594E-08  6.29577738E-11 -6.45388822E-05
 -2.64849053E-04 -2.37954238E-03  4.15895362E-05 -1.03952474E-08  4.18808479E-06
 -6.45615168E-05 -2.64823080E-04 -2.38054545E-03  4.15580131E-05 -3.62516955E-06
 -2.11029441E-06 -6.45643814E-05 -2.64805681E-04 -2.38066699E-03  4.15493164E-05
  3.63603085E-06 -2.09481653E-06 -2.94770901E-05 -1.77303225E-04 -9.49151032E-06
 -3.13502426E-10 -1.03046031E-08 -9.83375502E-04 -4.34560699E-03  1.91745261E-08
 -6.22107365E-07 -1.07331050E-02  3.20845434E-03 -4.29925650E-08  1.59824791E-06
  4.85105977E-05 -2.58040894E-05 -2.58063170E-05  3.41352309E-10 -2.77038592E-08
  1.30823503E-10 -9.97262858E-05 -3.89486681E-04  5.35522588E-06 -1.80553903E-10
  2.82768273E-08  4.72904565E-03 -1.42025273E-03  9.95814638E-09 -6.03520876E-07
 -1.87701502E-03  5.04690237E-04  1.05447727E-08 -3.70797854E-07 -1.50645868E-04
 -2.07329507E-04 -2.07330733E-04 -8.01838479E-10  5.53746951E-08 -3.18254059E-11
 -1.49730716E-09  1.08525046E-08  9.98878472E-10  2.31506325E-07 -2.82082808E-05
  5.51955696E-07  7.68149114E-07  4.13462125E-06 -5.01387049E-04  3.39474070E-05
  1.94515121E-05 -3.14036121E-06  3.81497119E-04 -3.12796610E-08 -3.24486261E-05
  3.24663803E-05  1.20181732E-07 -1.46706259E-05  4.80526204E-08 -3.09335867E-08
  8.50841334E-08 -6.41984963E-05 -8.16118963E-03  9.90769022E-01 -1.91153287E-08
 -2.11048770E-06 -2.44797433E-04  2.97183491E-02  1.17267632E-07  1.38052404E-06
  9.53898434E-05 -1.15799943E-02  6.00888050E-06  1.72946581E-06 -4.24532382E-05
  5.15318690E-03 -1.54998454E-08  1.50764588E-06 -1.69967194E-06 -4.02614407E-07
  4.89141704E-05 -1.88423368E-09  1.51928770E-04 -1.23533873E-03  4.68871554E-03
  1.22975298E-04  1.05712835E-07 -1.23718388E-04 -7.51516296E-05  6.11032630E-04
 -2.31935236E-03 -6.08713301E-05 -6.62950476E-05 -7.67568202E-06 -7.67054629E-05
  6.23698388E-04 -2.36740332E-03 -6.21333040E-05  6.73397102E-05 -8.15415646E-06
  4.89788314E-08  2.00366021E-07 -2.41345046E-08 -4.47509940E-07  5.43546384E-05
 -7.74487386E-07  1.28112059E-06  1.46768478E-06 -1.78423515E-04 -4.21389786E-05
  1.43758439E-05 -9.16453430E-06  1.11256607E-03  8.68319305E-08 -4.34261440E-06
  4.49646547E-06  1.23178524E-07 -1.49405294E-05  6.69209486E-09  1.19187077E-08
  6.76339515E-08 -1.66774877E-09  1.39810278E-07 -1.70013713E-05 -9.79503031E-07
  4.23466221E-07 -9.35209916E-07  1.13690452E-04  1.52374737E-06 -2.52331082E-06
  3.14764767E-06 -3.82232727E-04 -1.11204084E-08  3.38987894E-06 -3.36207829E-06
  1.32738600E-07 -1.61249491E-05 -4.88482785E-09  6.76688602E-09  7.75345132E-08
  1.02184122E-08 -2.82203835E-05 -2.33320875E-07  2.87996920E-07  6.23856617E-07
 -5.01258292E-04 -4.12425693E-06  2.69357139E-05  1.62199153E-05  3.81490272E-04
  3.14411515E-06 -7.57598199E-08 -1.71267837E-08  6.39888256E-08 -1.46830505E-05
 -1.21588843E-07 -3.74674201E-05 -2.67842420E-08  5.62207451E-08 -2.80430942E-04
  9.90768987E-01  8.16117132E-03 -1.24388859E-07 -8.62333392E-06  2.97183371E-02
  2.44795555E-04  3.75857123E-07  3.92873396E-06 -1.15799926E-02 -9.53841204E-05
  4.77432062E-06  2.68781348E-07  5.15321517E-03  4.24423422E-05 -4.05224457E-08
 -7.72049151E-08 -8.15183963E-08  4.89063505E-05  4.03138053E-07  1.81689093E-06
  9.31231202E-07 -7.55174788E-06  2.85477454E-05  7.50295293E-07  3.06478592E-05
 -6.94188258E-07 -1.31983431E-04  1.07301988E-03 -4.07323503E-03 -1.06862888E-04
 -8.53060891E-05 -6.70431513E-05  1.31147225E-04 -1.06623853E-03  4.04721702E-03
  1.06185412E-04 -8.48856888E-05  6.65887634E-05  3.36052335E-08  1.34858031E-07
  2.59094321E-09  5.43694684E-05  4.48091348E-07 -7.63706169E-07  6.82289009E-07
 -1.78516980E-04 -1.47251148E-06 -3.50266333E-05  1.10383274E-05  1.11249712E-03
  9.16462565E-06  5.84469134E-08  4.77765764E-08  5.85968353E-08 -1.49315442E-05
 -1.22879640E-07 -5.11735925E-06  8.96564703E-09  4.36027685E-08 -2.55124423E-09
 -1.69942474E-05 -1.40215374E-07 -5.69353608E-07  2.25869576E-07  1.13673843E-04
  9.37723932E-07  2.03001533E-06 -1.91579375E-06 -3.82038667E-04 -3.14814348E-06
 -8.12408392E-09  2.05957106E-08  1.19653997E-08 -1.61340193E-05 -1.32997092E-07
  3.89533773E-06 -3.07509972E-05 -3.05350883E-04 -2.87328142E-05 -1.04735746E-08
  3.58285102E-08 -8.11714898E-04 -2.32806780E-03 -1.23448568E-07 -4.48051717E-07
 -9.59810394E-02 -5.80830024E-02  1.29303076E-07  1.54276775E-06  2.59091688E-04
 -9.20017227E-05 -9.19498732E-05 -5.62528649E-09 -8.19479940E-08 -1.09619622E-08
  9.13812366E-05 -1.85583611E-04  9.90662673E-01  2.79931536E-04  6.65624058E-05
  4.38583853E-04  3.04689191E-02  8.39803355E-06  1.87308897E-06 -1.33169426E-03
 -1.39189009E-02 -3.27611447E-06 -4.22398161E-07 -1.72416275E-02 -1.07049492E-03
  1.40904822E-06  2.10208699E-06  1.40890919E-04  2.85189147E-04  2.85197293E-04
  1.21831714E-08  6.20090082E-08  5.89014778E-10 -1.17031373E-04  7.73230444E-04
 -3.05643155E-03 -7.48405411E-05 -2.59080033E-07  1.14629961E-04 -1.17036833E-04
  7.74411326E-04 -3.05985446E-03 -7.49886108E-05 -9.92341616E-05 -5.75550338E-05
 -1.16951669E-04  7.73823204E-04 -3.05759124E-03 -7.49432582E-05  9.94539148E-05
 -5.70580678E-05 -1.19848494E-04 -4.80941283E-04 -7.86191129E-06  1.58472899E-08