 Entering Gaussian System, Link 0=g16
 Initial command:
 /usr/local/g16_AVX//g16/l1.exe "/scratch/alanqf/0069-54511.ixchel.mda.cinvestav.mx/Gau-36861.inp" -scrdir="/scratch/alanqf/0069-54511.ixchel.mda.cinvestav.mx/"
 Entering Link 1 = /usr/local/g16_AVX//g16/l1.exe PID=     36862.
  
 Copyright (c) 1988-2017, Gaussian, Inc.  All Rights Reserved.
  
 This is part of the Gaussian(R) 16 program.  It is based on
 the Gaussian(R) 09 system (copyright 2009, Gaussian, Inc.),
 the Gaussian(R) 03 system (copyright 2003, Gaussian, Inc.),
 the Gaussian(R) 98 system (copyright 1998, Gaussian, Inc.),
 the Gaussian(R) 94 system (copyright 1995, Gaussian, Inc.),
 the Gaussian 92(TM) system (copyright 1992, Gaussian, Inc.),
 the Gaussian 90(TM) system (copyright 1990, Gaussian, Inc.),
 the Gaussian 88(TM) system (copyright 1988, Gaussian, Inc.),
 the Gaussian 86(TM) system (copyright 1986, Carnegie Mellon
 University), and the Gaussian 82(TM) system (copyright 1983,
 Carnegie Mellon University). Gaussian is a federally registered
 trademark of Gaussian, Inc.
  
 This software contains proprietary and confidential information,
 including trade secrets, belonging to Gaussian, Inc.
  
 This software is provided under written license and may be
 used, copied, transmitted, or stored only in accord with that
 written license.
  
 The following legend is applicable only to US Government
 contracts under FAR:
  
                    RESTRICTED RIGHTS LEGEND
  
 Use, reproduction and disclosure by the US Government is
 subject to restrictions as set forth in subparagraphs (a)
 and (c) of the Commercial Computer Software - Restricted
 Rights clause in FAR 52.227-19.
  
 Gaussian, Inc.
 340 Quinnipiac St., Bldg. 40, Wallingford CT 06492
  
  
 ---------------------------------------------------------------
 Warning -- This program may not be used in any manner that
 competes with the business of Gaussian, Inc. or will provide
 assistance to any competitor of Gaussian, Inc.  The licensee
 of this program is prohibited from giving any competitor of
 Gaussian, Inc. access to this program.  By using this program,
 the user acknowledges that Gaussian, Inc. is engaged in the
 business of creating and licensing software in the field of
 computational chemistry and represents and warrants to the
 licensee that it is not a competitor of Gaussian, Inc. and that
 it will not use this program in any manner prohibited above.
 ---------------------------------------------------------------
  

 Cite this work as:
 Gaussian 16, Revision B.01,
 M. J. Frisch, G. W. Trucks, H. B. Schlegel, G. E. Scuseria, 
 M. A. Robb, J. R. Cheeseman, G. Scalmani, V. Barone, 
 G. A. Petersson, H. Nakatsuji, X. Li, M. Caricato, A. V. Marenich, 
 J. Bloino, B. G. Janesko, R. Gomperts, B. Mennucci, H. P. Hratchian, 
 J. V. Ortiz, A. F. Izmaylov, J. L. Sonnenberg, D. Williams-Young, 
 F. Ding, F. Lipparini, F. Egidi, J. Goings, B. Peng, A. Petrone, 
 T. Henderson, D. Ranasinghe, V. G. Zakrzewski, J. Gao, N. Rega, 
 G. Zheng, W. Liang, M. Hada, M. Ehara, K. Toyota, R. Fukuda, 
 J. Hasegawa, M. Ishida, T. Nakajima, Y. Honda, O. Kitao, H. Nakai, 
 T. Vreven, K. Throssell, J. A. Montgomery, Jr., J. E. Peralta, 
 F. Ogliaro, M. J. Bearpark, J. J. Heyd, E. N. Brothers, K. N. Kudin, 
 V. N. Staroverov, T. A. Keith, R. Kobayashi, J. Normand, 
 K. Raghavachari, A. P. Rendell, J. C. Burant, S. S. Iyengar, 
 J. Tomasi, M. Cossi, J. M. Millam, M. Klene, C. Adamo, R. Cammi, 
 J. W. Ochterski, R. L. Martin, K. Morokuma, O. Farkas, 
 J. B. Foresman, and D. J. Fox, Gaussian, Inc., Wallingford CT, 2016.
 
 ******************************************
 Gaussian 16:  ES64L-G16RevB.01 20-Dec-2017
                13-Oct-2024 
 ******************************************
 %NProcShared=26
 Will use up to   26 processors via shared memory.
 %MEM=20GB
 %chk=CHKfiles/0069.chk
 ---------------------------------------------------------------------
 #p b3lyp 6-31++g(d,p) scf=verytight NoSymm freq=noraman int=ultrafine
 ---------------------------------------------------------------------
 1/10=4,30=1,38=1/1,3;
 2/12=2,15=1,17=6,18=5,40=1/2;
 3/5=1,6=6,7=1111,11=2,25=1,30=1,71=2,74=-5,75=-5,140=1/1,2,3;
 4//1;
 5/5=2,17=3,38=5,98=1/2;
 8/6=4,10=90,11=11/1;
 11/6=1,8=1,9=11,15=111,16=1,31=1/1,2,10;
 10/6=1,31=1/2;
 6/7=2,8=2,9=2,10=2,28=1/1;
 7/8=1,10=1,25=1,30=1/1,2,3,16;
 1/10=4,30=1/3;
 99//99;
 Leave Link    1 at Sun Oct 13 09:49:23 2024, MaxMem=  2684354560 cpu:               2.0 elap:               0.1
 (Enter /usr/local/g16_AVX//g16/l101.exe)
 -------------------------
 RxCoord=-3.19928 DE=22.89
 -------------------------
 Symbolic Z-matrix:
 Charge = -1 Multiplicity = 1
 C                     0.44695   0.00001  -0.00025 
 Cl                   -2.25708  0.         0.00011 
 H                     0.15539   0.00243  -1.04482 
 H                     0.15555   0.90341   0.5242 
 H                     0.15554  -0.90583   0.51999 
 C                     2.17574   0.       -0.00019 
 N                     3.35534  -0.00001   0.00014 
 
 ITRead=  0  0  0  0  0  0  0
 MicOpt= -1 -1 -1 -1 -1 -1 -1
 NAtoms=      7 NQM=        7 NQMF=       0 NMMI=      0 NMMIF=      0
                NMic=       0 NMicF=      0.
                    Isotopes and Nuclear Properties:
 (Nuclear quadrupole moments (NQMom) in fm**2, nuclear magnetic moments (NMagM)
  in nuclear magnetons)

  Atom         1           2           3           4           5           6           7
 IAtWgt=          12          35           1           1           1          12          14
 AtmWgt=  12.0000000  34.9688527   1.0078250   1.0078250   1.0078250  12.0000000  14.0030740
 NucSpn=           0           3           1           1           1           0           2
 AtZEff=  -0.0000000  -0.0000000  -0.0000000  -0.0000000  -0.0000000  -0.0000000  -0.0000000
 NQMom=    0.0000000  -8.1650000   0.0000000   0.0000000   0.0000000   0.0000000   2.0440000
 NMagM=    0.0000000   0.8218740   2.7928460   2.7928460   2.7928460   0.0000000   0.4037610
 AtZNuc=   6.0000000  17.0000000   1.0000000   1.0000000   1.0000000   6.0000000   7.0000000
 Leave Link  101 at Sun Oct 13 09:49:23 2024, MaxMem=  2684354560 cpu:               3.1 elap:               0.2
 (Enter /usr/local/g16_AVX//g16/l103.exe)

 GradGradGradGradGradGradGradGradGradGradGradGradGradGradGradGradGradGrad
 Berny optimization.
 Initialization pass.
 Trust Radius=3.00D-01 FncErr=1.00D-07 GrdErr=1.00D-07 EigMax=2.50D+02 EigMin=1.00D-04
 Number of steps in this run=      2 maximum allowed number of steps=      2.
 GradGradGradGradGradGradGradGradGradGradGradGradGradGradGradGradGradGrad

 Leave Link  103 at Sun Oct 13 09:49:23 2024, MaxMem=  2684354560 cpu:               1.2 elap:               0.1
 (Enter /usr/local/g16_AVX//g16/l202.exe)
                          Input orientation:                          
 ---------------------------------------------------------------------
 Center     Atomic      Atomic             Coordinates (Angstroms)
 Number     Number       Type             X           Y           Z
 ---------------------------------------------------------------------
      1          6           0        0.446951    0.000006   -0.000246
      2         17           0       -2.257081   -0.000001    0.000108
      3          1           0        0.155387    0.002428   -1.044822
      4          1           0        0.155550    0.903414    0.524203
      5          1           0        0.155536   -0.905829    0.519993
      6          6           0        2.175742    0.000002   -0.000186
      7          7           0        3.355341   -0.000005    0.000144
 ---------------------------------------------------------------------
                    Distance matrix (angstroms):
                    1          2          3          4          5
     1  C    0.000000
     2  Cl   2.704032   0.000000
     3  H    1.084507   2.629047   0.000000
     4  H    1.084485   2.628996   1.809313   0.000000
     5  H    1.084485   2.628978   1.809303   1.809248   0.000000
     6  C    1.728791   4.432823   2.274446   2.274272   2.274280
     7  N    2.908390   5.612422   3.366254   3.365927   3.365934
                    6          7
     6  C    0.000000
     7  N    1.179599   0.000000
 Symmetry turned off by external request.
 This structure is nearly, but not quite of a higher symmetry.
 Consider Symm=Loose if the higher symmetry is desired.
 Stoichiometry    C2H3ClN(1-)
 Framework group  C1[X(C2H3ClN)]
 Deg. of freedom    15
 Full point group                 C1      NOp   1
 Rotational constants (GHZ):         153.1850488           1.2738843           1.2738838
 Leave Link  202 at Sun Oct 13 09:49:23 2024, MaxMem=  2684354560 cpu:               2.1 elap:               0.1
 (Enter /usr/local/g16_AVX//g16/l301.exe)
 Standard basis: 6-31++G(d,p) (6D, 7F)
 Ernie: Thresh=  0.10000D-02 Tol=  0.10000D-05 Strict=F.
    98 basis functions,   176 primitive gaussians,    98 cartesian basis functions
    20 alpha electrons       20 beta electrons
       nuclear repulsion energy       108.2763131072 Hartrees.
 IExCor=  402 DFT=T Ex+Corr=B3LYP ExCW=0 ScaHFX=  0.200000
 ScaDFX=  0.800000  0.720000  1.000000  0.810000 ScalE2=  1.000000  1.000000
 IRadAn=      5 IRanWt=     -1 IRanGd=            0 ICorTp=0 IEmpDi=  4
 NAtoms=    7 NActive=    7 NUniq=    7 SFac= 1.00D+00 NAtFMM=   60 NAOKFM=F Big=F
 Integral buffers will be    131072 words long.
 Raffenetti 2 integral format.
 Two-electron integral symmetry is turned off.
 Leave Link  301 at Sun Oct 13 09:49:23 2024, MaxMem=  2684354560 cpu:               2.4 elap:               0.1
 (Enter /usr/local/g16_AVX//g16/l302.exe)
 NPDir=0 NMtPBC=     1 NCelOv=     1 NCel=       1 NClECP=     1 NCelD=      1
         NCelK=      1 NCelE2=     1 NClLst=     1 CellRange=     0.0.
 One-electron integrals computed using PRISM.
 NBasis=    98 RedAO= T EigKep=  2.86D-05  NBF=    98
 NBsUse=    98 1.00D-06 EigRej= -1.00D+00 NBFU=    98
 Precomputing XC quadrature grid using
 IXCGrd= 4 IRadAn=           5 IRanWt=          -1 IRanGd=           0 AccXCQ= 0.00D+00.
 Generated NRdTot=       0 NPtTot=           0 NUsed=           0 NTot=          32
 NSgBfM=    98    98    98    98    98 MxSgAt=     7 MxSgA2=     7.
 Leave Link  302 at Sun Oct 13 09:49:24 2024, MaxMem=  2684354560 cpu:               4.4 elap:               0.2
 (Enter /usr/local/g16_AVX//g16/l303.exe)
 DipDrv:  MaxL=1.
 Leave Link  303 at Sun Oct 13 09:49:24 2024, MaxMem=  2684354560 cpu:               3.3 elap:               0.2
 (Enter /usr/local/g16_AVX//g16/l401.exe)
 ExpMin= 3.60D-02 ExpMax= 2.52D+04 ExpMxC= 3.78D+03 IAcc=3 IRadAn=         5 AccDes= 0.00D+00
 Harris functional with IExCor=  402 and IRadAn=       5 diagonalized for initial guess.
 HarFok:  IExCor=  402 AccDes= 0.00D+00 IRadAn=         5 IDoV= 1 UseB2=F ITyADJ=14
 ICtDFT=  3500011 ScaDFX=  1.000000  1.000000  1.000000  1.000000
 FoFCou: FMM=F IPFlag=           0 FMFlag=      100000 FMFlg1=           0
         NFxFlg=           0 DoJE=T BraDBF=F KetDBF=T FulRan=T
         wScrn=  0.000000 ICntrl=       500 IOpCl=  0 I1Cent=   200000004 NGrid=           0
         NMat0=    1 NMatS0=      1 NMatT0=    0 NMatD0=    1 NMtDS0=    0 NMtDT0=    0
 Symmetry not used in FoFCou.
 Harris En= -593.074698253688    
 JPrj=0 DoOrth=F DoCkMO=F.
 Leave Link  401 at Sun Oct 13 09:49:24 2024, MaxMem=  2684354560 cpu:              12.2 elap:               0.6
 (Enter /usr/local/g16_AVX//g16/l502.exe)
 Keep R1 ints in memory in canonical form, NReq=35752935.
 FoFCou: FMM=F IPFlag=           0 FMFlag=           0 FMFlg1=           0
         NFxFlg=           0 DoJE=F BraDBF=F KetDBF=F FulRan=T
         wScrn=  0.000000 ICntrl=       600 IOpCl=  0 I1Cent=           0 NGrid=           0
         NMat0=    1 NMatS0=   4851 NMatT0=    0 NMatD0=    1 NMtDS0=    0 NMtDT0=    0
 Symmetry not used in FoFCou.
 Two-electron integral symmetry not used.
 Closed shell SCF:
 Using DIIS extrapolation, IDIIS=  1040.
 NGot=  2684354560 LenX=  2672563405 LenY=  2672553360
 Requested convergence on RMS density matrix=1.00D-08 within 128 cycles.
 Requested convergence on MAX density matrix=1.00D-06.
 Requested convergence on             energy=1.00D-06.
 No special actions if energy rises.

 Cycle   1  Pass 1  IDiag  1:
 E= -592.925122424061    
 DIIS: error= 3.05D-02 at cycle   1 NSaved=   1.
 NSaved= 1 IEnMin= 1 EnMin= -592.925122424061     IErMin= 1 ErrMin= 3.05D-02
 ErrMax= 3.05D-02  0.00D+00 EMaxC= 1.00D-01 BMatC= 1.02D-01 BMatP= 1.02D-01
 IDIUse=3 WtCom= 6.95D-01 WtEn= 3.05D-01
 Coeff-Com:  0.100D+01
 Coeff-En:   0.100D+01
 Coeff:      0.100D+01
 Gap=     0.175 Goal=   None    Shift=    0.000
 GapD=    0.175 DampG=1.000 DampE=0.500 DampFc=0.5000 IDamp=-1.
 Damping current iteration by 5.00D-01
 RMSDP=1.00D-02 MaxDP=1.87D-01              OVMax= 1.92D-01

 Cycle   2  Pass 1  IDiag  1:
 E= -592.950960209005     Delta-E=       -0.025837784944 Rises=F Damp=T
 DIIS: error= 1.93D-02 at cycle   2 NSaved=   2.
 NSaved= 2 IEnMin= 2 EnMin= -592.950960209005     IErMin= 2 ErrMin= 1.93D-02
 ErrMax= 1.93D-02  0.00D+00 EMaxC= 1.00D-01 BMatC= 2.41D-02 BMatP= 1.02D-01
 IDIUse=3 WtCom= 8.07D-01 WtEn= 1.93D-01
 Coeff-Com:  0.255D+00 0.745D+00
 Coeff-En:   0.365D+00 0.635D+00
 Coeff:      0.276D+00 0.724D+00
 Gap=     0.152 Goal=   None    Shift=    0.000
 RMSDP=3.78D-03 MaxDP=8.31D-02 DE=-2.58D-02 OVMax= 1.79D-01

 Cycle   3  Pass 1  IDiag  1:
 E= -593.010556557195     Delta-E=       -0.059596348190 Rises=F Damp=F
 DIIS: error= 1.75D-02 at cycle   3 NSaved=   3.
 NSaved= 3 IEnMin= 3 EnMin= -593.010556557195     IErMin= 3 ErrMin= 1.75D-02
 ErrMax= 1.75D-02  0.00D+00 EMaxC= 1.00D-01 BMatC= 2.08D-02 BMatP= 2.41D-02
 IDIUse=3 WtCom= 8.25D-01 WtEn= 1.75D-01
 Coeff-Com:  0.644D-01 0.467D+00 0.468D+00
 Coeff-En:   0.000D+00 0.000D+00 0.100D+01
 Coeff:      0.532D-01 0.386D+00 0.561D+00
 Gap=     0.176 Goal=   None    Shift=    0.000
 RMSDP=3.10D-03 MaxDP=7.07D-02 DE=-5.96D-02 OVMax= 7.73D-02

 Cycle   4  Pass 1  IDiag  1:
 E= -593.022606425301     Delta-E=       -0.012049868106 Rises=F Damp=F
 DIIS: error= 1.23D-02 at cycle   4 NSaved=   4.
 NSaved= 4 IEnMin= 4 EnMin= -593.022606425301     IErMin= 4 ErrMin= 1.23D-02
 ErrMax= 1.23D-02  0.00D+00 EMaxC= 1.00D-01 BMatC= 8.89D-03 BMatP= 2.08D-02
 IDIUse=3 WtCom= 8.77D-01 WtEn= 1.23D-01
 Coeff-Com:  0.301D-01 0.466D-01 0.378D+00 0.546D+00
 Coeff-En:   0.000D+00 0.000D+00 0.336D+00 0.664D+00
 Coeff:      0.264D-01 0.408D-01 0.372D+00 0.560D+00
 Gap=     0.166 Goal=   None    Shift=    0.000
 RMSDP=1.12D-03 MaxDP=2.26D-02 DE=-1.20D-02 OVMax= 3.14D-02

 Cycle   5  Pass 1  IDiag  1:
 E= -593.030599690213     Delta-E=       -0.007993264912 Rises=F Damp=F
 DIIS: error= 1.07D-03 at cycle   5 NSaved=   5.
 NSaved= 5 IEnMin= 5 EnMin= -593.030599690213     IErMin= 5 ErrMin= 1.07D-03
 ErrMax= 1.07D-03  0.00D+00 EMaxC= 1.00D-01 BMatC= 1.28D-04 BMatP= 8.89D-03
 IDIUse=3 WtCom= 9.89D-01 WtEn= 1.07D-02
 Coeff-Com:  0.868D-02-0.643D-02 0.151D+00 0.276D+00 0.571D+00
 Coeff-En:   0.000D+00 0.000D+00 0.000D+00 0.000D+00 0.100D+01
 Coeff:      0.858D-02-0.636D-02 0.149D+00 0.273D+00 0.576D+00
 Gap=     0.169 Goal=   None    Shift=    0.000
 RMSDP=2.27D-04 MaxDP=4.14D-03 DE=-7.99D-03 OVMax= 4.11D-03

 Cycle   6  Pass 1  IDiag  1:
 E= -593.030739330276     Delta-E=       -0.000139640063 Rises=F Damp=F
 DIIS: error= 1.40D-04 at cycle   6 NSaved=   6.
 NSaved= 6 IEnMin= 6 EnMin= -593.030739330276     IErMin= 6 ErrMin= 1.40D-04
 ErrMax= 1.40D-04  0.00D+00 EMaxC= 1.00D-01 BMatC= 2.89D-06 BMatP= 1.28D-04
 IDIUse=3 WtCom= 9.99D-01 WtEn= 1.40D-03
 Coeff-Com:  0.169D-02-0.359D-02 0.301D-01 0.580D-01 0.204D+00 0.710D+00
 Coeff-En:   0.000D+00 0.000D+00 0.000D+00 0.000D+00 0.000D+00 0.100D+01
 Coeff:      0.169D-02-0.359D-02 0.301D-01 0.579D-01 0.204D+00 0.710D+00
 Gap=     0.168 Goal=   None    Shift=    0.000
 RMSDP=9.04D-05 MaxDP=3.00D-03 DE=-1.40D-04 OVMax= 6.82D-04

 Cycle   7  Pass 1  IDiag  1:
 E= -593.030742751888     Delta-E=       -0.000003421612 Rises=F Damp=F
 DIIS: error= 1.73D-05 at cycle   7 NSaved=   7.
 NSaved= 7 IEnMin= 7 EnMin= -593.030742751888     IErMin= 7 ErrMin= 1.73D-05
 ErrMax= 1.73D-05  0.00D+00 EMaxC= 1.00D-01 BMatC= 6.35D-08 BMatP= 2.89D-06
 IDIUse=1 WtCom= 1.00D+00 WtEn= 0.00D+00
 Coeff-Com:  0.206D-03-0.843D-03 0.351D-02 0.685D-02 0.414D-01 0.207D+00
 Coeff-Com:  0.742D+00
 Coeff:      0.206D-03-0.843D-03 0.351D-02 0.685D-02 0.414D-01 0.207D+00
 Coeff:      0.742D+00
 Gap=     0.168 Goal=   None    Shift=    0.000
 RMSDP=5.21D-06 MaxDP=1.23D-04 DE=-3.42D-06 OVMax= 1.23D-04

 Cycle   8  Pass 1  IDiag  1:
 E= -593.030742802144     Delta-E=       -0.000000050256 Rises=F Damp=F
 DIIS: error= 1.11D-05 at cycle   8 NSaved=   8.
 NSaved= 8 IEnMin= 8 EnMin= -593.030742802144     IErMin= 8 ErrMin= 1.11D-05
 ErrMax= 1.11D-05  0.00D+00 EMaxC= 1.00D-01 BMatC= 1.82D-08 BMatP= 6.35D-08
 IDIUse=1 WtCom= 1.00D+00 WtEn= 0.00D+00
 Coeff-Com: -0.149D-04-0.120D-03-0.875D-03-0.163D-02 0.319D-02 0.439D-01
 Coeff-Com:  0.396D+00 0.559D+00
 Coeff:     -0.149D-04-0.120D-03-0.875D-03-0.163D-02 0.319D-02 0.439D-01
 Coeff:      0.396D+00 0.559D+00
 Gap=     0.168 Goal=   None    Shift=    0.000
 RMSDP=1.87D-06 MaxDP=5.30D-05 DE=-5.03D-08 OVMax= 4.36D-05

 Cycle   9  Pass 1  IDiag  1:
 E= -593.030742822998     Delta-E=       -0.000000020854 Rises=F Damp=F
 DIIS: error= 6.18D-07 at cycle   9 NSaved=   9.
 NSaved= 9 IEnMin= 9 EnMin= -593.030742822998     IErMin= 9 ErrMin= 6.18D-07
 ErrMax= 6.18D-07  0.00D+00 EMaxC= 1.00D-01 BMatC= 5.91D-11 BMatP= 1.82D-08
 IDIUse=1 WtCom= 1.00D+00 WtEn= 0.00D+00
 Coeff-Com:  0.975D-06-0.146D-06-0.165D-03-0.248D-03-0.983D-03-0.258D-02
 Coeff-Com:  0.744D-02 0.433D-01 0.953D+00
 Coeff:      0.975D-06-0.146D-06-0.165D-03-0.248D-03-0.983D-03-0.258D-02
 Coeff:      0.744D-02 0.433D-01 0.953D+00
 Gap=     0.168 Goal=   None    Shift=    0.000
 RMSDP=9.22D-07 MaxDP=2.95D-05 DE=-2.09D-08 OVMax= 4.65D-06

 Cycle  10  Pass 1  IDiag  1:
 E= -593.030742823089     Delta-E=       -0.000000000090 Rises=F Damp=F
 DIIS: error= 1.65D-07 at cycle  10 NSaved=  10.
 NSaved=10 IEnMin=10 EnMin= -593.030742823089     IErMin=10 ErrMin= 1.65D-07
 ErrMax= 1.65D-07  0.00D+00 EMaxC= 1.00D-01 BMatC= 1.55D-12 BMatP= 5.91D-11
 IDIUse=1 WtCom= 1.00D+00 WtEn= 0.00D+00
 Coeff-Com: -0.422D-08 0.102D-05-0.223D-04-0.360D-04-0.245D-03-0.123D-02
 Coeff-Com: -0.433D-02 0.104D-02 0.170D+00 0.835D+00
 Coeff:     -0.422D-08 0.102D-05-0.223D-04-0.360D-04-0.245D-03-0.123D-02
 Coeff:     -0.433D-02 0.104D-02 0.170D+00 0.835D+00
 Gap=     0.168 Goal=   None    Shift=    0.000
 RMSDP=6.10D-08 MaxDP=1.28D-06 DE=-9.05D-11 OVMax= 5.33D-07

 Cycle  11  Pass 1  IDiag  1:
 E= -593.030742823090     Delta-E=       -0.000000000001 Rises=F Damp=F
 DIIS: error= 6.03D-08 at cycle  11 NSaved=  11.
 NSaved=11 IEnMin=11 EnMin= -593.030742823090     IErMin=11 ErrMin= 6.03D-08
 ErrMax= 6.03D-08  0.00D+00 EMaxC= 1.00D-01 BMatC= 9.79D-14 BMatP= 1.55D-12
 IDIUse=1 WtCom= 1.00D+00 WtEn= 0.00D+00
 Coeff-Com: -0.241D-06 0.648D-06 0.279D-06-0.143D-05-0.321D-04-0.274D-03
 Coeff-Com: -0.169D-02-0.200D-02 0.259D-02 0.251D+00 0.751D+00
 Coeff:     -0.241D-06 0.648D-06 0.279D-06-0.143D-05-0.321D-04-0.274D-03
 Coeff:     -0.169D-02-0.200D-02 0.259D-02 0.251D+00 0.751D+00
 Gap=     0.168 Goal=   None    Shift=    0.000
 RMSDP=3.51D-08 MaxDP=1.07D-06 DE=-1.14D-12 OVMax= 1.26D-07

 Cycle  12  Pass 1  IDiag  1:
 E= -593.030742823091     Delta-E=       -0.000000000001 Rises=F Damp=F
 DIIS: error= 5.00D-09 at cycle  12 NSaved=  12.
 NSaved=12 IEnMin=12 EnMin= -593.030742823091     IErMin=12 ErrMin= 5.00D-09
 ErrMax= 5.00D-09  0.00D+00 EMaxC= 1.00D-01 BMatC= 1.96D-15 BMatP= 9.79D-14
 IDIUse=1 WtCom= 1.00D+00 WtEn= 0.00D+00
 Coeff-Com: -0.598D-07 0.719D-07 0.616D-06 0.891D-06 0.428D-05 0.149D-04
 Coeff-Com:  0.132D-04-0.261D-03-0.436D-02 0.103D-01 0.797D-01 0.915D+00
 Coeff:     -0.598D-07 0.719D-07 0.616D-06 0.891D-06 0.428D-05 0.149D-04
 Coeff:      0.132D-04-0.261D-03-0.436D-02 0.103D-01 0.797D-01 0.915D+00
 Gap=     0.168 Goal=   None    Shift=    0.000
 RMSDP=1.02D-09 MaxDP=2.77D-08 DE=-1.14D-12 OVMax= 1.93D-08

 SCF Done:  E(RB3LYP) =  -593.030742823     A.U. after   12 cycles
            NFock= 12  Conv=0.10D-08     -V/T= 2.0050
 KE= 5.900748594971D+02 PE=-1.626851846600D+03 EE= 3.354699311726D+02
 Leave Link  502 at Sun Oct 13 09:49:26 2024, MaxMem=  2684354560 cpu:              35.9 elap:               1.6
 (Enter /usr/local/g16_AVX//g16/l801.exe)
 DoSCS=F DFT=T ScalE2(SS,OS)=  1.000000  1.000000
 Range of M.O.s used for correlation:     1    98
 NBasis=    98 NAE=    20 NBE=    20 NFC=     0 NFV=     0
 NROrb=     98 NOA=    20 NOB=    20 NVA=    78 NVB=    78

 **** Warning!!: The largest alpha MO coefficient is  0.95315141D+02

 Leave Link  801 at Sun Oct 13 09:49:26 2024, MaxMem=  2684354560 cpu:               1.5 elap:               0.1
 (Enter /usr/local/g16_AVX//g16/l1101.exe)
 Using compressed storage, NAtomX=     7.
 Will process      8 centers per pass.
 Leave Link 1101 at Sun Oct 13 09:49:27 2024, MaxMem=  2684354560 cpu:              13.9 elap:               0.7
 (Enter /usr/local/g16_AVX//g16/l1102.exe)
 Symmetrizing basis deriv contribution to polar:
 IMax=3 JMax=2 DiffMx= 0.00D+00
 Leave Link 1102 at Sun Oct 13 09:49:27 2024, MaxMem=  2684354560 cpu:               2.2 elap:               0.1
 (Enter /usr/local/g16_AVX//g16/l1110.exe)
 Forming Gx(P) for the SCF density, NAtomX=     7.
 Integral derivatives from FoFJK, PRISM(SPDF).
 Do as many integral derivatives as possible in FoFJK.
 G2DrvN: MDV=    2684353864.
 G2DrvN: will do     8 centers at a time, making    1 passes.
 Calling FoFCou, ICntrl=  3107 FMM=F I1Cent=   0 AccDes= 0.00D+00.
 FoFJK:  IHMeth= 1 ICntrl=    3107 DoSepK=F KAlg= 0 I1Cent=           0 FoldK=F
 IRaf=         0 NMat=       1 IRICut=       1 DoRegI=T DoRafI=F ISym2E= 0 IDoP0=0 IntGTp=1.
 FoFCou: FMM=F IPFlag=           0 FMFlag=      100000 FMFlg1=           0
         NFxFlg=           0 DoJE=F BraDBF=F KetDBF=F FulRan=T
         wScrn=  0.000000 ICntrl=      3107 IOpCl=  0 I1Cent=           0 NGrid=           0
         NMat0=    1 NMatS0=      1 NMatT0=    0 NMatD0=    1 NMtDS0=    0 NMtDT0=    0
 Symmetry not used in FoFCou.
 End of G2Drv F.D. properties file   721 does not exist.
 End of G2Drv F.D. properties file   722 does not exist.
 End of G2Drv F.D. properties file   788 does not exist.
 Leave Link 1110 at Sun Oct 13 09:49:29 2024, MaxMem=  2684354560 cpu:              37.4 elap:               1.5
 (Enter /usr/local/g16_AVX//g16/l1002.exe)
 Minotr:  Closed shell wavefunction.
          IDoAtm=1111111
          Direct CPHF calculation.
          Differentiating once with respect to electric field.
                with respect to dipole field.
          Differentiating once with respect to nuclear coordinates.
          Requested convergence is 1.0D-08 RMS, and 1.0D-07 maximum.
          Secondary convergence is 1.0D-12 RMS, and 1.0D-12 maximum.
          NewPWx=T KeepS1=F KeepF1=F KeepIn=T MapXYZ=F SortEE=F KeepMc=T.
         2122 words used for storage of precomputed grid.
 Keep R1 ints in memory in canonical form, NReq=35668383.
 FoFCou: FMM=F IPFlag=           0 FMFlag=           0 FMFlg1=           0
         NFxFlg=           0 DoJE=F BraDBF=F KetDBF=F FulRan=T
         wScrn=  0.000000 ICntrl=       600 IOpCl=  0 I1Cent=           0 NGrid=           0
         NMat0=    1 NMatS0=   4851 NMatT0=    0 NMatD0=    1 NMtDS0=    0 NMtDT0=    0
 Symmetry not used in FoFCou.
 Two-electron integral symmetry not used.
          MDV=    2684354560 using IRadAn=       1.
          Solving linear equations simultaneously, MaxMat=       0.
          There are    24 degrees of freedom in the 1st order CPHF.  IDoFFX=6 NUNeed=     3.
     21 vectors produced by pass  0 Test12= 6.50D-15 4.17D-09 XBig12= 8.56D+01 5.34D+00.
 AX will form    21 AO Fock derivatives at one time.
     21 vectors produced by pass  1 Test12= 6.50D-15 4.17D-09 XBig12= 5.31D+01 3.04D+00.
     21 vectors produced by pass  2 Test12= 6.50D-15 4.17D-09 XBig12= 2.63D+00 4.66D-01.
     21 vectors produced by pass  3 Test12= 6.50D-15 4.17D-09 XBig12= 2.37D-02 3.36D-02.
     21 vectors produced by pass  4 Test12= 6.50D-15 4.17D-09 XBig12= 5.10D-05 1.61D-03.
     20 vectors produced by pass  5 Test12= 6.50D-15 4.17D-09 XBig12= 8.39D-08 6.33D-05.
      6 vectors produced by pass  6 Test12= 6.50D-15 4.17D-09 XBig12= 1.63D-10 2.76D-06.
      1 vectors produced by pass  7 Test12= 6.50D-15 4.17D-09 XBig12= 2.43D-13 1.53D-07.
      1 vectors produced by pass  8 Test12= 6.50D-15 4.17D-09 XBig12= 3.72D-16 5.71D-09.
 InvSVY:  IOpt=1 It=  1 EMax= 4.44D-15
 Solved reduced A of dimension   133 with    24 vectors.
 FullF1:  Do perturbations      1 to       3.
 Isotropic polarizability for W=    0.000000       58.37 Bohr**3.
 End of Minotr F.D. properties file   721 does not exist.
 End of Minotr F.D. properties file   722 does not exist.
 End of Minotr F.D. properties file   788 does not exist.
 Leave Link 1002 at Sun Oct 13 09:49:31 2024, MaxMem=  2684354560 cpu:              53.6 elap:               2.1
 (Enter /usr/local/g16_AVX//g16/l601.exe)
 Copying SCF densities to generalized density rwf, IOpCl= 0 IROHF=0.

 **********************************************************************

            Population analysis using the SCF Density.

 **********************************************************************

 Alpha  occ. eigenvalues -- -101.26279 -14.21601 -10.11048 -10.10222  -9.17726
 Alpha  occ. eigenvalues --   -6.93499  -6.93493  -6.93493  -0.76962  -0.59384
 Alpha  occ. eigenvalues --   -0.51749  -0.33316  -0.30371  -0.30370  -0.23657
 Alpha  occ. eigenvalues --   -0.20604  -0.20604  -0.06341  -0.06341  -0.06140
 Alpha virt. eigenvalues --    0.10688   0.14656   0.14657   0.14682   0.15462
 Alpha virt. eigenvalues --    0.15463   0.19704   0.20693   0.21077   0.21077
 Alpha virt. eigenvalues --    0.24002   0.24003   0.24114   0.26029   0.26029
 Alpha virt. eigenvalues --    0.26254   0.31379   0.34088   0.34088   0.34713
 Alpha virt. eigenvalues --    0.34713   0.35117   0.39137   0.42447   0.47888
 Alpha virt. eigenvalues --    0.72262   0.78815   0.78815   0.83305   0.83307
 Alpha virt. eigenvalues --    0.84432   0.85985   0.85986   0.88500   0.97679
 Alpha virt. eigenvalues --    1.00334   1.04249   1.04250   1.11633   1.12203
 Alpha virt. eigenvalues --    1.12204   1.14376   1.14377   1.16805   1.16805
 Alpha virt. eigenvalues --    1.24229   1.25037   1.36194   1.51414   1.51414
 Alpha virt. eigenvalues --    1.51866   1.65818   1.65818   1.78481   1.78483
 Alpha virt. eigenvalues --    1.85277   2.07725   2.07725   2.10851   2.14539
 Alpha virt. eigenvalues --    2.21127   2.21133   2.45974   2.45977   2.78113
 Alpha virt. eigenvalues --    2.78117   2.78141   2.93158   2.98477   2.98480
 Alpha virt. eigenvalues --    3.19923   3.45568   3.55345   3.55351   4.20516
 Alpha virt. eigenvalues --    4.38029   4.57772   4.67671
          Condensed to atoms (all electrons):
               1          2          3          4          5          6
     1  C    5.595014  -0.143647   0.429086   0.428975   0.428975  -0.612892
     2  Cl  -0.143647  17.970746  -0.025763  -0.025791  -0.025790   0.098763
     3  H    0.429086  -0.025763   0.482273  -0.020955  -0.020957  -0.057224
     4  H    0.428975  -0.025791  -0.020955   0.482265  -0.020961  -0.057066
     5  H    0.428975  -0.025790  -0.020957  -0.020961   0.482261  -0.057063
     6  C   -0.612892   0.098763  -0.057224  -0.057066  -0.057063   6.299451
     7  N   -0.087763   0.002022  -0.004835  -0.004849  -0.004849   0.609091
               7
     1  C   -0.087763
     2  Cl   0.002022
     3  H   -0.004835
     4  H   -0.004849
     5  H   -0.004849
     6  C    0.609091
     7  N    7.034975
 Mulliken charges:
               1
     1  C   -0.037749
     2  Cl  -0.850540
     3  H    0.218375
     4  H    0.218382
     5  H    0.218384
     6  C   -0.223060
     7  N   -0.543792
 Sum of Mulliken charges =  -1.00000
 Mulliken charges with hydrogens summed into heavy atoms:
               1
     1  C    0.617391
     2  Cl  -0.850540
     6  C   -0.223060
     7  N   -0.543792
 APT charges:
               1
     1  C    0.570052
     2  Cl  -1.018449
     3  H    0.046508
     4  H    0.046487
     5  H    0.046490
     6  C   -0.193410
     7  N   -0.497679
 Sum of APT charges =  -1.00000
 APT charges with hydrogens summed into heavy atoms:
               1
     1  C    0.709537
     2  Cl  -1.018449
     6  C   -0.193410
     7  N   -0.497679
 Electronic spatial extent (au):  <R**2>=            824.0505
 Charge=             -1.0000 electrons
 Dipole moment (field-independent basis, Debye):
    X=              3.8649    Y=              0.0000    Z=             -0.0010  Tot=              3.8649
 Quadrupole moment (field-independent basis, Debye-Ang):
   XX=            -84.6358   YY=            -35.4860   ZZ=            -35.4858
   XY=              0.0000   XZ=              0.0002   YZ=              0.0000
 Traceless Quadrupole moment (field-independent basis, Debye-Ang):
   XX=            -32.7666   YY=             16.3832   ZZ=             16.3834
   XY=              0.0000   XZ=              0.0002   YZ=              0.0000
 Octapole moment (field-independent basis, Debye-Ang**2):
  XXX=            -30.4476  YYY=             -0.0065  ZZZ=             -0.9304  XYY=              2.0118
  XXY=              0.0002  XXZ=             -0.0066  XZZ=              2.0116  YZZ=              0.0065
  YYZ=              0.9301  XYZ=              0.0000
 Hexadecapole moment (field-independent basis, Debye-Ang**3):
 XXXX=          -1627.6950 YYYY=            -57.3637 ZZZZ=            -57.3633 XXXY=              0.0005
 XXXZ=              0.0008 YYYX=             -0.0004 YYYZ=              0.0000 ZZZX=             -0.0459
 ZZZY=             -0.0000 XXYY=           -208.5931 XXZZ=           -208.5931 YYZZ=            -19.1216
 XXYZ=             -0.0000 YYXZ=              0.0625 ZZXY=              0.0004
 N-N= 1.082763131072D+02 E-N=-1.626851846337D+03  KE= 5.900748594971D+02
  Exact polarizability:  93.426  -0.000  40.840   0.002   0.000  40.841
 Approx polarizability: 113.347  -0.000  50.327   0.006   0.000  50.327
 No NMR shielding tensors so no spin-rotation constants.
 Leave Link  601 at Sun Oct 13 09:49:31 2024, MaxMem=  2684354560 cpu:               7.4 elap:               0.4
 (Enter /usr/local/g16_AVX//g16/l701.exe)
 ... and contract with generalized density number  0.
 Compute integral second derivatives.
 Leave Link  701 at Sun Oct 13 09:49:32 2024, MaxMem=  2684354560 cpu:               5.3 elap:               0.3
 (Enter /usr/local/g16_AVX//g16/l702.exe)
 L702 exits ... SP integral derivatives will be done elsewhere.
 Leave Link  702 at Sun Oct 13 09:49:32 2024, MaxMem=  2684354560 cpu:               0.4 elap:               0.0
 (Enter /usr/local/g16_AVX//g16/l703.exe)
 Integral derivatives from FoFJK, PRISM(SPDF).
 Compute integral second derivatives, UseDBF=F ICtDFT=           0.
 Calling FoFJK, ICntrl=    100127 FMM=F ISym2X=0 I1Cent= 0 IOpClX= 0 NMat=1 NMatS=1 NMatT=0.
 FoFJK:  IHMeth= 1 ICntrl=  100127 DoSepK=F KAlg= 0 I1Cent=           0 FoldK=F
 IRaf=         0 NMat=       1 IRICut=       1 DoRegI=T DoRafI=F ISym2E= 0 IDoP0=0 IntGTp=1.
 FoFCou: FMM=F IPFlag=           0 FMFlag=      100000 FMFlg1=         800
         NFxFlg=           0 DoJE=F BraDBF=F KetDBF=F FulRan=T
         wScrn=  0.000000 ICntrl=    100127 IOpCl=  0 I1Cent=           0 NGrid=           0
         NMat0=    1 NMatS0=      1 NMatT0=    0 NMatD0=    1 NMtDS0=    0 NMtDT0=    0
 Symmetry not used in FoFCou.
 Leave Link  703 at Sun Oct 13 09:49:34 2024, MaxMem=  2684354560 cpu:              63.9 elap:               2.5
 (Enter /usr/local/g16_AVX//g16/l716.exe)
 Dipole        = 1.52056490D+00 6.71340820D-06-3.91584677D-04
 Polarizability= 9.34258566D+01-4.13537441D-05 4.08397859D+01
                 1.59460986D-03 9.56521230D-06 4.08408505D+01
 Full mass-weighted force constant matrix:
 Low frequencies ---  -52.2437  -52.0783    0.0026    0.0059    0.0061   75.2575
 Low frequencies ---  155.4652  182.7471  182.7919
 Diagonal vibrational polarizability:
     1212.4244007      20.8629902      20.8852719
 Harmonic frequencies (cm**-1), IR intensities (KM/Mole), Raman scattering
 activities (A**4/AMU), depolarization ratios for plane and unpolarized
 incident light, reduced masses (AMU), force constants (mDyne/A),
 and normal coordinates:
                      1                      2                      3
                      A                      A                      A
 Frequencies --     75.2575               167.2609               167.3448
 Red. masses --     10.0631                 4.6695                 4.6706
 Frc consts  --      0.0336                 0.0770                 0.0771
 IR Inten    --    251.2394                21.5974                21.5958
  Atom  AN      X      Y      Z        X      Y      Z        X      Y      Z
     1   6     0.73   0.00  -0.00     0.00   0.01   0.43    -0.00   0.43  -0.01
     2  17     0.00  -0.00   0.00    -0.00  -0.00  -0.11    -0.00  -0.11   0.00
     3   1     0.24  -0.00   0.11    -0.16   0.01   0.48     0.00   0.47  -0.01
     4   1     0.23  -0.09  -0.06     0.08   0.01   0.47     0.13   0.47  -0.01
     5   1     0.23   0.09  -0.05     0.08   0.01   0.47    -0.14   0.47  -0.01
     6   6    -0.36   0.00   0.00    -0.00   0.00   0.11     0.00   0.11  -0.00
     7   7    -0.37  -0.00  -0.00     0.00  -0.01  -0.29     0.00  -0.29   0.01
                      4                      5                      6
                      A                      A                      A
 Frequencies --    232.3591               438.5967               438.6209
 Red. masses --     14.1457                 3.7852                 3.7852
 Frc consts  --      0.4500                 0.4290                 0.4291
 IR Inten    --     37.3790                 0.0000                 0.0000
  Atom  AN      X      Y      Z        X      Y      Z        X      Y      Z
     1   6    -0.41   0.00   0.00    -0.00   0.01  -0.15     0.00  -0.15  -0.01
     2  17     0.47  -0.00  -0.00     0.00  -0.00   0.02    -0.00   0.02   0.00
     3   1    -0.31   0.00  -0.02     0.55   0.01  -0.32     0.02  -0.32  -0.01
     4   1    -0.31   0.02   0.01    -0.26   0.01  -0.32    -0.49  -0.32  -0.01
     5   1    -0.31  -0.02   0.01    -0.29   0.01  -0.32     0.47  -0.32  -0.01
     6   6    -0.40   0.00  -0.00    -0.00  -0.01   0.42    -0.00   0.42   0.01
     7   7    -0.40  -0.00  -0.00     0.00   0.01  -0.21     0.00  -0.21  -0.01
                      7                      8                      9
                      A                      A                      A
 Frequencies --   1011.3828              1011.4229              1227.5498
 Red. masses --      1.2920                 1.2919                 1.0773
 Frc consts  --      0.7787                 0.7787                 0.9565
 IR Inten    --      0.1137                 0.1142                 0.9963
  Atom  AN      X      Y      Z        X      Y      Z        X      Y      Z
     1   6    -0.00  -0.01   0.12     0.00  -0.12  -0.01    -0.07  -0.00  -0.00
     2  17     0.00   0.00  -0.00     0.00   0.00   0.00    -0.01   0.00   0.00
     3   1     0.76   0.03  -0.09    -0.09   0.23   0.01     0.55   0.00  -0.16
     4   1    -0.30   0.08  -0.21     0.70   0.12  -0.04     0.55   0.14   0.08
     5   1    -0.46  -0.05  -0.19    -0.61   0.13   0.09     0.55  -0.14   0.08
     6   6     0.00   0.01  -0.10    -0.00   0.10   0.01    -0.01   0.00   0.00
     7   7    -0.00  -0.00   0.02     0.00  -0.02  -0.00    -0.04   0.00  -0.00
                     10                     11                     12
                      A                      A                      A
 Frequencies --   1435.3873              1435.3976              2156.3805
 Red. masses --      1.0602                 1.0602                12.4176
 Frc consts  --      1.2870                 1.2870                34.0204
 IR Inten    --      8.0489                 8.0547                 0.2090
  Atom  AN      X      Y      Z        X      Y      Z        X      Y      Z
     1   6    -0.00   0.01  -0.07    -0.00  -0.07  -0.01     0.00   0.00  -0.00
     2  17     0.00   0.00  -0.00     0.00  -0.00  -0.00    -0.00  -0.00   0.00
     3   1     0.28  -0.15  -0.13     0.06   0.74  -0.02    -0.09  -0.00   0.05
     4   1    -0.09  -0.39   0.59    -0.27   0.02  -0.27    -0.09  -0.04  -0.02
     5   1    -0.19   0.35   0.45     0.22   0.16   0.48    -0.09   0.04  -0.02
     6   6     0.00   0.00  -0.01     0.00  -0.01  -0.00     0.76  -0.00   0.00
     7   7     0.00  -0.00   0.00     0.00   0.00   0.00    -0.63   0.00  -0.00
                     13                     14                     15
                      A                      A                      A
 Frequencies --   3134.1671              3271.6168              3271.6494
 Red. masses --      1.0202                 1.1139                 1.1139
 Frc consts  --      5.9042                 7.0247                 7.0248
 IR Inten    --      0.3488                 0.7745                 0.7746
  Atom  AN      X      Y      Z        X      Y      Z        X      Y      Z
     1   6    -0.03  -0.00  -0.00     0.00   0.01  -0.10    -0.00  -0.10  -0.01
     2  17    -0.00  -0.00  -0.00     0.00  -0.00   0.00     0.00   0.00   0.00
     3   1     0.14  -0.00   0.56     0.21   0.00   0.78     0.02  -0.02   0.08
     4   1     0.14  -0.48  -0.28    -0.09   0.29   0.15    -0.20   0.61   0.37
     5   1     0.14   0.48  -0.28    -0.13  -0.41   0.22     0.17   0.54  -0.33
     6   6    -0.00   0.00  -0.00     0.00  -0.00   0.00     0.00   0.00   0.00
     7   7     0.00  -0.00  -0.00    -0.00   0.00  -0.00    -0.00  -0.00  -0.00

 -------------------
 - Thermochemistry -
 -------------------
 Temperature   298.150 Kelvin.  Pressure   1.00000 Atm.
 Atom     1 has atomic number  6 and mass  12.00000
 Atom     2 has atomic number 17 and mass  34.96885
 Atom     3 has atomic number  1 and mass   1.00783
 Atom     4 has atomic number  1 and mass   1.00783
 Atom     5 has atomic number  1 and mass   1.00783
 Atom     6 has atomic number  6 and mass  12.00000
 Atom     7 has atomic number  7 and mass  14.00307
 Molecular mass:    75.99540 amu.
 Principal axes and moments of inertia in atomic units:
                           1         2         3
     Eigenvalues --    11.781441416.723001416.72353
           X            1.00000   0.00002  -0.00000
           Y           -0.00000   0.07226   0.99739
           Z           -0.00002   0.99739  -0.07226
 This molecule is an asymmetric top.
 Rotational symmetry number  1.
 Rotational temperatures (Kelvin)      7.35172     0.06114     0.06114
 Rotational constants (GHZ):         153.18505     1.27388     1.27388
 Zero-point vibrational energy     116482.7 (Joules/Mol)
                                   27.84004 (Kcal/Mol)
 Warning -- explicit consideration of   6 degrees of freedom as
           vibrations may cause significant error
 Vibrational temperatures:    108.28   240.65   240.77   334.31   631.04
          (Kelvin)            631.08  1455.15  1455.21  1766.17  2065.20
                             2065.22  3102.55  4509.37  4707.13  4707.17
 
 Zero-point correction=                           0.044366 (Hartree/Particle)
 Thermal correction to Energy=                    0.050367
 Thermal correction to Enthalpy=                  0.051311
 Thermal correction to Gibbs Free Energy=         0.015066
 Sum of electronic and zero-point Energies=           -592.986377
 Sum of electronic and thermal Energies=              -592.980376
 Sum of electronic and thermal Enthalpies=            -592.979432
 Sum of electronic and thermal Free Energies=         -593.015677
 
                     E (Thermal)             CV                S
                      KCal/Mol        Cal/Mol-Kelvin    Cal/Mol-Kelvin
 Total                   31.606             17.368             76.285
 Electronic               0.000              0.000              0.000
 Translational            0.889              2.981             38.900
 Rotational               0.889              2.981             24.673
 Vibrational             29.828             11.406             12.712
 Vibration     1          0.599              1.966              4.011
 Vibration     2          0.624              1.883              2.466
 Vibration     3          0.624              1.883              2.465
 Vibration     4          0.653              1.791              1.861
 Vibration     5          0.799              1.386              0.831
 Vibration     6          0.799              1.386              0.831
                       Q            Log10(Q)             Ln(Q)
 Total Bot       0.117557D-06         -6.929752        -15.956344
 Total V=0       0.300015D+14         13.477143         31.032269
 Vib (Bot)       0.820131D-19        -19.086117        -43.947408
 Vib (Bot)    1  0.273847D+01          0.437508          1.007399
 Vib (Bot)    2  0.120593D+01          0.081321          0.187249
 Vib (Bot)    3  0.120529D+01          0.081092          0.186720
 Vib (Bot)    4  0.846767D+00         -0.072236         -0.166330
 Vib (Bot)    5  0.394585D+00         -0.403859         -0.929920
 Vib (Bot)    6  0.394556D+00         -0.403891         -0.929994
 Vib (V=0)       0.209304D+02          1.320778          3.041204
 Vib (V=0)    1  0.328374D+01          0.516369          1.188983
 Vib (V=0)    2  0.180547D+01          0.256591          0.590823
 Vib (V=0)    3  0.180488D+01          0.256450          0.590497
 Vib (V=0)    4  0.148337D+01          0.171249          0.394316
 Vib (V=0)    5  0.113694D+01          0.055739          0.128344
 Vib (V=0)    6  0.113693D+01          0.055732          0.128328
 Electronic      0.100000D+01          0.000000          0.000000
 Translational   0.260396D+08          7.415635         17.075130
 Rotational      0.550465D+05          4.740730         10.915934
 
                                                      RxCoord=-3.19928 DE=22.89
                                                             IR Spectrum
 
      3    3                                     2                           1       1       1                                       
      2    1                                     1                           4       2       0                     4       2  1      
      7    3                                     5                           3       2       1                     3       3  6   7  
      2    4                                     6                           5       8       1                     9       2  7   5  
 
      X    X                                     X                           X       X       X                             X  X   X  
                                                                                                                           X  X   X  
                                                                                                                           X  X   X  
                                                                                                                                  X  
                                                                                                                                  X  
                                                                                                                                  X  
                                                                                                                                  X  
                                                                                                                                  X  
                                                                                                                                  X  
                                                                                                                                  X  
                                                                                                                                  X  
                                                                                                                                  X  
                                                                                                                                  X  
                                                                                                                                  X  
                                                                                                                                  X  
                                                                                                                                  X  
                                                                                                                                  X  
                                                                                                                                  X  
                                                                                                                                  X  
                                                                                                                                  X  
 
 -------------------------------------------------------------------
 Center     Atomic                   Forces (Hartrees/Bohr)
 Number     Number              X              Y              Z
 -------------------------------------------------------------------
      1        6           0.071462799   -0.000000857   -0.000003199
      2       17          -0.018445470   -0.000000074    0.000005445
      3        1           0.000316826   -0.000003370    0.001818997
      4        1           0.000303584   -0.001561485   -0.000911641
      5        1           0.000304707    0.001566071   -0.000903535
      6        6          -0.023383144   -0.000000605    0.000006908
      7        7          -0.030559302    0.000000321   -0.000012976
 -------------------------------------------------------------------
 Cartesian Forces:  Max     0.071462799 RMS     0.018176309
 Z-matrix is all fixed cartesians, so copy forces.
 Force constants in Cartesian coordinates: 
                1             2             3             4             5 
      1  0.980437D-01
      2  0.256710D-05  0.629809D+00
      3  0.356403D-04  0.301431D-05  0.629808D+00
      4 -0.115745D-02  0.000000D+00  0.164604D-05  0.406672D-01
      5  0.000000D+00 -0.179719D-02  0.000000D+00  0.000000D+00 -0.168662D-02
      6  0.000000D+00  0.000000D+00 -0.179678D-02 -0.272759D-05  0.000000D+00
      7 -0.445751D-01  0.181627D-03 -0.781534D-01 -0.731405D-02 -0.235820D-05
      8  0.175037D-03 -0.457474D-01  0.666625D-03  0.288359D-05 -0.851724D-03
      9 -0.753382D-01  0.666774D-03 -0.333112D+00 -0.133367D-02 -0.486268D-05
     10 -0.445461D-01  0.675630D-01  0.392192D-01 -0.731588D-02 -0.825621D-03
     11  0.651280D-01 -0.260709D+00 -0.124794D+00  0.115234D-02  0.795819D-03
     12  0.378048D-01 -0.124796D+00 -0.118180D+00  0.669622D-03  0.964397D-03
     13 -0.445476D-01 -0.677472D-01  0.389065D-01 -0.731620D-02  0.828227D-03
     14 -0.653059D-01 -0.261863D+00  0.124124D+00 -0.115474D-02  0.804045D-03
     15  0.375033D-01  0.124127D+00 -0.117022D+00  0.664382D-03 -0.959209D-03
     16  0.189899D-01  0.000000D+00 -0.201585D-05 -0.126537D-01  0.000000D+00
     17  0.000000D+00 -0.743683D-01  0.000000D+00  0.000000D+00  0.345595D-02
     18 -0.179684D-04  0.000000D+00 -0.743736D-01  0.357243D-05  0.000000D+00
     19  0.177927D-01  0.000000D+00 -0.761189D-05 -0.490984D-02  0.000000D+00
     20  0.000000D+00  0.146759D-01  0.000000D+00  0.000000D+00 -0.720284D-03
     21  0.131224D-04  0.000000D+00  0.146771D-01 -0.282134D-05  0.000000D+00
                6             7             8             9            10 
      6 -0.170042D-02
      7  0.954523D-03  0.657417D-01
      8 -0.484303D-05 -0.188922D-03  0.444781D-01
      9  0.135116D-02  0.814430D-01 -0.699358D-03  0.345591D+00
     10 -0.478959D-03  0.334946D-02 -0.764723D-02 -0.361779D-02  0.657237D-01
     11  0.964399D-03 -0.730984D-03  0.200027D-02  0.275183D-02 -0.704065D-01
     12 -0.290357D-03  0.842375D-02 -0.239865D-01 -0.103930D-01 -0.408711D-01
     13 -0.474969D-03  0.334976D-02  0.766383D-02 -0.358246D-02  0.334699D-02
     14 -0.959226D-03  0.691561D-03  0.190100D-02 -0.269436D-02 -0.693176D-02
     15 -0.299301D-03  0.842715D-02  0.240440D-01 -0.102947D-01 -0.484393D-02
     16  0.212091D-05 -0.189962D-01  0.000000D+00  0.320255D-03 -0.190042D-01
     17  0.000000D+00  0.559479D-04 -0.251803D-02 -0.265506D-04  0.208127D-01
     18  0.345602D-02 -0.240581D-01 -0.264176D-04  0.893696D-02  0.120821D-01
     19  0.000000D+00 -0.155554D-02 -0.485534D-05  0.210888D-02 -0.155389D-02
     20  0.000000D+00 -0.687193D-05  0.737766D-03  0.652479D-05 -0.256455D-02
     21 -0.720322D-03  0.296298D-02  0.651138D-05 -0.207958D-02 -0.148961D-02
               11            12            13            14            15 
     11  0.269728D+00
     12  0.130757D+00  0.120368D+00
     13  0.695407D-02 -0.481154D-02  0.657248D-01
     14 -0.164941D-01  0.133135D-01  0.705978D-01  0.270939D+00
     15 -0.134277D-01  0.809819D-02 -0.405450D-01 -0.130056D+00  0.119155D+00
     16 -0.273843D-03 -0.156897D-03 -0.190040D-01  0.274930D-03 -0.155805D-03
     17  0.604804D-02  0.497090D-02 -0.208681D-01  0.609452D-02 -0.494442D-02
     18  0.497214D-02  0.370333D-03  0.119851D-01 -0.494582D-02  0.324134D-03
     19 -0.182314D-02 -0.105865D-02 -0.155368D-02  0.182809D-02 -0.105014D-02
     20 -0.136957D-02 -0.122312D-02  0.257139D-02 -0.138099D-02  0.121659D-02
     21 -0.122380D-02  0.269541D-04 -0.147763D-02  0.121728D-02  0.383110D-04
               16            17            18            19            20 
     16  0.117276D+01
     17 -0.659294D-05  0.983551D-01
     18  0.295345D-03  0.000000D+00  0.983527D-01
     19 -0.112209D+01  0.607438D-05 -0.290114D-03  0.111387D+01
     20  0.641157D-05 -0.370673D-01  0.000000D+00 -0.626379D-05  0.251244D-01
     21 -0.303004D-03  0.000000D+00 -0.370665D-01  0.296966D-03  0.000000D+00
               21 
     21  0.251241D-01
 Leave Link  716 at Sun Oct 13 09:49:34 2024, MaxMem=  2684354560 cpu:               4.5 elap:               0.2
 (Enter /usr/local/g16_AVX//g16/l103.exe)

 GradGradGradGradGradGradGradGradGradGradGradGradGradGradGradGradGradGrad
 Berny optimization.
 Search for a local minimum.
 Step number   1 out of a maximum of    2
 All quantities printed in internal units (Hartrees-Bohrs-Radians)
 Second derivative matrix not updated -- analytic derivatives used.
 ITU=  0
     Eigenvalues ---    0.00226   0.00523   0.00524   0.02973   0.02973
     Eigenvalues ---    0.04199   0.09219   0.09791   0.09791   0.14296
     Eigenvalues ---    0.14296   0.42888   0.91500   0.91501   2.26526
 Quadratic step=3.291D+01 exceeds max=3.000D-01 adjusted using Lamda=-2.561D-01.
 Angle between NR and scaled steps=  16.16 degrees.
 Angle between quadratic step and forces=  12.62 degrees.
 Linear search not attempted -- first point.
 B after Tr=    -0.011932   -0.000000    0.000002
         Rot=    1.000000    0.000000   -0.000001    0.000000 Ang=  -0.00 deg.
 Variable       Old X    -DE/DX   Delta X   Delta X   Delta X     New X
                                 (Linear)    (Quad)   (Total)
    X1        0.84461   0.07146   0.00000   0.25165   0.23972   1.08433
    Y1        0.00001  -0.00000   0.00000  -0.00000  -0.00000   0.00001
    Z1       -0.00046  -0.00000   0.00000  -0.00000   0.00000  -0.00046
    X2       -4.26526  -0.01845   0.00000  -0.04444  -0.05638  -4.32164
    Y2       -0.00000  -0.00000   0.00000   0.00000  -0.00000  -0.00000
    Z2        0.00020   0.00001   0.00000   0.00001   0.00001   0.00022
    X3        0.29364   0.00032   0.00000   0.02536   0.01342   0.30706
    Y3        0.00459  -0.00000   0.00000  -0.00007  -0.00007   0.00452
    Z3       -1.97443   0.00182   0.00000   0.03142   0.03142  -1.94301
    X4        0.29395   0.00030   0.00000   0.02530   0.01337   0.30731
    Y4        1.70721  -0.00156   0.00000  -0.02715  -0.02715   1.68006
    Z4        0.99060  -0.00091   0.00000  -0.01577  -0.01577   0.97483
    X5        0.29392   0.00030   0.00000   0.02530   0.01337   0.30729
    Y5       -1.71177   0.00157   0.00000   0.02722   0.02722  -1.68455
    Z5        0.98264  -0.00090   0.00000  -0.01564  -0.01564   0.96700
    X6        4.11156  -0.02338   0.00000  -0.09712  -0.10905   4.00251
    Y6        0.00000  -0.00000   0.00000  -0.00000  -0.00000   0.00000
    Z6       -0.00035   0.00001   0.00000   0.00003   0.00003  -0.00032
    X7        6.34068  -0.03056   0.00000  -0.10252  -0.11445   6.22622
    Y7       -0.00001   0.00000   0.00000   0.00000   0.00000  -0.00001
    Z7        0.00027  -0.00001   0.00000  -0.00004  -0.00005   0.00023
         Item               Value     Threshold  Converged?
 Maximum Force            0.071463     0.000450     NO 
 RMS     Force            0.018176     0.000300     NO 
 Maximum Displacement     0.239719     0.001800     NO 
 RMS     Displacement     0.065148     0.001200     NO 
 Predicted change in Energy=-2.374364D-02
 GradGradGradGradGradGradGradGradGradGradGradGradGradGradGradGradGradGrad

 Leave Link  103 at Sun Oct 13 09:49:35 2024, MaxMem=  2684354560 cpu:               4.9 elap:               0.2
 (Enter /usr/local/g16_AVX//g16/l9999.exe)

 ----------------------------------------------------------------------

 Electric dipole moment (input orientation):
 (Debye = 10**-18 statcoulomb cm , SI units = C m)
                  (au)            (Debye)         (10**-30 SI)
   Tot        0.152056D+01      0.386489D+01      0.128919D+02
   x          0.152056D+01      0.386489D+01      0.128919D+02
   y          0.000000D+00      0.000000D+00      0.000000D+00
   z         -0.391585D-03     -0.995309D-03     -0.331999D-02

 Dipole polarizability, Alpha (input orientation).
 (esu units = cm**3 , SI units = C**2 m**2 J**-1)
 Alpha(0;0):
               (au)            (10**-24 esu)      (10**-40 SI)
   iso        0.583688D+02      0.864937D+01      0.962372D+01
   aniso      0.525855D+02      0.779237D+01      0.867018D+01
   xx         0.934259D+02      0.138443D+02      0.154038D+02
   yx        -0.413537D-04     -0.612799D-05     -0.681831D-05
   yy         0.408398D+02      0.605183D+01      0.673357D+01
   zx         0.159461D-02      0.236297D-03      0.262916D-03
   zy         0.000000D+00      0.000000D+00      0.000000D+00
   zz         0.408409D+02      0.605199D+01      0.673375D+01

 ----------------------------------------------------------------------

 Dipole orientation:
     6          0.00024736          0.00000761          0.84461507
    17          0.00089433          0.00001695         -4.26526484
     1          1.97435172          0.00459568          0.29414735
     1         -0.99068331          1.70719937          0.29369932
     1         -0.98271246         -1.71177436          0.29365982
     6         -0.00070734         -0.00001438          4.11155645
     7         -0.00190501         -0.00003745          6.34067526

 Electric dipole moment (dipole orientation):
 (Debye = 10**-18 statcoulomb cm , SI units = C m)
                  (au)            (Debye)         (10**-30 SI)
   Tot        0.152056D+01      0.386489D+01      0.128919D+02
   x          0.000000D+00      0.000000D+00      0.000000D+00
   y          0.000000D+00      0.000000D+00      0.000000D+00
   z          0.152056D+01      0.386489D+01      0.128919D+02

 Dipole polarizability, Alpha (dipole orientation).
 (esu units = cm**3 , SI units = C**2 m**2 J**-1)
 Alpha(0;0):
               (au)            (10**-24 esu)      (10**-40 SI)
   iso        0.583688D+02      0.864937D+01      0.962372D+01
   aniso      0.525855D+02      0.779237D+01      0.867018D+01
   xx         0.408409D+02      0.605199D+01      0.673375D+01
   yx         0.000000D+00      0.000000D+00      0.000000D+00
   yy         0.408398D+02      0.605183D+01      0.673357D+01
   zx        -0.151366D-01     -0.224301D-02     -0.249569D-02
   zy        -0.273594D-03     -0.405425D-04     -0.451096D-04
   zz         0.934259D+02      0.138443D+02      0.154038D+02

 ----------------------------------------------------------------------
 1\1\GINC-NODO8\Freq\RB3LYP\6-31++G(d,p)\C2H3Cl1N1(1-)\ALANQF\13-Oct-20
 24\0\\#p b3lyp 6-31++g(d,p) scf=verytight NoSymm freq=noraman int=ultr
 afine\\RxCoord=-3.19928 DE=22.89\\-1,1\C,0.446951,0.000006,-0.000246\C
 l,-2.257081,-0.000001,0.000108\H,0.155387,0.002428,-1.044822\H,0.15555
 ,0.903414,0.524203\H,0.155536,-0.905829,0.519993\C,2.175742,0.000002,-
 0.000186\N,3.355341,-0.000005,0.000144\\Version=ES64L-G16RevB.01\HF=-5
 93.0307428\RMSD=1.019e-09\RMSF=1.818e-02\ZeroPoint=0.0443659\Thermal=0
 .0503669\Dipole=1.5845075,0.0000071,-0.0004097\DipoleDeriv=1.532454,-0
 .0000005,-0.0000447,-0.0000085,0.0888194,0.0000003,0.0000328,0.0000002
 ,0.0888822,-1.2916256,0.0000004,0.0000199,0.0000014,-0.8818545,0.,0.00
 00337,-0.0000001,-0.8818657,0.0206871,-0.0000348,0.0153281,-0.000028,0
 .088114,0.0001329,0.013087,0.0001339,0.0307243,0.0206483,-0.0132728,-0
 .0077197,-0.0113458,0.0451831,-0.0249081,-0.0065978,-0.0249153,0.07362
 88,0.0206607,0.0133082,-0.0076564,0.0113812,0.044951,0.0247756,-0.0065
 45,0.0247819,0.0738594,-0.5543135,0.000001,-0.0000163,-0.0000049,-0.01
 29464,-0.0000007,0.0002029,-0.0000007,-0.0129703,-0.7485111,-0.0000014
 ,0.000089,0.0000046,-0.3722665,0.0000002,-0.0002135,0.0000002,-0.37225
 88\Polar=93.4258566,-0.0000414,40.8397859,0.0015946,0.0000096,40.84085
 05\Quadrupole=-24.3611956,12.1805311,12.1806644,0.0000288,0.0001187,0.
 0000132\PG=C01 [X(C2H3Cl1N1)]\NImag=0\\0.09804373,0.00000257,0.6298086
 1,0.00003564,0.00000301,0.62980773,-0.00115745,0.,0.00000165,0.0406671
 6,0.00000026,-0.00179719,0.,-0.00000042,-0.00168662,-0.00000066,0.,-0.
 00179678,-0.00000273,-0.00000031,-0.00170042,-0.04457514,0.00018163,-0
 .07815338,-0.00731405,-0.00000236,0.00095452,0.06574169,0.00017504,-0.
 04574738,0.00066663,0.00000288,-0.00085172,-0.00000484,-0.00018892,0.0
 4447810,-0.07533823,0.00066677,-0.33311221,-0.00133367,-0.00000486,0.0
 0135116,0.08144302,-0.00069936,0.34559133,-0.04454615,0.06756298,0.039
 21923,-0.00731588,-0.00082562,-0.00047896,0.00334946,-0.00764723,-0.00
 361779,0.06572366,0.06512804,-0.26070851,-0.12479410,0.00115234,0.0007
 9582,0.00096440,-0.00073098,0.00200027,0.00275183,-0.07040648,0.269728
 06,0.03780479,-0.12479634,-0.11818048,0.00066962,0.00096440,-0.0002903
 6,0.00842375,-0.02398654,-0.01039299,-0.04087108,0.13075723,0.12036835
 ,-0.04454765,-0.06774718,0.03890650,-0.00731620,0.00082823,-0.00047497
 ,0.00334976,0.00766383,-0.00358246,0.00334699,0.00695407,-0.00481154,0
 .06572477,-0.06530586,-0.26186315,0.12412448,-0.00115474,0.00080404,-0
 .00095923,0.00069156,0.00190100,-0.00269436,-0.00693176,-0.01649411,0.
 01331347,0.07059777,0.27093869,0.03750331,0.12412655,-0.11702178,0.000
 66438,-0.00095921,-0.00029930,0.00842715,0.02404402,-0.01029467,-0.004
 84393,-0.01342771,0.00809819,-0.04054497,-0.13005582,0.11915512,0.0189
 8993,-0.00000009,-0.00000202,-0.01265375,-0.00000008,0.00000212,-0.018
 99616,-0.00000074,0.00032025,-0.01900419,-0.00027384,-0.00015690,-0.01
 900400,0.00027493,-0.00015580,1.17276290,0.00000015,-0.07436831,-0.000
 00004,-0.00000014,0.00345595,-0.00000002,0.00005595,-0.00251803,-0.000
 02655,0.02081266,0.00604804,0.00497090,-0.02086810,0.00609452,-0.00494
 442,-0.00000659,0.09835511,-0.00001797,-0.00000001,-0.07437356,0.00000
 357,-0.00000002,0.00345602,-0.02405805,-0.00002642,0.00893696,0.012082
 15,0.00497214,0.00037033,0.01198507,-0.00494582,0.00032413,0.00029535,
 0.00000013,0.09835266,0.01779272,0.00000010,-0.00000761,-0.00490984,-0
 .00000001,0.00000067,-0.00155554,-0.00000486,0.00210888,-0.00155389,-0
 .00182314,-0.00105865,-0.00155368,0.00182809,-0.00105014,-1.12209473,0
 .00000607,-0.00029011,1.11387496,-0.00000019,0.01467593,0.00000002,0.0
 0000007,-0.00072028,0.,-0.00000687,0.00073777,0.00000652,-0.00256455,-
 0.00136957,-0.00122312,0.00257139,-0.00138099,0.00121659,0.00000641,-0
 .03706729,-0.00000001,-0.00000626,0.02512442,0.00001312,0.00000002,0.0
 1467708,-0.00000282,0.,-0.00072032,0.00296298,0.00000651,-0.00207958,-
 0.00148961,-0.00122380,0.00002695,-0.00147763,0.00121728,0.00003831,-0
 .00030300,-0.00000001,-0.03706654,0.00029697,0.,0.02512410\\-0.0714628
 0,0.00000086,0.00000320,0.01844547,0.00000007,-0.00000545,-0.00031683,
 0.00000337,-0.00181900,-0.00030358,0.00156149,0.00091164,-0.00030471,-
 0.00156607,0.00090353,0.02338314,0.00000060,-0.00000691,0.03055930,-0.
 00000032,0.00001298\\\@


 IT IS UNWORTHY OF EXCELLENT MEN TO LOSE HOURS LIKE SLAVES IN THE LABOR
 OF CALCULATION WHICH COULD BE SAFELY RELEGATED TO ANYONE ELSE
 IF A MACHINE WERE USED.
    -- G.W. VON LEIBNIZ
 Job cpu time:       0 days  0 hours  4 minutes 23.7 seconds.
 Elapsed time:       0 days  0 hours  0 minutes 11.7 seconds.
 File lengths (MBytes):  RWF=     88 Int=      0 D2E=      0 Chk=      2 Scr=      2
 Normal termination of Gaussian 16 at Sun Oct 13 09:49:35 2024.
