RxCoord=-3.19928 DE=22.89                                               
Freq      RB3LYP                                                      6-31++G(d,p)        
Number of atoms                            I                7
Info1-9                                    I   N=           9
          16          16           0           0           0         100
           6          18        -502
Full Title                                 C   N=           3
RxCoord=-3.19928 DE=22.89           
Route                                      C   N=           6
#p b3lyp 6-31++g(d,p) scf=verytight NoSymm freq=noraman int=
ultrafine   
Charge                                     I               -1
Multiplicity                               I                1
Number of electrons                        I               40
Number of alpha electrons                  I               20
Number of beta electrons                   I               20
Number of basis functions                  I               98
Number of independent functions            I               98
Number of point charges in /Mol/           I                0
Number of translation vectors              I                0
Atomic numbers                             I   N=           7
           6          17           1           1           1           6
           7
Nuclear charges                            R   N=           7
  6.00000000E+00  1.70000000E+01  1.00000000E+00  1.00000000E+00  1.00000000E+00
  6.00000000E+00  7.00000000E+00
Current cartesian coordinates              R   N=          21
  8.44614981E-01  1.13383567E-05 -4.64872627E-04 -4.26526493E+00 -1.88972612E-06
  2.04090421E-04  2.93638873E-01  4.58825503E-03 -1.97442743E+00  2.93946899E-01
  1.70720504E+00  9.90600104E-01  2.93920443E-01 -1.71176873E+00  9.82644357E-01
  4.11155650E+00  3.77945225E-06 -3.51489059E-04  6.34067554E+00 -9.44863062E-06
  2.72120562E-04
Number of symbols in /Mol/                 I                0
Force Field                                I                0
Atom Types                                 C   N=           7
                                                            
                        
Int Atom Types                             I   N=           7
           0           0           0           0           0           0
           0
MM charges                                 R   N=           7
  0.00000000E+00  0.00000000E+00  0.00000000E+00  0.00000000E+00  0.00000000E+00
  0.00000000E+00  0.00000000E+00
Integer atomic weights                     I   N=           7
          12          35           1           1           1          12
          14
Real atomic weights                        R   N=           7
  1.20000000E+01  3.49688527E+01  1.00782504E+00  1.00782504E+00  1.00782504E+00
  1.20000000E+01  1.40030740E+01
Atom fragment info                         I   N=           7
           0           0           0           0           0           0
           0
Atom residue num                           I   N=           7
           0           0           0           0           0           0
           0
Nuclear spins                              I   N=           7
           0           3           1           1           1           0
           2
Nuclear ZEff                               R   N=           7
 -3.60000000E+00 -1.42400000E+01 -1.00000000E+00 -1.00000000E+00 -1.00000000E+00
 -3.60000000E+00 -4.55000000E+00
Nuclear ZNuc                               R   N=           7
  6.00000000E+00  1.70000000E+01  1.00000000E+00  1.00000000E+00  1.00000000E+00
  6.00000000E+00  7.00000000E+00
Nuclear QMom                               R   N=           7
  0.00000000E+00 -8.16500000E+00  0.00000000E+00  0.00000000E+00  0.00000000E+00
  0.00000000E+00  2.04400000E+00
Nuclear GFac                               R   N=           7
  0.00000000E+00  8.21874000E-01  2.79284600E+00  2.79284600E+00  2.79284600E+00
  0.00000000E+00  4.03761000E-01
MicOpt                                     I   N=           7
          -1          -1          -1          -1          -1          -1
          -1
Number of residues                         I                0
Number of secondary structures             I                0
Number of contracted shells                I               33
Number of primitive shells                 I               72
Pure/Cartesian d shells                    I                1
Pure/Cartesian f shells                    I                0
Highest angular momentum                   I                2
Largest degree of contraction              I                6
Shell types                                I   N=          33
           0          -1          -1          -1           2           0
          -1          -1          -1          -1           2           0
           0           0           1           0           0           0
           1           0           0           0           1           0
          -1          -1          -1           2           0          -1
          -1          -1           2
Number of primitives per shell             I   N=          33
           6           3           1           1           1           6
           6           3           1           1           1           3
           1           1           1           3           1           1
           1           3           1           1           1           6
           3           1           1           1           6           3
           1           1           1
Shell to atom map                          I   N=          33
           1           1           1           1           1           2
           2           2           2           2           2           3
           3           3           3           4           4           4
           4           5           5           5           5           6
           6           6           6           6           7           7
           7           7           7
Primitive exponents                        R   N=          72
  3.04752488E+03  4.57369518E+02  1.03948685E+02  2.92101553E+01  9.28666296E+00
  3.16392696E+00  7.86827235E+00  1.88128854E+00  5.44249258E-01  1.68714478E-01
  4.38000000E-02  8.00000000E-01  2.51801000E+04  3.78035000E+03  8.60474000E+02
  2.42145000E+02  7.73349000E+01  2.62470000E+01  4.91765000E+02  1.16984000E+02
  3.74153000E+01  1.37834000E+01  5.45215000E+00  2.22588000E+00  3.18649000E+00
  1.14427000E+00  4.20377000E-01  1.42657000E-01  4.83000000E-02  7.50000000E-01
  1.87311370E+01  2.82539436E+00  6.40121692E-01  1.61277759E-01  3.60000000E-02
  1.10000000E+00  1.87311370E+01  2.82539436E+00  6.40121692E-01  1.61277759E-01
  3.60000000E-02  1.10000000E+00  1.87311370E+01  2.82539436E+00  6.40121692E-01
  1.61277759E-01  3.60000000E-02  1.10000000E+00  3.04752488E+03  4.57369518E+02
  1.03948685E+02  2.92101553E+01  9.28666296E+00  3.16392696E+00  7.86827235E+00
  1.88128854E+00  5.44249258E-01  1.68714478E-01  4.38000000E-02  8.00000000E-01
  4.17351146E+03  6.27457911E+02  1.42902093E+02  4.02343293E+01  1.28202129E+01
  4.39043701E+00  1.16263619E+01  2.71627981E+00  7.72218397E-01  2.12031498E-01
  6.39000000E-02  8.00000000E-01
Contraction coefficients                   R   N=          72
  1.83473713E-03  1.40373228E-02  6.88426223E-02  2.32184443E-01  4.67941348E-01
  3.62311985E-01 -1.19332420E-01 -1.60854152E-01  1.14345644E+00  1.00000000E+00
  1.00000000E+00  1.00000000E+00  1.83295985E-03  1.40341988E-02  6.90973943E-02
  2.37451980E-01  4.83033960E-01  3.39855972E-01 -2.29739142E-03 -3.07137189E-02
 -1.12528069E-01  4.50163278E-02  5.89353363E-01  4.65206287E-01 -2.51828028E-01
  6.15892514E-02  1.06018433E+00  1.00000000E+00  1.00000000E+00  1.00000000E+00
  3.34946043E-02  2.34726953E-01  8.13757326E-01  1.00000000E+00  1.00000000E+00
  1.00000000E+00  3.34946043E-02  2.34726953E-01  8.13757326E-01  1.00000000E+00
  1.00000000E+00  1.00000000E+00  3.34946043E-02  2.34726953E-01  8.13757326E-01
  1.00000000E+00  1.00000000E+00  1.00000000E+00  1.83473713E-03  1.40373228E-02
  6.88426223E-02  2.32184443E-01  4.67941348E-01  3.62311985E-01 -1.19332420E-01
 -1.60854152E-01  1.14345644E+00  1.00000000E+00  1.00000000E+00  1.00000000E+00
  1.83477216E-03  1.39946270E-02  6.85865518E-02  2.32240873E-01  4.69069948E-01
  3.60455199E-01 -1.14961182E-01 -1.69117479E-01  1.14585195E+00  1.00000000E+00
  1.00000000E+00  1.00000000E+00
P(S=P) Contraction coefficients            R   N=          72
  0.00000000E+00  0.00000000E+00  0.00000000E+00  0.00000000E+00  0.00000000E+00
  0.00000000E+00  6.89990666E-02  3.16423961E-01  7.44308291E-01  1.00000000E+00
  1.00000000E+00  0.00000000E+00  0.00000000E+00  0.00000000E+00  0.00000000E+00
  0.00000000E+00  0.00000000E+00  0.00000000E+00  3.98940088E-03  3.03177067E-02
  1.29880029E-01  3.27951072E-01  4.53527100E-01  2.52154056E-01 -1.42993147E-02
  3.23572333E-01  7.43507765E-01  1.00000000E+00  1.00000000E+00  0.00000000E+00
  0.00000000E+00  0.00000000E+00  0.00000000E+00  0.00000000E+00  0.00000000E+00
  0.00000000E+00  0.00000000E+00  0.00000000E+00  0.00000000E+00  0.00000000E+00
  0.00000000E+00  0.00000000E+00  0.00000000E+00  0.00000000E+00  0.00000000E+00
  0.00000000E+00  0.00000000E+00  0.00000000E+00  0.00000000E+00  0.00000000E+00
  0.00000000E+00  0.00000000E+00  0.00000000E+00  0.00000000E+00  6.89990666E-02
  3.16423961E-01  7.44308291E-01  1.00000000E+00  1.00000000E+00  0.00000000E+00
  0.00000000E+00  0.00000000E+00  0.00000000E+00  0.00000000E+00  0.00000000E+00
  0.00000000E+00  6.75797439E-02  3.23907296E-01  7.40895140E-01  1.00000000E+00
  1.00000000E+00  0.00000000E+00
Coordinates of each shell                  R   N=          99
  8.44614981E-01  1.13383567E-05 -4.64872627E-04  8.44614981E-01  1.13383567E-05
 -4.64872627E-04  8.44614981E-01  1.13383567E-05 -4.64872627E-04  8.44614981E-01
  1.13383567E-05 -4.64872627E-04  8.44614981E-01  1.13383567E-05 -4.64872627E-04
 -4.26526493E+00 -1.88972612E-06  2.04090421E-04 -4.26526493E+00 -1.88972612E-06
  2.04090421E-04 -4.26526493E+00 -1.88972612E-06  2.04090421E-04 -4.26526493E+00
 -1.88972612E-06  2.04090421E-04 -4.26526493E+00 -1.88972612E-06  2.04090421E-04
 -4.26526493E+00 -1.88972612E-06  2.04090421E-04  2.93638873E-01  4.58825503E-03
 -1.97442743E+00  2.93638873E-01  4.58825503E-03 -1.97442743E+00  2.93638873E-01
  4.58825503E-03 -1.97442743E+00  2.93638873E-01  4.58825503E-03 -1.97442743E+00
  2.93946899E-01  1.70720504E+00  9.90600104E-01  2.93946899E-01  1.70720504E+00
  9.90600104E-01  2.93946899E-01  1.70720504E+00  9.90600104E-01  2.93946899E-01
  1.70720504E+00  9.90600104E-01  2.93920443E-01 -1.71176873E+00  9.82644357E-01
  2.93920443E-01 -1.71176873E+00  9.82644357E-01  2.93920443E-01 -1.71176873E+00
  9.82644357E-01  2.93920443E-01 -1.71176873E+00  9.82644357E-01  4.11155650E+00
  3.77945225E-06 -3.51489059E-04  4.11155650E+00  3.77945225E-06 -3.51489059E-04
  4.11155650E+00  3.77945225E-06 -3.51489059E-04  4.11155650E+00  3.77945225E-06
 -3.51489059E-04  4.11155650E+00  3.77945225E-06 -3.51489059E-04  6.34067554E+00
 -9.44863062E-06  2.72120562E-04  6.34067554E+00 -9.44863062E-06  2.72120562E-04
  6.34067554E+00 -9.44863062E-06  2.72120562E-04  6.34067554E+00 -9.44863062E-06
  2.72120562E-04  6.34067554E+00 -9.44863062E-06  2.72120562E-04
Num ILSW                                   I              100
ILSW                                       I   N=         100
           0           1           0           0           2           0
           0           0           0           0         402          -1
           5           0           0           0           2           0
           0           0           0           0           1           0
           1           1           0           0           0           0
           0           0      100000           0          -1           0
           0           0           0           0           0           0
           0           0           0           1           0           0
           0 -2000000000           1           0           0           0
           0           0           4          52           0           0
           0           0           5           0           0           0
           0           0           0           7           0           1
           0           0           0           0           0           0
           0           0           0           0           0           0
           0           0           0           0           0           0
           0           0           0           0           0           0
           0           0           0           0
Num RLSW                                   I               52
RLSW                                       R   N=          52
  8.00000000E-01  7.20000000E-01  1.00000000E+00  8.10000000E-01  2.00000000E-01
  0.00000000E+00  0.00000000E+00  1.00000000E+00  0.00000000E+00  0.00000000E+00
  0.00000000E+00  0.00000000E+00  1.00000000E+00  0.00000000E+00  0.00000000E+00
  0.00000000E+00  0.00000000E+00  1.00000000E+00  0.00000000E+00  0.00000000E+00
  0.00000000E+00  0.00000000E+00  1.00000000E+00  0.00000000E+00  0.00000000E+00
  0.00000000E+00  0.00000000E+00  1.00000000E+00  0.00000000E+00  0.00000000E+00
  0.00000000E+00  0.00000000E+00  1.00000000E+00  0.00000000E+00  0.00000000E+00
  0.00000000E+00  0.00000000E+00  0.00000000E+00  1.00000000E+00  1.00000000E+00
  0.00000000E+00  1.00000000E+00  0.00000000E+00  0.00000000E+00  0.00000000E+00
  0.00000000E+00  0.00000000E+00  0.00000000E+00  0.00000000E+00  0.00000000E+00
  0.00000000E+00  0.00000000E+00
MxBond                                     I                4
NBond                                      I   N=           7
           4           0           1           1           1           2
           1
IBond                                      I   N=          28
           3           4           5           6           0           0
           0           0           1           0           0           0
           1           0           0           0           1           0
           0           0           1           7           0           0
           6           0           0           0
RBond                                      R   N=          28
  1.00000000E+00  1.00000000E+00  1.00000000E+00  1.00000000E+00  0.00000000E+00
  0.00000000E+00  0.00000000E+00  0.00000000E+00  1.00000000E+00  0.00000000E+00
  0.00000000E+00  0.00000000E+00  1.00000000E+00  0.00000000E+00  0.00000000E+00
  0.00000000E+00  1.00000000E+00  0.00000000E+00  0.00000000E+00  0.00000000E+00
  1.00000000E+00  2.00000000E+00  0.00000000E+00  0.00000000E+00  2.00000000E+00
  0.00000000E+00  0.00000000E+00  0.00000000E+00
Virial Ratio                               R      2.005009336151876E+00
SCF Energy                                 R     -5.930307428230913E+02
Total Energy                               R     -5.930307428230913E+02
RMS Force                                  R      1.817630850075158E-02
RMS Density                                R      1.018969457001526E-09
NImag                                      I                0
Job Status                                 I                1
Nuclear derivative order                   I                2
External E-field                           R   N=          35
  0.00000000E+00  0.00000000E+00  0.00000000E+00  0.00000000E+00  0.00000000E+00
  0.00000000E+00  0.00000000E+00  0.00000000E+00  0.00000000E+00  0.00000000E+00
  0.00000000E+00  0.00000000E+00  0.00000000E+00  0.00000000E+00  0.00000000E+00
  0.00000000E+00  0.00000000E+00  0.00000000E+00  0.00000000E+00  0.00000000E+00
  0.00000000E+00  0.00000000E+00  0.00000000E+00  0.00000000E+00  0.00000000E+00
  0.00000000E+00  0.00000000E+00  0.00000000E+00  0.00000000E+00  0.00000000E+00
  0.00000000E+00  0.00000000E+00  0.00000000E+00  0.00000000E+00  0.00000000E+00
IOpCl                                      I                0
IROHF                                      I                0
Alpha Orbital Energies                     R   N=          98
 -1.01262795E+02 -1.42160084E+01 -1.01104783E+01 -1.01022207E+01 -9.17726440E+00
 -6.93499409E+00 -6.93492920E+00 -6.93492917E+00 -7.69619170E-01 -5.93844325E-01
 -5.17492512E-01 -3.33159782E-01 -3.03708873E-01 -3.03704609E-01 -2.36570483E-01
 -2.06042431E-01 -2.06040653E-01 -6.34122266E-02 -6.34121939E-02 -6.13962581E-02
  1.06877848E-01  1.46563022E-01  1.46570452E-01  1.46818679E-01  1.54624761E-01
  1.54625925E-01  1.97039386E-01  2.06925301E-01  2.10772901E-01  2.10774997E-01
  2.40024334E-01  2.40033788E-01  2.41135462E-01  2.60293184E-01  2.60294701E-01
  2.62544645E-01  3.13786709E-01  3.40879749E-01  3.40884910E-01  3.47126213E-01
  3.47130892E-01  3.51169421E-01  3.91374874E-01  4.24465990E-01  4.78881362E-01
  7.22615042E-01  7.88153189E-01  7.88154184E-01  8.33054684E-01  8.33068319E-01
  8.44322485E-01  8.59850837E-01  8.59857541E-01  8.84999621E-01  9.76794391E-01
  1.00334138E+00  1.04249042E+00  1.04249604E+00  1.11632775E+00  1.12202597E+00
  1.12203656E+00  1.14376149E+00  1.14376640E+00  1.16805191E+00  1.16805269E+00
  1.24228823E+00  1.25037259E+00  1.36193658E+00  1.51414123E+00  1.51414361E+00
  1.51865646E+00  1.65817686E+00  1.65817695E+00  1.78480897E+00  1.78483069E+00
  1.85277140E+00  2.07724995E+00  2.07725073E+00  2.10850879E+00  2.14538846E+00
  2.21126835E+00  2.21133258E+00  2.45973968E+00  2.45976505E+00  2.78112923E+00
  2.78117028E+00  2.78140903E+00  2.93157825E+00  2.98477319E+00  2.98479690E+00
  3.19923259E+00  3.45568009E+00  3.55345219E+00  3.55350694E+00  4.20516425E+00
  4.38029194E+00  4.57772225E+00  4.67670645E+00
Alpha MO coefficients                      R   N=        9604
 -2.81470540E-06  9.30565795E-06  2.80573582E-05  2.41104873E-10 -5.26624280E-09
 -5.35008719E-05 -2.15470779E-04 -1.03972285E-09  2.62927134E-08  6.68189232E-04
  4.88449995E-04  2.20293327E-10 -5.07588066E-09 -3.16658244E-05 -7.88679800E-06
 -7.88861418E-06  2.85469201E-10  2.03937708E-10  1.46202019E-11  9.95997649E-01
  1.51460603E-02  2.79356357E-06 -4.41297352E-11 -3.65381727E-10 -2.10615859E-02
 -3.32179534E-06  1.37039232E-10 -1.29738885E-10  1.92127123E-03 -2.02770447E-05
 -4.01292867E-10  4.99244236E-09 -1.90226009E-04  3.44994055E-05  6.19029621E-10
 -1.75536920E-08  7.50359506E-03  7.51773479E-03  7.51773477E-03 -6.28705222E-11
  1.99554255E-09 -3.27435368E-12 -1.16282715E-05 -5.60002456E-05  7.91564259E-05
  2.52917053E-05  2.30289460E-08 -9.86561999E-06 -1.16339421E-05 -5.60108840E-05
  7.91776430E-05  2.52915879E-05  8.53060315E-06  4.94748996E-06 -1.16355641E-05
 -5.60106707E-05  7.91794517E-05  2.52916674E-05 -8.55336402E-06  4.90783663E-06
 -2.86403680E-06 -1.52659753E-05  5.63536590E-06 -6.14402636E-11  2.76033797E-12
 -1.46098898E-04 -3.59612008E-04  1.99257482E-09 -6.16180028E-08 -1.13355764E-03
  2.54142824E-04 -8.33978463E-10  2.72361865E-09 -2.56571975E-06 -3.39065990E-06
 -3.39095217E-06  3.97516045E-11 -5.25939601E-09  1.78273321E-11 -4.93332286E-06
 -2.23704538E-05  8.26070530E-07 -6.35967315E-12  3.02351908E-09  3.24889931E-04
 -1.37764956E-04  8.37699428E-10 -5.50724017E-08  2.51971497E-04 -7.39578757E-05
  4.76162213E-10 -1.77884229E-08 -5.46841566E-07 -1.08119470E-05 -1.08119162E-05
 -6.70956464E-11  5.45527085E-09 -1.56291600E-12 -1.02692137E-05 -1.86252681E-04
  4.76419978E-05 -1.08032702E-10  2.02571463E-09  6.01218617E-04  4.12254422E-04
 -7.06335706E-10 -4.07429466E-08  6.53757412E-03  2.53308270E-03 -3.05045447E-09
 -1.09943542E-07  1.86908408E-04 -1.56136687E-05 -1.56006161E-05 -2.42630185E-10
 -6.20068054E-09  9.78461035E-11 -3.90033418E-08 -2.84308759E-06  2.31247660E-06
  1.13671037E-11 -1.02123731E-09 -5.14428319E-06 -1.71870842E-05 -6.81438225E-11
  6.24942452E-09 -4.25138843E-06  8.41856296E-05  2.70505521E-10 -2.31218082E-08
  6.50742806E-04  1.70239736E-04  7.07764347E-10 -1.50127855E-08  9.44916357E-06
 -1.05800599E-05 -1.05800148E-05  3.71621812E-11 -3.72310935E-09 -1.49286894E-11
  5.27901323E-06 -1.10875166E-04 -1.19237335E-04 -1.15110442E-05 -2.01251293E-08
  8.66370472E-06  5.28657882E-06 -1.10823318E-04 -1.19388108E-04 -1.15025744E-05
 -7.50048332E-06 -4.34981647E-06  5.28726393E-06 -1.10823997E-04 -1.19392542E-04
 -1.15021998E-05  7.52052657E-06 -4.31485647E-06  8.46178772E-05  2.96698560E-04
 -4.57769468E-04  2.45355825E-09 -1.14927333E-07  2.53525929E-04  7.16121864E-04
 -1.38340243E-09  3.83802913E-08 -4.80633770E-03  3.56613377E-03 -1.44261229E-08
  5.04035042E-07 -9.96379321E-04  8.71620350E-06  8.71604749E-06  6.40890638E-09
 -2.95652760E-07  3.09440954E-11  9.92757843E-01  3.44926307E-02 -1.83705044E-03
  1.18500575E-08 -5.44363293E-07  3.95913050E-03  7.40027421E-04 -5.71528135E-09
  2.61842429E-07 -3.20421560E-03 -4.28031416E-04  1.53046925E-09 -2.05379003E-08
 -7.50538323E-03 -8.33129559E-03 -8.33129645E-03 -5.54729258E-09  2.62362121E-07
 -4.16749326E-12  4.02651337E-03  1.63689416E-04 -4.96381735E-05 -1.03776738E-10
 -2.40302152E-08  3.52325185E-03  1.72386254E-03 -1.43503268E-08  1.82298279E-07
  4.87628870E-02  2.85076503E-02 -1.92755398E-08 -6.78782824E-07 -4.75818078E-04
 -1.26307721E-04 -1.26272653E-04  1.44592920E-09 -8.88860300E-09 -4.16744481E-10
 -3.81707586E-08 -5.74164002E-06  2.57323816E-05  1.16234986E-10 -8.12070267E-09
 -4.47335222E-06 -1.64911715E-04 -6.64913299E-10  4.86554527E-08 -2.75792348E-04
  7.26809416E-04  1.87751656E-09 -1.57923909E-07  9.56265491E-03  3.08771989E-03
  2.22662920E-08 -8.40190704E-07  4.19960179E-05 -3.84811113E-05 -3.84811720E-05
  5.53145556E-10 -3.23809751E-08 -9.43560935E-11 -1.05121000E-04 -6.02897583E-04
  6.03139624E-04 -1.35298204E-05  2.55318672E-08 -1.07789662E-05 -1.05105851E-04
 -6.03032285E-04  6.03652499E-04 -1.34091374E-05  9.33341829E-06  5.40914910E-06
 -1.05107184E-04 -6.03045064E-04  6.03657682E-04 -1.34142730E-05 -9.35944974E-06
  5.36684984E-06  9.92859732E-01  4.96004108E-02  6.07901825E-04 -4.51008224E-09
  3.22703650E-07 -1.03891753E-02  4.07093601E-03 -8.64297524E-09  1.94402614E-07
 -6.43863915E-02  1.91209731E-02 -6.64652341E-08  8.62377171E-07 -8.46551325E-03
 -9.63828366E-03 -9.63828592E-03 -8.33112453E-09  3.70424416E-07  1.61578720E-10
 -3.97655582E-04  3.71498037E-04  1.85485518E-04 -5.64133455E-10  4.00790177E-08
 -5.27798117E-03  2.05727143E-03 -1.83681550E-08  8.27191640E-07  9.85643734E-03
 -6.29826571E-03  3.56818665E-08 -1.02851845E-06  1.00275009E-04  3.01028643E-04
  3.01029123E-04  2.51721737E-09 -1.28390692E-07 -1.49888015E-11  9.93133937E-01
  4.98723312E-02  5.80202750E-04 -1.02184949E-09 -1.04021980E-08 -2.09339647E-02
 -3.73038573E-03  3.04807982E-08 -2.19075215E-07  2.35395390E-02  1.59533821E-02
  3.31987111E-08 -4.36008725E-07 -9.28783819E-03 -8.52598950E-03 -8.52598513E-03
  2.78449841E-09  6.18866425E-08  5.55898483E-09  6.94921161E-07  1.70138949E-05
 -3.96954971E-06  3.83119439E-10  7.87366023E-10  3.38746157E-05 -4.42625119E-06
 -2.44839220E-09 -6.67150394E-10 -3.77843626E-04  1.77467242E-04  7.83108481E-09
 -2.21239607E-08  5.91031522E-03  1.88847242E-03  1.14581946E-08 -5.36652361E-07
  7.30596387E-05  2.28438637E-05  2.28470331E-05  1.99927806E-09 -1.75068943E-08
  4.29968328E-10 -8.29708245E-05  3.13720001E-03  1.71766337E-04  2.34760741E-05
  3.82648967E-07 -1.64545771E-04 -8.29452711E-05  3.13748286E-03  1.72101784E-04
  2.34576124E-05  1.42284240E-04  8.26037356E-05 -8.29435646E-05  3.13751943E-03
  1.72162821E-04  2.34635278E-05 -1.42662853E-04  8.19398680E-05 -4.19315832E-03
 -2.52377999E-04 -2.05352921E-05  2.34920149E-09  1.00252662E-08 -8.14771540E-04
 -8.70439190E-03  1.84349081E-08 -1.25835086E-06 -3.26821607E-02  9.09250131E-03
 -5.93956841E-08  3.51292899E-07 -5.10700902E-04 -2.50163972E-05 -2.50016034E-05
  4.16338870E-09 -1.22559622E-07 -6.60625743E-10 -5.51243842E-05 -2.47675721E-04
 -1.84227264E-04 -9.66126378E-11 -7.86212727E-09  6.45437495E-03 -2.43255312E-03
  2.63182913E-08 -1.21682482E-06  4.60564171E-03 -2.12639109E-03  2.60820268E-08
 -2.50675175E-07  1.10871442E-04 -1.29832219E-04 -1.29831308E-04 -4.41493764E-09
  1.98505562E-07  6.39022508E-11  3.52795767E-05  9.24271307E-05  2.88650672E-04
 -1.07140188E-09 -4.71021692E-08 -2.30931978E-03 -3.41714256E-03  7.60921964E-09
  2.55969405E-07  9.63693283E-03  1.17807368E-02 -1.23864956E-08 -1.11640055E-06
  9.45437727E-05  7.20217242E-05  7.20102462E-05  3.96372189E-11 -2.94594038E-08
 -1.60245263E-10 -2.84630628E-01  1.02270046E+00  1.78510713E-04 -2.42694571E-09
 -7.56598624E-08  7.53892342E-02  5.10254345E-04  1.52318516E-10 -6.78465664E-08
 -2.23652779E-02 -1.66785906E-03 -7.22641237E-10  1.94568768E-07  1.72580432E-02
  5.84545488E-03  4.16072588E-09 -6.75384254E-07 -1.56329185E-02 -1.55295873E-02
 -1.55295863E-02 -5.80767346E-10  1.98615573E-08  6.96407757E-11 -6.33557674E-05
 -2.57567671E-04 -2.35044510E-03  3.92264573E-05 -1.58155623E-08  6.53129806E-06
 -6.33839867E-05 -2.57476680E-04 -2.35151187E-03  3.91837369E-05 -5.65657309E-06
 -3.28653076E-06 -6.33866424E-05 -2.57460017E-04 -2.35163616E-03  3.91750076E-05
  5.67284620E-06 -3.26155486E-06 -2.78508674E-05 -1.68885820E-04 -8.73852587E-06
 -3.32827187E-10 -1.04253728E-08 -1.04186255E-03 -4.18704174E-03  1.86264923E-08
 -5.99295100E-07 -1.10850368E-02  3.40223249E-03 -4.34421611E-08  1.59045360E-06
  4.97274929E-05 -2.38521738E-05 -2.38538326E-05  3.47683765E-10 -2.81346456E-08
  1.22928588E-10 -9.81884264E-05 -3.82655993E-04  5.21930064E-06 -1.75602895E-10
  2.89479597E-08  4.61603922E-03 -1.38158361E-03  9.61722030E-09 -5.96398449E-07
 -1.85305206E-03  4.54406275E-04  1.07725634E-08 -3.68690462E-07 -1.49329280E-04
 -2.04596237E-04 -2.04597604E-04 -7.72710495E-10  5.47616978E-08 -3.06690083E-11
 -2.96954317E-05 -3.11894318E-04 -4.87122546E-05 -2.29908763E-09  4.71497280E-08
 -7.01555905E-04 -2.20235025E-03  2.21937996E-08 -3.07083613E-07 -9.32206447E-02
 -5.80256952E-02  1.58444068E-08  1.48645658E-06  2.78691988E-04 -8.96772179E-05
 -8.96435462E-05 -1.58601833E-09 -7.54612569E-08  4.27401570E-11  9.74822261E-05
 -2.10157609E-04  9.90660392E-01 -6.70593276E-06 -1.98977736E-04  4.36605339E-04
  3.04766915E-02 -1.99756074E-07 -6.09299530E-06 -1.29170422E-03 -1.39271417E-02
  7.42394675E-08  2.68326045E-06 -1.77528912E-02 -1.22440719E-03 -8.29594126E-08
  7.59544218E-07  1.40673810E-04  2.80148004E-04  2.80156563E-04 -1.98049254E-09
  4.87120437E-08  5.98494653E-11 -1.13229574E-04  8.02774661E-04 -3.08153338E-03
 -8.10939374E-05 -2.77103104E-07  1.18573391E-04 -1.13125662E-04  8.03150823E-04
 -3.08190275E-03 -8.11827975E-05 -1.02576767E-04 -5.94942849E-05 -1.13115904E-04
  8.03183229E-04 -3.08199714E-03 -8.11992126E-05  1.02855048E-04 -5.90204675E-05
 -1.17535738E-04 -4.69857056E-04 -9.92112683E-06  1.73268870E-10 -7.83742764E-08
  2.64673800E-03 -2.30014813E-03  4.25585508E-09  7.71883095E-08  1.23139410E-01
 -3.91141042E-02  1.59534902E-07 -2.94277218E-06 -2.08200073E-04 -1.85653382E-04
 -1.85646850E-04  2.65034199E-10 -1.04826083E-08 -2.45190272E-11 -3.22792525E-05
 -1.55154014E-04  9.14333050E-06 -5.18017757E-10 -1.14283336E-08  1.98047974E-03
 -7.81880692E-04  9.33125431E-09 -3.05658235E-07 -7.35746018E-03  6.90921723E-03
 -5.26253542E-08  1.16911612E-06  2.66808959E-05 -5.91192765E-05 -5.91201402E-05
 -6.82384394E-10  4.47217949E-08 -7.01414104E-13 -6.53782319E-09 -5.63956254E-08
 -1.22247049E-08  1.88424124E-07 -2.88510218E-05  2.17147942E-07  1.77364852E-07
  3.19029078E-06 -4.85388499E-04  8.37286319E-06  4.29769963E-06 -2.48604512E-06
  3.79156881E-04  3.96116460E-08 -3.20282664E-05  3.20079889E-05  1.24080166E-07
 -1.90222898E-05 -1.44578130E-08 -6.82614154E-09  3.64731102E-08  1.98948489E-04
 -6.50141924E-03  9.90781457E-01  9.52007067E-08  5.98217394E-06 -1.95009812E-04
  2.97183471E-02 -2.37507840E-07 -2.30500744E-06  7.59962713E-05 -1.15809879E-02
  1.60861821E-06  1.50327337E-06 -3.38343832E-05  5.15536662E-03  2.49188114E-08
  1.58504295E-06 -1.62438457E-06 -3.31420371E-07  5.05504047E-05  1.14788007E-09
  1.51945340E-04 -1.22458169E-03  4.67520918E-03  1.25698323E-04  1.56711290E-07
 -1.22308536E-04 -7.54233387E-05  6.07879388E-04 -2.32057142E-03 -6.24366551E-05
 -6.55686711E-05 -7.98623879E-06 -7.65364974E-05  6.16885277E-04 -2.35492744E-03
 -6.33619436E-05  6.63219254E-05 -8.23727889E-06  1.67234951E-08  7.01234074E-08
 -2.54415700E-08 -3.56975330E-07  5.44402660E-05 -7.38239945E-08  5.79318703E-07
  1.19885389E-06 -1.83043209E-04 -9.26219670E-06  3.98479901E-06 -7.27023719E-06
  1.10793751E-03  3.09252291E-08 -4.16714749E-06  4.21968888E-06  9.37635980E-08
 -1.42683317E-05 -1.77300176E-09  3.34071855E-09  2.50274343E-08  1.04472742E-09
  1.13254547E-07 -1.72943584E-05 -4.05134763E-07  1.88208009E-07 -7.56344119E-07
  1.15460663E-04 -2.90778032E-07 -7.41960003E-07  2.49882977E-06 -3.80901042E-04
 -2.01342430E-09  3.34424593E-06 -3.34745522E-06  1.06976483E-07 -1.63187303E-05
  1.62697654E-09 -2.20702373E-09 -1.15180968E-08  1.63830864E-09 -2.88511917E-05
 -1.90212879E-07  5.36351436E-08 -5.31422082E-08 -4.85373913E-04 -3.17976145E-06
 -1.01179301E-06 -7.07737646E-07  3.79286572E-04  2.49080613E-06 -1.71638091E-10
  1.02449395E-08 -1.70666221E-08 -1.90235050E-05 -1.25573729E-07 -3.69654270E-05
 -7.65146988E-11  1.82935138E-09  8.00997276E-06  9.90781477E-01  6.50141794E-03
  3.35382712E-09  2.48260203E-07  2.97183492E-02  1.95008425E-04 -1.16555667E-08
 -1.24784895E-07 -1.15810178E-02 -7.59907150E-05 -2.57472128E-07 -4.64997097E-08
  5.15544594E-03  3.38242567E-05  4.36635994E-10  3.21181436E-09  4.26858186E-09
  5.05417827E-05  3.31938349E-07  1.81781348E-06  6.42850233E-07 -5.21239189E-06
  1.97506739E-05  5.34119850E-07  2.99468170E-05 -4.49317629E-07 -1.31913559E-04
  1.06316511E-03 -4.05934498E-03 -1.09171123E-04 -8.43684397E-05 -6.61488235E-05
  1.31263311E-04 -1.05804565E-03  4.03945390E-03  1.08644368E-04 -8.41174164E-05
  6.56899899E-05 -1.31758555E-09 -5.23538399E-09  3.24667753E-10  5.44547904E-05