RxCoord=-3.09930 DE=24.54                                               
Freq      RB3LYP                                                      6-31++G(d,p)        
Number of atoms                            I                7
Info1-9                                    I   N=           9
          16          16           0           0           0         100
           6          18        -502
Full Title                                 C   N=           3
RxCoord=-3.09930 DE=24.54           
Route                                      C   N=           6
#p b3lyp 6-31++g(d,p) scf=verytight NoSymm freq=noraman int=
ultrafine   
Charge                                     I               -1
Multiplicity                               I                1
Number of electrons                        I               40
Number of alpha electrons                  I               20
Number of beta electrons                   I               20
Number of basis functions                  I               98
Number of independent functions            I               98
Number of point charges in /Mol/           I                0
Number of translation vectors              I                0
Atomic numbers                             I   N=           7
           6          17           1           1           1           6
           7
Nuclear charges                            R   N=           7
  6.00000000E+00  1.70000000E+01  1.00000000E+00  1.00000000E+00  1.00000000E+00
  6.00000000E+00  7.00000000E+00
Current cartesian coordinates              R   N=          21
  8.19800987E-01  1.13383567E-05 -4.62982901E-04 -4.26277427E+00 -1.88972612E-06
  2.05980148E-04  2.85327858E-01  4.59770366E-03 -1.97801224E+00  2.85586750E-01
  1.71031175E+00  9.92365108E-01  2.85560294E-01 -1.71488299E+00  9.84396133E-01
  4.12045522E+00  3.77945225E-06 -3.53378785E-04  6.34989930E+00 -1.13383567E-05
  2.75900014E-04
Number of symbols in /Mol/                 I                0
Force Field                                I                0
Atom Types                                 C   N=           7
                                                            
                        
Int Atom Types                             I   N=           7
           0           0           0           0           0           0
           0
MM charges                                 R   N=           7
  0.00000000E+00  0.00000000E+00  0.00000000E+00  0.00000000E+00  0.00000000E+00
  0.00000000E+00  0.00000000E+00
Integer atomic weights                     I   N=           7
          12          35           1           1           1          12
          14
Real atomic weights                        R   N=           7
  1.20000000E+01  3.49688527E+01  1.00782504E+00  1.00782504E+00  1.00782504E+00
  1.20000000E+01  1.40030740E+01
Atom fragment info                         I   N=           7
           0           0           0           0           0           0
           0
Atom residue num                           I   N=           7
           0           0           0           0           0           0
           0
Nuclear spins                              I   N=           7
           0           3           1           1           1           0
           2
Nuclear ZEff                               R   N=           7
 -3.60000000E+00 -1.42400000E+01 -1.00000000E+00 -1.00000000E+00 -1.00000000E+00
 -3.60000000E+00 -4.55000000E+00
Nuclear ZNuc                               R   N=           7
  6.00000000E+00  1.70000000E+01  1.00000000E+00  1.00000000E+00  1.00000000E+00
  6.00000000E+00  7.00000000E+00
Nuclear QMom                               R   N=           7
  0.00000000E+00 -8.16500000E+00  0.00000000E+00  0.00000000E+00  0.00000000E+00
  0.00000000E+00  2.04400000E+00
Nuclear GFac                               R   N=           7
  0.00000000E+00  8.21874000E-01  2.79284600E+00  2.79284600E+00  2.79284600E+00
  0.00000000E+00  4.03761000E-01
MicOpt                                     I   N=           7
          -1          -1          -1          -1          -1          -1
          -1
Number of residues                         I                0
Number of secondary structures             I                0
Number of contracted shells                I               33
Number of primitive shells                 I               72
Pure/Cartesian d shells                    I                1
Pure/Cartesian f shells                    I                0
Highest angular momentum                   I                2
Largest degree of contraction              I                6
Shell types                                I   N=          33
           0          -1          -1          -1           2           0
          -1          -1          -1          -1           2           0
           0           0           1           0           0           0
           1           0           0           0           1           0
          -1          -1          -1           2           0          -1
          -1          -1           2
Number of primitives per shell             I   N=          33
           6           3           1           1           1           6
           6           3           1           1           1           3
           1           1           1           3           1           1
           1           3           1           1           1           6
           3           1           1           1           6           3
           1           1           1
Shell to atom map                          I   N=          33
           1           1           1           1           1           2
           2           2           2           2           2           3
           3           3           3           4           4           4
           4           5           5           5           5           6
           6           6           6           6           7           7
           7           7           7
Primitive exponents                        R   N=          72
  3.04752488E+03  4.57369518E+02  1.03948685E+02  2.92101553E+01  9.28666296E+00
  3.16392696E+00  7.86827235E+00  1.88128854E+00  5.44249258E-01  1.68714478E-01
  4.38000000E-02  8.00000000E-01  2.51801000E+04  3.78035000E+03  8.60474000E+02
  2.42145000E+02  7.73349000E+01  2.62470000E+01  4.91765000E+02  1.16984000E+02
  3.74153000E+01  1.37834000E+01  5.45215000E+00  2.22588000E+00  3.18649000E+00
  1.14427000E+00  4.20377000E-01  1.42657000E-01  4.83000000E-02  7.50000000E-01
  1.87311370E+01  2.82539436E+00  6.40121692E-01  1.61277759E-01  3.60000000E-02
  1.10000000E+00  1.87311370E+01  2.82539436E+00  6.40121692E-01  1.61277759E-01
  3.60000000E-02  1.10000000E+00  1.87311370E+01  2.82539436E+00  6.40121692E-01
  1.61277759E-01  3.60000000E-02  1.10000000E+00  3.04752488E+03  4.57369518E+02
  1.03948685E+02  2.92101553E+01  9.28666296E+00  3.16392696E+00  7.86827235E+00
  1.88128854E+00  5.44249258E-01  1.68714478E-01  4.38000000E-02  8.00000000E-01
  4.17351146E+03  6.27457911E+02  1.42902093E+02  4.02343293E+01  1.28202129E+01
  4.39043701E+00  1.16263619E+01  2.71627981E+00  7.72218397E-01  2.12031498E-01
  6.39000000E-02  8.00000000E-01
Contraction coefficients                   R   N=          72
  1.83473713E-03  1.40373228E-02  6.88426223E-02  2.32184443E-01  4.67941348E-01
  3.62311985E-01 -1.19332420E-01 -1.60854152E-01  1.14345644E+00  1.00000000E+00
  1.00000000E+00  1.00000000E+00  1.83295985E-03  1.40341988E-02  6.90973943E-02
  2.37451980E-01  4.83033960E-01  3.39855972E-01 -2.29739142E-03 -3.07137189E-02
 -1.12528069E-01  4.50163278E-02  5.89353363E-01  4.65206287E-01 -2.51828028E-01
  6.15892514E-02  1.06018433E+00  1.00000000E+00  1.00000000E+00  1.00000000E+00
  3.34946043E-02  2.34726953E-01  8.13757326E-01  1.00000000E+00  1.00000000E+00
  1.00000000E+00  3.34946043E-02  2.34726953E-01  8.13757326E-01  1.00000000E+00
  1.00000000E+00  1.00000000E+00  3.34946043E-02  2.34726953E-01  8.13757326E-01
  1.00000000E+00  1.00000000E+00  1.00000000E+00  1.83473713E-03  1.40373228E-02
  6.88426223E-02  2.32184443E-01  4.67941348E-01  3.62311985E-01 -1.19332420E-01
 -1.60854152E-01  1.14345644E+00  1.00000000E+00  1.00000000E+00  1.00000000E+00
  1.83477216E-03  1.39946270E-02  6.85865518E-02  2.32240873E-01  4.69069948E-01
  3.60455199E-01 -1.14961182E-01 -1.69117479E-01  1.14585195E+00  1.00000000E+00
  1.00000000E+00  1.00000000E+00
P(S=P) Contraction coefficients            R   N=          72
  0.00000000E+00  0.00000000E+00  0.00000000E+00  0.00000000E+00  0.00000000E+00
  0.00000000E+00  6.89990666E-02  3.16423961E-01  7.44308291E-01  1.00000000E+00
  1.00000000E+00  0.00000000E+00  0.00000000E+00  0.00000000E+00  0.00000000E+00
  0.00000000E+00  0.00000000E+00  0.00000000E+00  3.98940088E-03  3.03177067E-02
  1.29880029E-01  3.27951072E-01  4.53527100E-01  2.52154056E-01 -1.42993147E-02
  3.23572333E-01  7.43507765E-01  1.00000000E+00  1.00000000E+00  0.00000000E+00
  0.00000000E+00  0.00000000E+00  0.00000000E+00  0.00000000E+00  0.00000000E+00
  0.00000000E+00  0.00000000E+00  0.00000000E+00  0.00000000E+00  0.00000000E+00
  0.00000000E+00  0.00000000E+00  0.00000000E+00  0.00000000E+00  0.00000000E+00
  0.00000000E+00  0.00000000E+00  0.00000000E+00  0.00000000E+00  0.00000000E+00
  0.00000000E+00  0.00000000E+00  0.00000000E+00  0.00000000E+00  6.89990666E-02
  3.16423961E-01  7.44308291E-01  1.00000000E+00  1.00000000E+00  0.00000000E+00
  0.00000000E+00  0.00000000E+00  0.00000000E+00  0.00000000E+00  0.00000000E+00
  0.00000000E+00  6.75797439E-02  3.23907296E-01  7.40895140E-01  1.00000000E+00
  1.00000000E+00  0.00000000E+00
Coordinates of each shell                  R   N=          99
  8.19800987E-01  1.13383567E-05 -4.62982901E-04  8.19800987E-01  1.13383567E-05
 -4.62982901E-04  8.19800987E-01  1.13383567E-05 -4.62982901E-04  8.19800987E-01
  1.13383567E-05 -4.62982901E-04  8.19800987E-01  1.13383567E-05 -4.62982901E-04
 -4.26277427E+00 -1.88972612E-06  2.05980148E-04 -4.26277427E+00 -1.88972612E-06
  2.05980148E-04 -4.26277427E+00 -1.88972612E-06  2.05980148E-04 -4.26277427E+00
 -1.88972612E-06  2.05980148E-04 -4.26277427E+00 -1.88972612E-06  2.05980148E-04
 -4.26277427E+00 -1.88972612E-06  2.05980148E-04  2.85327858E-01  4.59770366E-03
 -1.97801224E+00  2.85327858E-01  4.59770366E-03 -1.97801224E+00  2.85327858E-01
  4.59770366E-03 -1.97801224E+00  2.85327858E-01  4.59770366E-03 -1.97801224E+00
  2.85586750E-01  1.71031175E+00  9.92365108E-01  2.85586750E-01  1.71031175E+00
  9.92365108E-01  2.85586750E-01  1.71031175E+00  9.92365108E-01  2.85586750E-01
  1.71031175E+00  9.92365108E-01  2.85560294E-01 -1.71488299E+00  9.84396133E-01
  2.85560294E-01 -1.71488299E+00  9.84396133E-01  2.85560294E-01 -1.71488299E+00
  9.84396133E-01  2.85560294E-01 -1.71488299E+00  9.84396133E-01  4.12045522E+00
  3.77945225E-06 -3.53378785E-04  4.12045522E+00  3.77945225E-06 -3.53378785E-04
  4.12045522E+00  3.77945225E-06 -3.53378785E-04  4.12045522E+00  3.77945225E-06
 -3.53378785E-04  4.12045522E+00  3.77945225E-06 -3.53378785E-04  6.34989930E+00
 -1.13383567E-05  2.75900014E-04  6.34989930E+00 -1.13383567E-05  2.75900014E-04
  6.34989930E+00 -1.13383567E-05  2.75900014E-04  6.34989930E+00 -1.13383567E-05
  2.75900014E-04  6.34989930E+00 -1.13383567E-05  2.75900014E-04
Num ILSW                                   I              100
ILSW                                       I   N=         100
           0           1           0           0           2           0
           0           0           0           0         402          -1
           5           0           0           0           2           0
           0           0           0           0           1           0
           1           1           0           0           0           0
           0           0      100000           0          -1           0
           0           0           0           0           0           0
           0           0           0           1           0           0
           0 -2000000000           1           0           0           0
           0           0           4          52           0           0
           0           0           5           0           0           0
           0           0           0           7           0           1
           0           0           0           0           0           0
           0           0           0           0           0           0
           0           0           0           0           0           0
           0           0           0           0           0           0
           0           0           0           0
Num RLSW                                   I               52
RLSW                                       R   N=          52
  8.00000000E-01  7.20000000E-01  1.00000000E+00  8.10000000E-01  2.00000000E-01
  0.00000000E+00  0.00000000E+00  1.00000000E+00  0.00000000E+00  0.00000000E+00
  0.00000000E+00  0.00000000E+00  1.00000000E+00  0.00000000E+00  0.00000000E+00
  0.00000000E+00  0.00000000E+00  1.00000000E+00  0.00000000E+00  0.00000000E+00
  0.00000000E+00  0.00000000E+00  1.00000000E+00  0.00000000E+00  0.00000000E+00
  0.00000000E+00  0.00000000E+00  1.00000000E+00  0.00000000E+00  0.00000000E+00
  0.00000000E+00  0.00000000E+00  1.00000000E+00  0.00000000E+00  0.00000000E+00
  0.00000000E+00  0.00000000E+00  0.00000000E+00  1.00000000E+00  1.00000000E+00
  0.00000000E+00  1.00000000E+00  0.00000000E+00  0.00000000E+00  0.00000000E+00
  0.00000000E+00  0.00000000E+00  0.00000000E+00  0.00000000E+00  0.00000000E+00
  0.00000000E+00  0.00000000E+00
MxBond                                     I                4
NBond                                      I   N=           7
           4           0           1           1           1           2
           1
IBond                                      I   N=          28
           3           4           5           6           0           0
           0           0           1           0           0           0
           1           0           0           0           1           0
           0           0           1           7           0           0
           6           0           0           0
RBond                                      R   N=          28
  1.00000000E+00  1.00000000E+00  1.00000000E+00  1.00000000E+00  0.00000000E+00
  0.00000000E+00  0.00000000E+00  0.00000000E+00  1.00000000E+00  0.00000000E+00
  0.00000000E+00  0.00000000E+00  1.00000000E+00  0.00000000E+00  0.00000000E+00
  0.00000000E+00  1.00000000E+00  0.00000000E+00  0.00000000E+00  0.00000000E+00
  1.00000000E+00  2.00000000E+00  0.00000000E+00  0.00000000E+00  2.00000000E+00
  0.00000000E+00  0.00000000E+00  0.00000000E+00
Virial Ratio                               R      2.005009445088046E+00
SCF Energy                                 R     -5.930284069110581E+02
Total Energy                               R     -5.930284069110581E+02
RMS Force                                  R      1.816230340388495E-02
RMS Density                                R      1.430582452785376E-09
NImag                                      I                1
Job Status                                 I                1
Nuclear derivative order                   I                2
External E-field                           R   N=          35
  0.00000000E+00  0.00000000E+00  0.00000000E+00  0.00000000E+00  0.00000000E+00
  0.00000000E+00  0.00000000E+00  0.00000000E+00  0.00000000E+00  0.00000000E+00
  0.00000000E+00  0.00000000E+00  0.00000000E+00  0.00000000E+00  0.00000000E+00
  0.00000000E+00  0.00000000E+00  0.00000000E+00  0.00000000E+00  0.00000000E+00
  0.00000000E+00  0.00000000E+00  0.00000000E+00  0.00000000E+00  0.00000000E+00
  0.00000000E+00  0.00000000E+00  0.00000000E+00  0.00000000E+00  0.00000000E+00
  0.00000000E+00  0.00000000E+00  0.00000000E+00  0.00000000E+00  0.00000000E+00
IOpCl                                      I                0
IROHF                                      I                0
Alpha Orbital Energies                     R   N=          98
 -1.01263912E+02 -1.42146117E+01 -1.01086182E+01 -1.01033249E+01 -9.17839829E+00
 -6.93617504E+00 -6.93603607E+00 -6.93603606E+00 -7.67943853E-01 -5.92458981E-01
 -5.18334570E-01 -3.30214647E-01 -3.03763178E-01 -3.03761301E-01 -2.34669796E-01
 -2.05055361E-01 -2.05054138E-01 -6.43995847E-02 -6.43994779E-02 -6.24432415E-02
  1.07000191E-01  1.46559842E-01  1.46566628E-01  1.46959221E-01  1.55831133E-01
  1.55831792E-01  1.93753200E-01  2.06673427E-01  2.11032780E-01  2.11034993E-01
  2.39704902E-01  2.39986364E-01  2.39993470E-01  2.60109719E-01  2.60110878E-01
  2.61985622E-01  3.13402209E-01  3.40935211E-01  3.40940558E-01  3.47067133E-01
  3.47067972E-01  3.51211683E-01  3.91261411E-01  4.25454243E-01  4.77932616E-01
  7.24503462E-01  7.88189630E-01  7.88190944E-01  8.31783335E-01  8.31791021E-01
  8.41938517E-01  8.59618913E-01  8.59625905E-01  8.85346583E-01  9.76318554E-01
  1.00109064E+00  1.04345556E+00  1.04345952E+00  1.11854301E+00  1.12200239E+00
  1.12201151E+00  1.14274642E+00  1.14275103E+00  1.16736968E+00  1.16737478E+00
  1.24346755E+00  1.24937473E+00  1.36426903E+00  1.51803365E+00  1.51902062E+00
  1.51902357E+00  1.66000473E+00  1.66000482E+00  1.78038537E+00  1.78040167E+00
  1.84933615E+00  2.07912271E+00  2.07912452E+00  2.10103439E+00  2.14383747E+00
  2.20712878E+00  2.20718048E+00  2.46752239E+00  2.46753901E+00  2.77250396E+00
  2.78006244E+00  2.78008843E+00  2.92562345E+00  2.97978196E+00  2.97979782E+00
  3.19681071E+00  3.45549376E+00  3.55407344E+00  3.55411763E+00  4.20298750E+00
  4.37986883E+00  4.57597255E+00  4.66847293E+00
Alpha MO coefficients                      R   N=        9604
 -3.01630392E-06  6.85712634E-06  2.87898545E-05  2.40772086E-10 -5.53500983E-09
 -4.23895932E-05 -2.13297033E-04 -1.06855260E-09  2.51307689E-08  6.24471323E-04
  4.76935399E-04  2.60099377E-10 -7.61647535E-09 -3.03232167E-05 -8.12927929E-06
 -8.13117809E-06  2.77522633E-10  1.54613108E-10  2.49948312E-12  9.95997647E-01
  1.51462001E-02  2.96717666E-06 -4.02150429E-11 -3.94527235E-10 -2.10613268E-02
 -3.34924202E-06  1.34156552E-10 -2.23216645E-10  1.91932531E-03 -2.15588657E-05
 -4.02536426E-10  5.45996345E-09 -1.88115975E-04  3.55355134E-05  6.25081448E-10
 -1.76462947E-08  7.50347450E-03  7.51802838E-03  7.51802835E-03 -6.35624323E-11
  2.10363369E-09 -3.62279443E-12 -1.18498685E-05 -5.64396573E-05  7.89630877E-05
  2.55390438E-05  2.28997069E-08 -9.80598559E-06 -1.18573234E-05 -5.64474724E-05
  7.89876208E-05  2.55391616E-05  8.47877003E-06  4.91721527E-06 -1.18589604E-05
 -5.64472789E-05  7.89895676E-05  2.55392282E-05 -8.50139095E-06  4.87781542E-06
 -2.87283930E-06 -1.46137268E-05  5.63587389E-06 -5.70716576E-11 -1.08510291E-10
 -1.49597001E-04 -3.52949518E-04  2.10830998E-09 -6.09349773E-08 -1.08948147E-03
  2.42360452E-04 -7.12850884E-10  2.63192706E-09 -3.70423575E-06 -3.44494648E-06
 -3.44518308E-06  6.29391604E-11 -5.49825156E-09  1.70985704E-11 -4.87398935E-06
 -2.20382387E-05  5.42294055E-07 -1.66088773E-11  2.92480851E-09  3.21276646E-04
 -1.37053940E-04  1.01820326E-09 -5.50925305E-08  2.49498822E-04 -7.19722798E-05
  4.86831710E-10 -1.79878928E-08 -1.29846921E-07 -1.07961241E-05 -1.07960895E-05
 -8.99223360E-11  5.64348367E-09 -1.39808317E-12 -1.10076468E-05 -1.79479810E-04
  3.99166517E-05 -9.67678300E-11  2.72534127E-09  5.78824540E-04  3.94201130E-04
 -2.79529057E-10 -4.52366287E-08  6.23906639E-03  2.44790780E-03 -2.34061301E-09
 -1.19321364E-07  1.72240886E-04 -1.84245705E-05 -1.84114371E-05 -1.89512221E-10
 -5.77077919E-09  1.45258259E-10 -3.66254314E-08 -2.63184419E-06  2.21335136E-06
  1.01549762E-11 -9.58406300E-10 -4.97608625E-06 -1.64601013E-05 -6.08302475E-11
  5.86805795E-09 -6.23489184E-06  8.14353328E-05  2.51541778E-10 -2.18714851E-08
  6.43657481E-04  1.67982191E-04  5.72755735E-10 -1.38348206E-08  9.55240332E-06
 -9.96876577E-06 -9.96877371E-06  2.74959034E-11 -3.47758692E-09 -1.46745377E-11
  5.44283295E-06 -1.13559570E-04 -1.18831585E-04 -1.18637017E-05 -2.04515189E-08
  8.79127567E-06  5.45132736E-06 -1.13502929E-04 -1.18974060E-04 -1.18550004E-05
 -7.61071959E-06 -4.41337626E-06  5.45211376E-06 -1.13503129E-04 -1.18978548E-04
 -1.18545785E-05  7.63111191E-06 -4.37797068E-06  8.44742639E-05  2.90786520E-04
 -4.53724161E-04  2.75649119E-09 -1.14472900E-07  2.50352726E-04  6.65549203E-04
 -1.20556970E-09  3.04025712E-08 -4.50396122E-03  3.47336414E-03 -1.49712901E-08
  4.94992809E-07 -9.83374606E-04  8.09034850E-06  8.09026332E-06  7.22699241E-09
 -2.96115102E-07  3.20874436E-11  9.92756340E-01  3.44871692E-02 -1.82559775E-03
  1.34257624E-08 -5.45691855E-07  4.00542565E-03  7.21487189E-04 -6.34703794E-09
  2.57375763E-07 -3.20049796E-03 -4.16549509E-04  1.28246867E-09 -1.76748878E-08
 -7.51225120E-03 -8.33328689E-03 -8.33328761E-03 -6.29361929E-09  2.62765583E-07
 -3.78713542E-12  5.81494893E-03  2.46921222E-04 -3.65790264E-05 -2.42078980E-10
 -1.97112985E-08  3.31790531E-03  1.66870841E-03 -1.30894324E-08  1.53089122E-07
  4.65106918E-02  2.79640343E-02 -1.69492568E-08 -7.29376920E-07 -4.58796358E-04
 -1.37484083E-04 -1.37457173E-04  1.27816135E-09 -5.88481549E-09 -4.75266483E-10
 -1.49564441E-08 -5.39563128E-06  2.54937812E-05  1.15562382E-10 -7.98003581E-09
 -3.29878278E-06 -1.63732938E-04 -6.62418572E-10  4.78106485E-08 -2.82705849E-04
  7.25505819E-04  1.87937511E-09 -1.55439914E-07  9.64755571E-03  3.10504175E-03
  2.23811910E-08 -8.43261710E-07  4.28476289E-05 -3.78939455E-05 -3.78941913E-05
  5.50629539E-10 -3.18547449E-08 -8.88025192E-11 -1.02618489E-04 -5.91208841E-04
  5.94612768E-04 -1.36917850E-05  2.68070802E-08 -1.13632159E-05 -1.02602326E-04
 -5.91323373E-04  5.95157606E-04 -1.35868865E-05  9.83706493E-06  5.70382288E-06
 -1.02603490E-04 -5.91335244E-04  5.95167708E-04 -1.35919696E-05 -9.86454584E-06
  5.65913578E-06  9.92850890E-01  4.95818645E-02  6.29899735E-04 -5.71016277E-09
  3.28453700E-07 -1.03688334E-02  3.88868533E-03 -8.11479889E-09  1.70117034E-07
 -6.21909939E-02  1.85294509E-02 -5.97937586E-08  7.80741238E-07 -8.48638271E-03
 -9.63621058E-03 -9.63621256E-03 -9.34335104E-09  3.71060037E-07  1.52529799E-10
 -3.98206026E-04  3.67974856E-04  1.82919670E-04 -7.41755361E-10  3.98026229E-08
 -5.14771263E-03  2.00330575E-03 -2.00489624E-08  8.10248231E-07  9.87335467E-03
 -6.24871834E-03  3.57586608E-08 -1.02087483E-06  1.01601083E-04  2.98402339E-04
  2.98402848E-04  2.85447638E-09 -1.25317772E-07 -1.19237142E-11  9.93128572E-01
  4.98418602E-02  5.72333330E-04 -3.35240134E-10 -3.63525109E-08 -2.07407016E-02
 -3.67356249E-03  2.51597308E-08 -7.62051319E-08  2.20147536E-02  1.53238477E-02
  2.95808286E-08 -3.67697767E-07 -9.30126990E-03 -8.51007576E-03 -8.51008749E-03
  2.84477993E-09  5.64157116E-08  5.14318457E-09  5.59896430E-07  1.60257166E-05
 -4.49562908E-06  3.80171656E-10  3.53151970E-10  2.72652950E-05 -3.05726244E-06
 -2.43925835E-09  2.43621909E-09 -3.57230810E-04  1.84851863E-04  7.91113708E-09
 -3.57726361E-08  5.81221785E-03  1.84168990E-03  1.14097822E-08 -5.28166041E-07
  7.72053768E-05  2.07963125E-05  2.08009789E-05  2.02772654E-09 -2.08920697E-08
  4.33834854E-10 -8.87574012E-05  3.13447321E-03  1.47174379E-04  2.34809399E-05
  3.93911659E-07 -1.69316979E-04 -8.87529814E-05  3.13463394E-03  1.47413321E-04
  2.34660054E-05  1.46414607E-04  8.49932030E-05 -8.87520668E-05  3.13466553E-03
  1.47470209E-04  2.34715050E-05 -1.46804247E-04  8.43103240E-05 -5.97690930E-03
 -3.52493188E-04 -2.59696291E-05  2.28974590E-09  7.73210680E-09 -9.81260333E-04
 -8.62307276E-03  2.24080490E-08 -1.26544185E-06 -3.09225900E-02  8.65178544E-03
 -5.33418977E-08  2.93955977E-07 -4.61112225E-04 -7.10109174E-06 -7.08819471E-06
  4.32072240E-09 -1.21681103E-07 -6.28107056E-10 -5.69629780E-05 -2.61508520E-04
 -1.74691554E-04 -2.10505843E-10 -3.13728586E-09  6.49357895E-03 -2.45544381E-03
  3.03202863E-08 -1.23154378E-06  4.50220706E-03 -2.06248715E-03  2.44693522E-08
 -2.38616769E-07  1.01730858E-04 -1.34235260E-04 -1.34234424E-04 -4.94750417E-09
  1.96315495E-07  6.20342337E-11  3.36108337E-05  7.87013313E-05  2.87605301E-04
 -1.02395372E-09 -4.30420737E-08 -2.16046545E-03 -3.34449581E-03  7.41834081E-09
  2.25142494E-07  9.63662815E-03  1.20739419E-02 -1.00876223E-08 -1.15326946E-06
  1.05873293E-04  6.93488066E-05  6.93373486E-05 -1.17569460E-10 -2.64556314E-08
 -1.69263732E-10 -2.84630434E-01  1.02270122E+00  2.01691944E-04 -1.95648749E-09
 -8.14159305E-08  7.53958025E-02  5.10931086E-04  1.70102570E-10 -6.68808985E-08
 -2.23967723E-02 -1.67079479E-03 -7.87928477E-10  1.93370022E-07  1.75060453E-02
  5.92832512E-03  4.81250477E-09 -6.87365502E-07 -1.56306594E-02 -1.55292254E-02
 -1.55292258E-02 -5.47567676E-10  1.94013922E-08  5.68460519E-11 -6.20222871E-05
 -2.50727332E-04 -2.32074680E-03  3.68904736E-05 -2.13579122E-08  8.92090130E-06
 -6.20550941E-05 -2.50578500E-04 -2.32187024E-03  3.68376748E-05 -7.72759310E-06
 -4.48595981E-06 -6.20577865E-05 -2.50561033E-04 -2.32199163E-03  3.68289974E-05
  7.74944901E-06 -4.45135455E-06 -2.62253501E-05 -1.60667828E-04 -8.01452283E-06
 -2.65332650E-10 -1.04138190E-08 -1.09398387E-03 -4.03164174E-03  1.91833275E-08
 -5.76310384E-07 -1.14355408E-02  3.59746782E-03 -4.47365259E-08  1.57693985E-06
  5.13347212E-05 -2.18905568E-05 -2.18917287E-05  4.67383459E-10 -2.85803034E-08
  1.15814738E-10 -9.66323012E-05 -3.75775349E-04  5.17321209E-06 -3.37504268E-10
  2.97620312E-08  4.50311549E-03 -1.34238606E-03  1.15129872E-08 -5.89495197E-07
 -1.82861929E-03  4.02907090E-04  1.06709082E-08 -3.64883533E-07 -1.48157295E-04
 -2.01769394E-04 -2.01770884E-04 -9.45029547E-10  5.40476695E-08 -3.21215168E-11
 -2.83901153E-05 -3.17015590E-04 -6.92404534E-05 -2.47581193E-09  5.02014116E-08
 -6.04202797E-04 -2.08077142E-03  1.85553548E-08 -3.00311549E-07 -9.04877853E-02
 -5.79722557E-02  1.82583096E-08  1.55745832E-06  2.98090062E-04 -8.69211470E-05
 -8.68869178E-05 -1.80455936E-09 -7.29605670E-08 -1.07533659E-10  1.04174907E-04
 -2.37007929E-04  9.90657982E-01  8.14573095E-07 -1.94883419E-04  4.34331859E-04
  3.04848033E-02  2.58615605E-08 -5.97135637E-06 -1.25003706E-03 -1.39350803E-02
 -1.36859406E-08  2.63712862E-06 -1.82773129E-02 -1.38150368E-03 -4.50080078E-08
  8.17756986E-07  1.40596882E-04  2.74887263E-04  2.74895411E-04 -1.57811181E-09
  4.84737668E-08  6.72087796E-11 -1.09381660E-04  8.32333586E-04 -3.10640097E-03
 -8.72497484E-05 -2.85900630E-07  1.22419482E-04 -1.09268886E-04  8.32723118E-04
 -3.10684268E-03 -8.73588248E-05 -1.05907516E-04 -6.14238662E-05 -1.09256767E-04
  8.32740130E-04 -3.10687999E-03 -8.73735112E-05  1.06193500E-04 -6.09337021E-05
 -1.15223988E-04 -4.59344976E-04 -1.20482093E-05  1.19334795E-09 -8.36661593E-08
  2.61673170E-03 -2.12613606E-03  4.27217821E-10  1.21260768E-07  1.20982616E-01
 -3.87594703E-02  1.58937552E-07 -2.83319517E-06 -2.05504089E-04 -1.81989708E-04
 -1.81983388E-04  1.90927297E-10 -7.71113556E-09 -6.34831563E-11 -3.09305653E-05
 -1.48430600E-04  9.58432397E-06 -4.75133060E-10 -1.26997848E-08  1.86149387E-03
 -7.35626526E-04  1.02030287E-08 -2.88804054E-07 -7.41609442E-03  6.95223715E-03
 -5.25292827E-08  1.14911635E-06  2.62059390E-05 -5.66194951E-05 -5.66204690E-05
 -1.00766982E-09  4.46702909E-08  2.40920885E-11 -3.36509591E-09 -4.15270977E-08
 -1.70812544E-08  7.16414569E-07 -2.94757827E-05  1.03502370E-07  2.06411132E-07
  1.14182784E-05 -4.68650253E-04  8.57366375E-06  4.75322605E-06 -9.16804670E-06
  3.76358897E-04  4.01386955E-08 -3.15958510E-05  3.15869903E-05  5.70957338E-07
 -2.34950158E-05  6.34454576E-07 -7.48469353E-09  3.83585739E-08  1.94865508E-04
 -2.41152625E-02  9.90509532E-01  9.11778499E-08  5.85591613E-06 -7.23318273E-04
  2.97095093E-02 -2.32854636E-07 -2.23707492E-06  2.81894968E-04 -1.15783722E-02
  1.84617268E-06  1.56118714E-06 -1.25530889E-04  5.15572229E-03  2.72448834E-08
  1.59047234E-06 -1.63087468E-06 -1.27232474E-06  5.22779956E-05 -3.12738948E-08
  1.51977966E-04 -1.21300664E-03  4.66042226E-03  1.28289403E-04 -3.61679844E-07
 -1.20848351E-04 -7.30953573E-05  5.83524287E-04 -2.24133867E-03 -6.17502584E-05
 -6.31164401E-05 -7.06102086E-06 -7.88887870E-05  6.29816019E-04 -2.41916335E-03
 -6.66482417E-05  6.68278043E-05 -9.61832408E-06  1.66687070E-08  6.90293342E-08
 -2.45967635E-08 -1.32749439E-06  5.45245884E-05 -1.00912040E-07  5.37118768E-07
  4.56506492E-06 -1.87560629E-04 -1.00416042E-05  4.19694340E-06 -2.68548478E-05
  1.10307641E-03  3.12992609E-08 -3.94091786E-06  3.99400702E-06  3.30232439E-07
 -1.35576630E-05  8.00406846E-08  3.58656630E-09  2.50872507E-08  1.41531264E-09
  4.27854183E-07 -1.75920416E-05 -3.85760487E-07  1.71550161E-07 -2.85135354E-06
  1.17199747E-04 -1.45812610E-07 -8.04574333E-07  9.23439571E-06 -3.79453135E-04
 -2.47000953E-10  3.31367500E-06 -3.31582679E-06  4.01688231E-07 -1.64979230E-05
 -6.63804391E-08 -2.02539038E-09 -9.84239970E-09  1.63248760E-09 -2.94650462E-05
 -7.18578214E-07  6.13494185E-08 -3.03622260E-08 -4.68741729E-04 -1.14037634E-05
 -1.40378577E-07 -1.81914928E-07  3.76619119E-04  9.16419713E-06 -1.45158504E-09
 -5.51008062E-07  5.45379704E-07 -2.34858043E-05 -5.72852907E-07 -3.64777980E-05
 -8.22383263E-10  3.62022038E-09  3.92891415E-06  9.90509549E-01  2.41152625E-02
  1.73489610E-09  1.20264201E-07  2.97095226E-02  7.23316509E-04 -5.78504404E-09
 -5.84642270E-08 -1.15784302E-02 -2.81887957E-04 -9.18245560E-08 -1.01396688E-08
  5.15584791E-03  1.25517906E-04 -2.22577142E-10  2.93176503E-08 -2.69538422E-08
  5.22687212E-05  1.27300356E-06  1.82435648E-06  3.34670719E-06 -2.67394091E-05
  1.02586706E-04  2.82702825E-06  2.91564888E-05 -2.59475281E-06 -1.33274854E-04
  1.06400176E-03 -4.08806776E-03 -1.12569029E-04 -8.46290877E-05 -6.53248169E-05
  1.29923242E-04 -1.03736462E-03  3.98540908E-03  1.09749074E-04 -8.20725266E-05
  6.45722415E-05 -1.06866405E-10 -3.03283578E-10 -2.48288023E-11  5.45388610E-05