 Entering Gaussian System, Link 0=g16
 Initial command:
 /usr/local/g16_AVX//g16/l1.exe "/scratch/alanqf/0070-54512.ixchel.mda.cinvestav.mx/Gau-26315.inp" -scrdir="/scratch/alanqf/0070-54512.ixchel.mda.cinvestav.mx/"
 Entering Link 1 = /usr/local/g16_AVX//g16/l1.exe PID=     26316.
  
 Copyright (c) 1988-2017, Gaussian, Inc.  All Rights Reserved.
  
 This is part of the Gaussian(R) 16 program.  It is based on
 the Gaussian(R) 09 system (copyright 2009, Gaussian, Inc.),
 the Gaussian(R) 03 system (copyright 2003, Gaussian, Inc.),
 the Gaussian(R) 98 system (copyright 1998, Gaussian, Inc.),
 the Gaussian(R) 94 system (copyright 1995, Gaussian, Inc.),
 the Gaussian 92(TM) system (copyright 1992, Gaussian, Inc.),
 the Gaussian 90(TM) system (copyright 1990, Gaussian, Inc.),
 the Gaussian 88(TM) system (copyright 1988, Gaussian, Inc.),
 the Gaussian 86(TM) system (copyright 1986, Carnegie Mellon
 University), and the Gaussian 82(TM) system (copyright 1983,
 Carnegie Mellon University). Gaussian is a federally registered
 trademark of Gaussian, Inc.
  
 This software contains proprietary and confidential information,
 including trade secrets, belonging to Gaussian, Inc.
  
 This software is provided under written license and may be
 used, copied, transmitted, or stored only in accord with that
 written license.
  
 The following legend is applicable only to US Government
 contracts under FAR:
  
                    RESTRICTED RIGHTS LEGEND
  
 Use, reproduction and disclosure by the US Government is
 subject to restrictions as set forth in subparagraphs (a)
 and (c) of the Commercial Computer Software - Restricted
 Rights clause in FAR 52.227-19.
  
 Gaussian, Inc.
 340 Quinnipiac St., Bldg. 40, Wallingford CT 06492
  
  
 ---------------------------------------------------------------
 Warning -- This program may not be used in any manner that
 competes with the business of Gaussian, Inc. or will provide
 assistance to any competitor of Gaussian, Inc.  The licensee
 of this program is prohibited from giving any competitor of
 Gaussian, Inc. access to this program.  By using this program,
 the user acknowledges that Gaussian, Inc. is engaged in the
 business of creating and licensing software in the field of
 computational chemistry and represents and warrants to the
 licensee that it is not a competitor of Gaussian, Inc. and that
 it will not use this program in any manner prohibited above.
 ---------------------------------------------------------------
  

 Cite this work as:
 Gaussian 16, Revision B.01,
 M. J. Frisch, G. W. Trucks, H. B. Schlegel, G. E. Scuseria, 
 M. A. Robb, J. R. Cheeseman, G. Scalmani, V. Barone, 
 G. A. Petersson, H. Nakatsuji, X. Li, M. Caricato, A. V. Marenich, 
 J. Bloino, B. G. Janesko, R. Gomperts, B. Mennucci, H. P. Hratchian, 
 J. V. Ortiz, A. F. Izmaylov, J. L. Sonnenberg, D. Williams-Young, 
 F. Ding, F. Lipparini, F. Egidi, J. Goings, B. Peng, A. Petrone, 
 T. Henderson, D. Ranasinghe, V. G. Zakrzewski, J. Gao, N. Rega, 
 G. Zheng, W. Liang, M. Hada, M. Ehara, K. Toyota, R. Fukuda, 
 J. Hasegawa, M. Ishida, T. Nakajima, Y. Honda, O. Kitao, H. Nakai, 
 T. Vreven, K. Throssell, J. A. Montgomery, Jr., J. E. Peralta, 
 F. Ogliaro, M. J. Bearpark, J. J. Heyd, E. N. Brothers, K. N. Kudin, 
 V. N. Staroverov, T. A. Keith, R. Kobayashi, J. Normand, 
 K. Raghavachari, A. P. Rendell, J. C. Burant, S. S. Iyengar, 
 J. Tomasi, M. Cossi, J. M. Millam, M. Klene, C. Adamo, R. Cammi, 
 J. W. Ochterski, R. L. Martin, K. Morokuma, O. Farkas, 
 J. B. Foresman, and D. J. Fox, Gaussian, Inc., Wallingford CT, 2016.
 
 ******************************************
 Gaussian 16:  ES64L-G16RevB.01 20-Dec-2017
                13-Oct-2024 
 ******************************************
 %NProcShared=26
 Will use up to   26 processors via shared memory.
 %MEM=20GB
 %chk=CHKfiles/0070.chk
 ---------------------------------------------------------------------
 #p b3lyp 6-31++g(d,p) scf=verytight NoSymm freq=noraman int=ultrafine
 ---------------------------------------------------------------------
 1/10=4,30=1,38=1/1,3;
 2/12=2,15=1,17=6,18=5,40=1/2;
 3/5=1,6=6,7=1111,11=2,25=1,30=1,71=2,74=-5,75=-5,140=1/1,2,3;
 4//1;
 5/5=2,17=3,38=5,98=1/2;
 8/6=4,10=90,11=11/1;
 11/6=1,8=1,9=11,15=111,16=1,31=1/1,2,10;
 10/6=1,31=1/2;
 6/7=2,8=2,9=2,10=2,28=1/1;
 7/8=1,10=1,25=1,30=1/1,2,3,16;
 1/10=4,30=1/3;
 99//99;
 Leave Link    1 at Sun Oct 13 09:49:23 2024, MaxMem=  2684354560 cpu:               1.3 elap:               0.1
 (Enter /usr/local/g16_AVX//g16/l101.exe)
 -------------------------
 RxCoord=-3.09930 DE=24.54
 -------------------------
 Symbolic Z-matrix:
 Charge = -1 Multiplicity = 1
 C                     0.43382   0.00001  -0.00025 
 Cl                   -2.25576  0.         0.00011 
 H                     0.15099   0.00243  -1.04672 
 H                     0.15113   0.90506   0.52514 
 H                     0.15111  -0.90748   0.52092 
 C                     2.18045   0.       -0.00019 
 N                     3.36022  -0.00001   0.00015 
 
 ITRead=  0  0  0  0  0  0  0
 MicOpt= -1 -1 -1 -1 -1 -1 -1
 NAtoms=      7 NQM=        7 NQMF=       0 NMMI=      0 NMMIF=      0
                NMic=       0 NMicF=      0.
                    Isotopes and Nuclear Properties:
 (Nuclear quadrupole moments (NQMom) in fm**2, nuclear magnetic moments (NMagM)
  in nuclear magnetons)

  Atom         1           2           3           4           5           6           7
 IAtWgt=          12          35           1           1           1          12          14
 AtmWgt=  12.0000000  34.9688527   1.0078250   1.0078250   1.0078250  12.0000000  14.0030740
 NucSpn=           0           3           1           1           1           0           2
 AtZEff=  -0.0000000  -0.0000000  -0.0000000  -0.0000000  -0.0000000  -0.0000000  -0.0000000
 NQMom=    0.0000000  -8.1650000   0.0000000   0.0000000   0.0000000   0.0000000   2.0440000
 NMagM=    0.0000000   0.8218740   2.7928460   2.7928460   2.7928460   0.0000000   0.4037610
 AtZNuc=   6.0000000  17.0000000   1.0000000   1.0000000   1.0000000   6.0000000   7.0000000
 Leave Link  101 at Sun Oct 13 09:49:23 2024, MaxMem=  2684354560 cpu:               2.8 elap:               0.2
 (Enter /usr/local/g16_AVX//g16/l103.exe)

 GradGradGradGradGradGradGradGradGradGradGradGradGradGradGradGradGradGrad
 Berny optimization.
 Initialization pass.
 Trust Radius=3.00D-01 FncErr=1.00D-07 GrdErr=1.00D-07 EigMax=2.50D+02 EigMin=1.00D-04
 Number of steps in this run=      2 maximum allowed number of steps=      2.
 GradGradGradGradGradGradGradGradGradGradGradGradGradGradGradGradGradGrad

 Leave Link  103 at Sun Oct 13 09:49:23 2024, MaxMem=  2684354560 cpu:               0.5 elap:               0.0
 (Enter /usr/local/g16_AVX//g16/l202.exe)
                          Input orientation:                          
 ---------------------------------------------------------------------
 Center     Atomic      Atomic             Coordinates (Angstroms)
 Number     Number       Type             X           Y           Z
 ---------------------------------------------------------------------
      1          6           0        0.433820    0.000006   -0.000245
      2         17           0       -2.255763   -0.000001    0.000109
      3          1           0        0.150989    0.002433   -1.046719
      4          1           0        0.151126    0.905058    0.525137
      5          1           0        0.151112   -0.907477    0.520920
      6          6           0        2.180451    0.000002   -0.000187
      7          7           0        3.360222   -0.000006    0.000146
 ---------------------------------------------------------------------
                    Distance matrix (angstroms):
                    1          2          3          4          5
     1  C    0.000000
     2  Cl   2.689583   0.000000
     3  H    1.084024   2.624559   0.000000
     4  H    1.084002   2.624481   1.812585   0.000000
     5  H    1.084003   2.624463   1.812575   1.812540   0.000000
     6  C    1.746631   4.436214   2.283408   2.283255   2.283262
     7  N    2.926402   5.615985   3.375664   3.375360   3.375366
                    6          7
     6  C    0.000000
     7  N    1.179771   0.000000
 Symmetry turned off by external request.
 This structure is nearly, but not quite of a higher symmetry.
 Consider Symm=Loose if the higher symmetry is desired.
 Stoichiometry    C2H3ClN(1-)
 Framework group  C1[X(C2H3ClN)]
 Deg. of freedom    15
 Full point group                 C1      NOp   1
 Rotational constants (GHZ):         152.6314042           1.2727284           1.2727281
 Leave Link  202 at Sun Oct 13 09:49:23 2024, MaxMem=  2684354560 cpu:               0.2 elap:               0.0
 (Enter /usr/local/g16_AVX//g16/l301.exe)
 Standard basis: 6-31++G(d,p) (6D, 7F)
 Ernie: Thresh=  0.10000D-02 Tol=  0.10000D-05 Strict=F.
    98 basis functions,   176 primitive gaussians,    98 cartesian basis functions
    20 alpha electrons       20 beta electrons
       nuclear repulsion energy       108.1990555098 Hartrees.
 IExCor=  402 DFT=T Ex+Corr=B3LYP ExCW=0 ScaHFX=  0.200000
 ScaDFX=  0.800000  0.720000  1.000000  0.810000 ScalE2=  1.000000  1.000000
 IRadAn=      5 IRanWt=     -1 IRanGd=            0 ICorTp=0 IEmpDi=  4
 NAtoms=    7 NActive=    7 NUniq=    7 SFac= 1.00D+00 NAtFMM=   60 NAOKFM=F Big=F
 Integral buffers will be    131072 words long.
 Raffenetti 2 integral format.
 Two-electron integral symmetry is turned off.
 Leave Link  301 at Sun Oct 13 09:49:24 2024, MaxMem=  2684354560 cpu:               1.3 elap:               0.1
 (Enter /usr/local/g16_AVX//g16/l302.exe)
 NPDir=0 NMtPBC=     1 NCelOv=     1 NCel=       1 NClECP=     1 NCelD=      1
         NCelK=      1 NCelE2=     1 NClLst=     1 CellRange=     0.0.
 One-electron integrals computed using PRISM.
 NBasis=    98 RedAO= T EigKep=  3.02D-05  NBF=    98
 NBsUse=    98 1.00D-06 EigRej= -1.00D+00 NBFU=    98
 Precomputing XC quadrature grid using
 IXCGrd= 4 IRadAn=           5 IRanWt=          -1 IRanGd=           0 AccXCQ= 0.00D+00.
 Generated NRdTot=       0 NPtTot=           0 NUsed=           0 NTot=          32
 NSgBfM=    98    98    98    98    98 MxSgAt=     7 MxSgA2=     7.
 Leave Link  302 at Sun Oct 13 09:49:24 2024, MaxMem=  2684354560 cpu:               3.9 elap:               0.2
 (Enter /usr/local/g16_AVX//g16/l303.exe)
 DipDrv:  MaxL=1.
 Leave Link  303 at Sun Oct 13 09:49:24 2024, MaxMem=  2684354560 cpu:               0.7 elap:               0.1
 (Enter /usr/local/g16_AVX//g16/l401.exe)
 ExpMin= 3.60D-02 ExpMax= 2.52D+04 ExpMxC= 3.78D+03 IAcc=3 IRadAn=         5 AccDes= 0.00D+00
 Harris functional with IExCor=  402 and IRadAn=       5 diagonalized for initial guess.
 HarFok:  IExCor=  402 AccDes= 0.00D+00 IRadAn=         5 IDoV= 1 UseB2=F ITyADJ=14
 ICtDFT=  3500011 ScaDFX=  1.000000  1.000000  1.000000  1.000000
 FoFCou: FMM=F IPFlag=           0 FMFlag=      100000 FMFlg1=           0
         NFxFlg=           0 DoJE=T BraDBF=F KetDBF=T FulRan=T
         wScrn=  0.000000 ICntrl=       500 IOpCl=  0 I1Cent=   200000004 NGrid=           0
         NMat0=    1 NMatS0=      1 NMatT0=    0 NMatD0=    1 NMtDS0=    0 NMtDT0=    0
 Symmetry not used in FoFCou.
 Harris En= -593.071847622771    
 JPrj=0 DoOrth=F DoCkMO=F.
 Leave Link  401 at Sun Oct 13 09:49:24 2024, MaxMem=  2684354560 cpu:               5.9 elap:               0.3
 (Enter /usr/local/g16_AVX//g16/l502.exe)
 Keep R1 ints in memory in canonical form, NReq=35752935.
 FoFCou: FMM=F IPFlag=           0 FMFlag=           0 FMFlg1=           0
         NFxFlg=           0 DoJE=F BraDBF=F KetDBF=F FulRan=T
         wScrn=  0.000000 ICntrl=       600 IOpCl=  0 I1Cent=           0 NGrid=           0
         NMat0=    1 NMatS0=   4851 NMatT0=    0 NMatD0=    1 NMtDS0=    0 NMtDT0=    0
 Symmetry not used in FoFCou.
 Two-electron integral symmetry not used.
 Closed shell SCF:
 Using DIIS extrapolation, IDIIS=  1040.
 NGot=  2684354560 LenX=  2672563405 LenY=  2672553360
 Requested convergence on RMS density matrix=1.00D-08 within 128 cycles.
 Requested convergence on MAX density matrix=1.00D-06.
 Requested convergence on             energy=1.00D-06.
 No special actions if energy rises.

 Cycle   1  Pass 1  IDiag  1:
 E= -592.923331548342    
 DIIS: error= 3.04D-02 at cycle   1 NSaved=   1.
 NSaved= 1 IEnMin= 1 EnMin= -592.923331548342     IErMin= 1 ErrMin= 3.04D-02
 ErrMax= 3.04D-02  0.00D+00 EMaxC= 1.00D-01 BMatC= 1.01D-01 BMatP= 1.01D-01
 IDIUse=3 WtCom= 6.96D-01 WtEn= 3.04D-01
 Coeff-Com:  0.100D+01
 Coeff-En:   0.100D+01
 Coeff:      0.100D+01
 Gap=     0.178 Goal=   None    Shift=    0.000
 GapD=    0.178 DampG=1.000 DampE=0.500 DampFc=0.5000 IDamp=-1.
 Damping current iteration by 5.00D-01
 RMSDP=9.96D-03 MaxDP=1.88D-01              OVMax= 1.95D-01

 Cycle   2  Pass 1  IDiag  1:
 E= -592.948475744269     Delta-E=       -0.025144195927 Rises=F Damp=T
 DIIS: error= 1.93D-02 at cycle   2 NSaved=   2.
 NSaved= 2 IEnMin= 2 EnMin= -592.948475744269     IErMin= 2 ErrMin= 1.93D-02
 ErrMax= 1.93D-02  0.00D+00 EMaxC= 1.00D-01 BMatC= 2.44D-02 BMatP= 1.01D-01
 IDIUse=3 WtCom= 8.07D-01 WtEn= 1.93D-01
 Coeff-Com:  0.258D+00 0.742D+00
 Coeff-En:   0.369D+00 0.631D+00
 Coeff:      0.279D+00 0.721D+00
 Gap=     0.153 Goal=   None    Shift=    0.000
 RMSDP=3.67D-03 MaxDP=7.69D-02 DE=-2.51D-02 OVMax= 1.81D-01

 Cycle   3  Pass 1  IDiag  1:
 E= -593.008292257574     Delta-E=       -0.059816513305 Rises=F Damp=F
 DIIS: error= 1.77D-02 at cycle   3 NSaved=   3.
 NSaved= 3 IEnMin= 3 EnMin= -593.008292257574     IErMin= 3 ErrMin= 1.77D-02
 ErrMax= 1.77D-02  0.00D+00 EMaxC= 1.00D-01 BMatC= 2.06D-02 BMatP= 2.44D-02
 IDIUse=3 WtCom= 8.23D-01 WtEn= 1.77D-01
 Coeff-Com:  0.656D-01 0.464D+00 0.470D+00
 Coeff-En:   0.000D+00 0.000D+00 0.100D+01
 Coeff:      0.540D-01 0.382D+00 0.564D+00
 Gap=     0.177 Goal=   None    Shift=    0.000
 RMSDP=3.06D-03 MaxDP=6.63D-02 DE=-5.98D-02 OVMax= 7.72D-02

 Cycle   4  Pass 1  IDiag  1:
 E= -593.020254619177     Delta-E=       -0.011962361603 Rises=F Damp=F
 DIIS: error= 1.25D-02 at cycle   4 NSaved=   4.
 NSaved= 4 IEnMin= 4 EnMin= -593.020254619177     IErMin= 4 ErrMin= 1.25D-02
 ErrMax= 1.25D-02  0.00D+00 EMaxC= 1.00D-01 BMatC= 8.90D-03 BMatP= 2.06D-02
 IDIUse=3 WtCom= 8.75D-01 WtEn= 1.25D-01
 Coeff-Com:  0.309D-01 0.446D-01 0.378D+00 0.547D+00
 Coeff-En:   0.000D+00 0.000D+00 0.336D+00 0.664D+00
 Coeff:      0.271D-01 0.390D-01 0.373D+00 0.561D+00
 Gap=     0.167 Goal=   None    Shift=    0.000
 RMSDP=1.11D-03 MaxDP=2.12D-02 DE=-1.20D-02 OVMax= 3.15D-02

 Cycle   5  Pass 1  IDiag  1:
 E= -593.028260126846     Delta-E=       -0.008005507669 Rises=F Damp=F
 DIIS: error= 1.10D-03 at cycle   5 NSaved=   5.
 NSaved= 5 IEnMin= 5 EnMin= -593.028260126846     IErMin= 5 ErrMin= 1.10D-03
 ErrMax= 1.10D-03  0.00D+00 EMaxC= 1.00D-01 BMatC= 1.31D-04 BMatP= 8.90D-03
 IDIUse=3 WtCom= 9.89D-01 WtEn= 1.10D-02
 Coeff-Com:  0.906D-02-0.707D-02 0.152D+00 0.278D+00 0.567D+00
 Coeff-En:   0.000D+00 0.000D+00 0.000D+00 0.000D+00 0.100D+01
 Coeff:      0.896D-02-0.699D-02 0.151D+00 0.275D+00 0.572D+00
 Gap=     0.170 Goal=   None    Shift=    0.000
 RMSDP=2.29D-04 MaxDP=4.27D-03 DE=-8.01D-03 OVMax= 4.19D-03

 Cycle   6  Pass 1  IDiag  1:
 E= -593.028403366180     Delta-E=       -0.000143239335 Rises=F Damp=F
 DIIS: error= 1.38D-04 at cycle   6 NSaved=   6.
 NSaved= 6 IEnMin= 6 EnMin= -593.028403366180     IErMin= 6 ErrMin= 1.38D-04
 ErrMax= 1.38D-04  0.00D+00 EMaxC= 1.00D-01 BMatC= 2.92D-06 BMatP= 1.31D-04
 IDIUse=3 WtCom= 9.99D-01 WtEn= 1.38D-03
 Coeff-Com:  0.174D-02-0.369D-02 0.298D-01 0.575D-01 0.202D+00 0.713D+00
 Coeff-En:   0.000D+00 0.000D+00 0.000D+00 0.000D+00 0.000D+00 0.100D+01
 Coeff:      0.173D-02-0.369D-02 0.298D-01 0.574D-01 0.201D+00 0.713D+00
 Gap=     0.169 Goal=   None    Shift=    0.000
 RMSDP=9.15D-05 MaxDP=3.00D-03 DE=-1.43D-04 OVMax= 6.94D-04

 Cycle   7  Pass 1  IDiag  1:
 E= -593.028406846050     Delta-E=       -0.000003479869 Rises=F Damp=F
 DIIS: error= 1.77D-05 at cycle   7 NSaved=   7.
 NSaved= 7 IEnMin= 7 EnMin= -593.028406846050     IErMin= 7 ErrMin= 1.77D-05
 ErrMax= 1.77D-05  0.00D+00 EMaxC= 1.00D-01 BMatC= 5.75D-08 BMatP= 2.92D-06
 IDIUse=1 WtCom= 1.00D+00 WtEn= 0.00D+00
 Coeff-Com:  0.193D-03-0.811D-03 0.306D-02 0.596D-02 0.382D-01 0.198D+00
 Coeff-Com:  0.756D+00
 Coeff:      0.193D-03-0.811D-03 0.306D-02 0.596D-02 0.382D-01 0.198D+00
 Coeff:      0.756D+00
 Gap=     0.169 Goal=   None    Shift=    0.000
 RMSDP=5.40D-06 MaxDP=1.17D-04 DE=-3.48D-06 OVMax= 1.25D-04

 Cycle   8  Pass 1  IDiag  1:
 E= -593.028406890688     Delta-E=       -0.000000044638 Rises=F Damp=F
 DIIS: error= 1.07D-05 at cycle   8 NSaved=   8.
 NSaved= 8 IEnMin= 8 EnMin= -593.028406890688     IErMin= 8 ErrMin= 1.07D-05
 ErrMax= 1.07D-05  0.00D+00 EMaxC= 1.00D-01 BMatC= 1.77D-08 BMatP= 5.75D-08
 IDIUse=1 WtCom= 1.00D+00 WtEn= 0.00D+00
 Coeff-Com: -0.138D-04-0.125D-03-0.879D-03-0.164D-02 0.329D-02 0.453D-01
 Coeff-Com:  0.408D+00 0.546D+00
 Coeff:     -0.138D-04-0.125D-03-0.879D-03-0.164D-02 0.329D-02 0.453D-01
 Coeff:      0.408D+00 0.546D+00
 Gap=     0.169 Goal=   None    Shift=    0.000
 RMSDP=1.86D-06 MaxDP=5.28D-05 DE=-4.46D-08 OVMax= 4.35D-05

 Cycle   9  Pass 1  IDiag  1:
 E= -593.028406910954     Delta-E=       -0.000000020266 Rises=F Damp=F
 DIIS: error= 6.92D-07 at cycle   9 NSaved=   9.
 NSaved= 9 IEnMin= 9 EnMin= -593.028406910954     IErMin= 9 ErrMin= 6.92D-07
 ErrMax= 6.92D-07  0.00D+00 EMaxC= 1.00D-01 BMatC= 6.94D-11 BMatP= 1.77D-08
 IDIUse=1 WtCom= 1.00D+00 WtEn= 0.00D+00
 Coeff-Com:  0.421D-06 0.294D-06-0.178D-03-0.269D-03-0.102D-02-0.240D-02
 Coeff-Com:  0.102D-01 0.488D-01 0.945D+00
 Coeff:      0.421D-06 0.294D-06-0.178D-03-0.269D-03-0.102D-02-0.240D-02
 Coeff:      0.102D-01 0.488D-01 0.945D+00
 Gap=     0.169 Goal=   None    Shift=    0.000
 RMSDP=9.56D-07 MaxDP=3.00D-05 DE=-2.03D-08 OVMax= 4.99D-06

 Cycle  10  Pass 1  IDiag  1:
 E= -593.028406911056     Delta-E=       -0.000000000102 Rises=F Damp=F
 DIIS: error= 2.23D-07 at cycle  10 NSaved=  10.
 NSaved=10 IEnMin=10 EnMin= -593.028406911056     IErMin=10 ErrMin= 2.23D-07
 ErrMax= 2.23D-07  0.00D+00 EMaxC= 1.00D-01 BMatC= 2.14D-12 BMatP= 6.94D-11
 IDIUse=1 WtCom= 1.00D+00 WtEn= 0.00D+00
 Coeff-Com:  0.219D-07 0.116D-05-0.306D-04-0.472D-04-0.299D-03-0.137D-02
 Coeff-Com: -0.413D-02 0.365D-02 0.213D+00 0.789D+00
 Coeff:      0.219D-07 0.116D-05-0.306D-04-0.472D-04-0.299D-03-0.137D-02
 Coeff:     -0.413D-02 0.365D-02 0.213D+00 0.789D+00
 Gap=     0.169 Goal=   None    Shift=    0.000
 RMSDP=7.87D-08 MaxDP=1.81D-06 DE=-1.02D-10 OVMax= 6.37D-07

 Cycle  11  Pass 1  IDiag  1:
 E= -593.028406911058     Delta-E=       -0.000000000002 Rises=F Damp=F
 DIIS: error= 6.17D-08 at cycle  11 NSaved=  11.
 NSaved=11 IEnMin=11 EnMin= -593.028406911058     IErMin=11 ErrMin= 6.17D-08
 ErrMax= 6.17D-08  0.00D+00 EMaxC= 1.00D-01 BMatC= 1.16D-13 BMatP= 2.14D-12
 IDIUse=1 WtCom= 1.00D+00 WtEn= 0.00D+00
 Coeff-Com: -0.256D-06 0.682D-06 0.228D-06-0.163D-05-0.329D-04-0.284D-03
 Coeff-Com: -0.176D-02-0.196D-02 0.262D-02 0.212D+00 0.790D+00
 Coeff:     -0.256D-06 0.682D-06 0.228D-06-0.163D-05-0.329D-04-0.284D-03
 Coeff:     -0.176D-02-0.196D-02 0.262D-02 0.212D+00 0.790D+00
 Gap=     0.169 Goal=   None    Shift=    0.000
 RMSDP=3.67D-08 MaxDP=1.11D-06 DE=-1.82D-12 OVMax= 1.33D-07

 Cycle  12  Pass 1  IDiag  1:
 E= -593.028406911058     Delta-E=       -0.000000000000 Rises=F Damp=F
 DIIS: error= 5.55D-09 at cycle  12 NSaved=  12.
 NSaved=12 IEnMin=12 EnMin= -593.028406911058     IErMin=12 ErrMin= 5.55D-09
 ErrMax= 5.55D-09  0.00D+00 EMaxC= 1.00D-01 BMatC= 2.14D-15 BMatP= 1.16D-13
 IDIUse=1 WtCom= 1.00D+00 WtEn= 0.00D+00
 Coeff-Com: -0.599D-07 0.718D-07 0.621D-06 0.898D-06 0.433D-05 0.151D-04
 Coeff-Com:  0.146D-04-0.275D-03-0.423D-02 0.706D-02 0.697D-01 0.928D+00
 Coeff:     -0.599D-07 0.718D-07 0.621D-06 0.898D-06 0.433D-05 0.151D-04
 Coeff:      0.146D-04-0.275D-03-0.423D-02 0.706D-02 0.697D-01 0.928D+00
 Gap=     0.169 Goal=   None    Shift=    0.000
 RMSDP=1.43D-09 MaxDP=3.70D-08 DE=-2.27D-13 OVMax= 2.00D-08

 SCF Done:  E(RB3LYP) =  -593.028406911     A.U. after   12 cycles
            NFock= 12  Conv=0.14D-08     -V/T= 2.0050
 KE= 5.900724712683D+02 PE=-1.626696450077D+03 EE= 3.353965163880D+02
 Leave Link  502 at Sun Oct 13 09:49:26 2024, MaxMem=  2684354560 cpu:              36.1 elap:               1.7
 (Enter /usr/local/g16_AVX//g16/l801.exe)
 DoSCS=F DFT=T ScalE2(SS,OS)=  1.000000  1.000000
 Range of M.O.s used for correlation:     1    98
 NBasis=    98 NAE=    20 NBE=    20 NFC=     0 NFV=     0
 NROrb=     98 NOA=    20 NOB=    20 NVA=    78 NVB=    78

 **** Warning!!: The largest alpha MO coefficient is  0.93284673D+02

 Leave Link  801 at Sun Oct 13 09:49:26 2024, MaxMem=  2684354560 cpu:               0.7 elap:               0.1
 (Enter /usr/local/g16_AVX//g16/l1101.exe)
 Using compressed storage, NAtomX=     7.
 Will process      8 centers per pass.
 Leave Link 1101 at Sun Oct 13 09:49:26 2024, MaxMem=  2684354560 cpu:               3.5 elap:               0.2
 (Enter /usr/local/g16_AVX//g16/l1102.exe)
 Symmetrizing basis deriv contribution to polar:
 IMax=3 JMax=2 DiffMx= 0.00D+00
 Leave Link 1102 at Sun Oct 13 09:49:27 2024, MaxMem=  2684354560 cpu:               0.7 elap:               0.1
 (Enter /usr/local/g16_AVX//g16/l1110.exe)
 Forming Gx(P) for the SCF density, NAtomX=     7.
 Integral derivatives from FoFJK, PRISM(SPDF).
 Do as many integral derivatives as possible in FoFJK.
 G2DrvN: MDV=    2684353864.
 G2DrvN: will do     8 centers at a time, making    1 passes.
 Calling FoFCou, ICntrl=  3107 FMM=F I1Cent=   0 AccDes= 0.00D+00.
 FoFJK:  IHMeth= 1 ICntrl=    3107 DoSepK=F KAlg= 0 I1Cent=           0 FoldK=F
 IRaf=         0 NMat=       1 IRICut=       1 DoRegI=T DoRafI=F ISym2E= 0 IDoP0=0 IntGTp=1.
 FoFCou: FMM=F IPFlag=           0 FMFlag=      100000 FMFlg1=           0
         NFxFlg=           0 DoJE=F BraDBF=F KetDBF=F FulRan=T
         wScrn=  0.000000 ICntrl=      3107 IOpCl=  0 I1Cent=           0 NGrid=           0
         NMat0=    1 NMatS0=      1 NMatT0=    0 NMatD0=    1 NMtDS0=    0 NMtDT0=    0
 Symmetry not used in FoFCou.
 End of G2Drv F.D. properties file   721 does not exist.
 End of G2Drv F.D. properties file   722 does not exist.
 End of G2Drv F.D. properties file   788 does not exist.
 Leave Link 1110 at Sun Oct 13 09:49:28 2024, MaxMem=  2684354560 cpu:              39.3 elap:               1.6
 (Enter /usr/local/g16_AVX//g16/l1002.exe)
 Minotr:  Closed shell wavefunction.
          IDoAtm=1111111
          Direct CPHF calculation.
          Differentiating once with respect to electric field.
                with respect to dipole field.
          Differentiating once with respect to nuclear coordinates.
          Requested convergence is 1.0D-08 RMS, and 1.0D-07 maximum.
          Secondary convergence is 1.0D-12 RMS, and 1.0D-12 maximum.
          NewPWx=T KeepS1=F KeepF1=F KeepIn=T MapXYZ=F SortEE=F KeepMc=T.
         2122 words used for storage of precomputed grid.
 Keep R1 ints in memory in canonical form, NReq=35668383.
 FoFCou: FMM=F IPFlag=           0 FMFlag=           0 FMFlg1=           0
         NFxFlg=           0 DoJE=F BraDBF=F KetDBF=F FulRan=T
         wScrn=  0.000000 ICntrl=       600 IOpCl=  0 I1Cent=           0 NGrid=           0
         NMat0=    1 NMatS0=   4851 NMatT0=    0 NMatD0=    1 NMtDS0=    0 NMtDT0=    0
 Symmetry not used in FoFCou.
 Two-electron integral symmetry not used.
          MDV=    2684354560 using IRadAn=       1.
          Solving linear equations simultaneously, MaxMat=       0.
          There are    24 degrees of freedom in the 1st order CPHF.  IDoFFX=6 NUNeed=     3.
     21 vectors produced by pass  0 Test12= 6.50D-15 4.17D-09 XBig12= 8.80D+01 5.58D+00.
 AX will form    21 AO Fock derivatives at one time.
     21 vectors produced by pass  1 Test12= 6.50D-15 4.17D-09 XBig12= 5.28D+01 2.99D+00.
     21 vectors produced by pass  2 Test12= 6.50D-15 4.17D-09 XBig12= 2.73D+00 4.77D-01.
     21 vectors produced by pass  3 Test12= 6.50D-15 4.17D-09 XBig12= 2.43D-02 3.43D-02.
     21 vectors produced by pass  4 Test12= 6.50D-15 4.17D-09 XBig12= 5.39D-05 1.56D-03.
     20 vectors produced by pass  5 Test12= 6.50D-15 4.17D-09 XBig12= 8.86D-08 6.51D-05.
      5 vectors produced by pass  6 Test12= 6.50D-15 4.17D-09 XBig12= 1.67D-10 2.91D-06.
      1 vectors produced by pass  7 Test12= 6.50D-15 4.17D-09 XBig12= 2.51D-13 1.61D-07.
      1 vectors produced by pass  8 Test12= 6.50D-15 4.17D-09 XBig12= 3.87D-16 6.15D-09.
 InvSVY:  IOpt=1 It=  1 EMax= 2.66D-15
 Solved reduced A of dimension   132 with    24 vectors.
 FullF1:  Do perturbations      1 to       3.
 Isotropic polarizability for W=    0.000000       58.85 Bohr**3.
 End of Minotr F.D. properties file   721 does not exist.
 End of Minotr F.D. properties file   722 does not exist.
 End of Minotr F.D. properties file   788 does not exist.
 Leave Link 1002 at Sun Oct 13 09:49:30 2024, MaxMem=  2684354560 cpu:              56.9 elap:               2.3
 (Enter /usr/local/g16_AVX//g16/l601.exe)
 Copying SCF densities to generalized density rwf, IOpCl= 0 IROHF=0.

 **********************************************************************

            Population analysis using the SCF Density.

 **********************************************************************

 Alpha  occ. eigenvalues -- -101.26391 -14.21461 -10.10862 -10.10332  -9.17840
 Alpha  occ. eigenvalues --   -6.93618  -6.93604  -6.93604  -0.76794  -0.59246
 Alpha  occ. eigenvalues --   -0.51833  -0.33021  -0.30376  -0.30376  -0.23467
 Alpha  occ. eigenvalues --   -0.20506  -0.20505  -0.06440  -0.06440  -0.06244
 Alpha virt. eigenvalues --    0.10700   0.14656   0.14657   0.14696   0.15583
 Alpha virt. eigenvalues --    0.15583   0.19375   0.20667   0.21103   0.21103
 Alpha virt. eigenvalues --    0.23970   0.23999   0.23999   0.26011   0.26011
 Alpha virt. eigenvalues --    0.26199   0.31340   0.34094   0.34094   0.34707
 Alpha virt. eigenvalues --    0.34707   0.35121   0.39126   0.42545   0.47793
 Alpha virt. eigenvalues --    0.72450   0.78819   0.78819   0.83178   0.83179
 Alpha virt. eigenvalues --    0.84194   0.85962   0.85963   0.88535   0.97632
 Alpha virt. eigenvalues --    1.00109   1.04346   1.04346   1.11854   1.12200
 Alpha virt. eigenvalues --    1.12201   1.14275   1.14275   1.16737   1.16737
 Alpha virt. eigenvalues --    1.24347   1.24937   1.36427   1.51803   1.51902
 Alpha virt. eigenvalues --    1.51902   1.66000   1.66000   1.78039   1.78040
 Alpha virt. eigenvalues --    1.84934   2.07912   2.07912   2.10103   2.14384
 Alpha virt. eigenvalues --    2.20713   2.20718   2.46752   2.46754   2.77250
 Alpha virt. eigenvalues --    2.78006   2.78009   2.92562   2.97978   2.97980
 Alpha virt. eigenvalues --    3.19681   3.45549   3.55407   3.55412   4.20299
 Alpha virt. eigenvalues --    4.37987   4.57597   4.66847
          Condensed to atoms (all electrons):
               1          2          3          4          5          6
     1  C    5.571629  -0.141948   0.429290   0.429190   0.429189  -0.583292
     2  Cl  -0.141948  17.968449  -0.026681  -0.026709  -0.026708   0.096949
     3  H    0.429290  -0.026681   0.482352  -0.020768  -0.020769  -0.057026
     4  H    0.429190  -0.026709  -0.020768   0.482336  -0.020770  -0.056876
     5  H    0.429189  -0.026708  -0.020769  -0.020770   0.482333  -0.056873
     6  C   -0.583292   0.096949  -0.057026  -0.056876  -0.056873   6.260961
     7  N   -0.085324   0.001924  -0.004765  -0.004778  -0.004779   0.614052
               7
     1  C   -0.085324
     2  Cl   0.001924
     3  H   -0.004765
     4  H   -0.004778
     5  H   -0.004779
     6  C    0.614052
     7  N    7.026889
 Mulliken charges:
               1
     1  C   -0.048734
     2  Cl  -0.845275
     3  H    0.218367
     4  H    0.218376
     5  H    0.218378
     6  C   -0.217894
     7  N   -0.543219
 Sum of Mulliken charges =  -1.00000
 Mulliken charges with hydrogens summed into heavy atoms:
               1
     1  C    0.606387
     2  Cl  -0.845275
     6  C   -0.217894
     7  N   -0.543219
 APT charges:
               1
     1  C    0.615218
     2  Cl  -1.022948
     3  H    0.042980
     4  H    0.042967
     5  H    0.042971
     6  C   -0.220612
     7  N   -0.500575
 Sum of APT charges =  -1.00000
 APT charges with hydrogens summed into heavy atoms:
               1
     1  C    0.744135
     2  Cl  -1.022948
     6  C   -0.220612
     7  N   -0.500575
 Electronic spatial extent (au):  <R**2>=            824.7994
 Charge=             -1.0000 electrons
 Dipole moment (field-independent basis, Debye):
    X=              3.7235    Y=              0.0000    Z=             -0.0010  Tot=              3.7235
 Quadrupole moment (field-independent basis, Debye-Ang):
   XX=            -84.7438   YY=            -35.4797   ZZ=            -35.4796
   XY=              0.0000   XZ=              0.0001   YZ=              0.0000
 Traceless Quadrupole moment (field-independent basis, Debye-Ang):
   XX=            -32.8428   YY=             16.4214   ZZ=             16.4214
   XY=              0.0000   XZ=              0.0001   YZ=              0.0000
 Octapole moment (field-independent basis, Debye-Ang**2):
  XXX=            -32.0219  YYY=             -0.0065  ZZZ=             -0.9394  XYY=              1.8632
  XXY=              0.0002  XXZ=             -0.0066  XZZ=              1.8631  YZZ=              0.0066
  YYZ=              0.9390  XYZ=              0.0000
 Hexadecapole moment (field-independent basis, Debye-Ang**3):
 XXXX=          -1630.6448 YYYY=            -57.3045 ZZZZ=            -57.3041 XXXY=              0.0007
 XXXZ=              0.0005 YYYX=             -0.0003 YYYZ=              0.0000 ZZZX=             -0.0438
 ZZZY=             -0.0000 XXYY=           -208.8210 XXZZ=           -208.8211 YYZZ=            -19.1020
 XXYZ=             -0.0000 YYXZ=              0.0603 ZZXY=              0.0004
 N-N= 1.081990555098D+02 E-N=-1.626696449808D+03  KE= 5.900724712683D+02
  Exact polarizability:  94.998  -0.000  40.778   0.002   0.000  40.779
 Approx polarizability: 115.176  -0.000  50.281   0.006   0.000  50.281
 No NMR shielding tensors so no spin-rotation constants.
 Leave Link  601 at Sun Oct 13 09:49:31 2024, MaxMem=  2684354560 cpu:               2.7 elap:               0.1
 (Enter /usr/local/g16_AVX//g16/l701.exe)
 ... and contract with generalized density number  0.
 Compute integral second derivatives.
 Leave Link  701 at Sun Oct 13 09:49:31 2024, MaxMem=  2684354560 cpu:               4.6 elap:               0.2
 (Enter /usr/local/g16_AVX//g16/l702.exe)
 L702 exits ... SP integral derivatives will be done elsewhere.
 Leave Link  702 at Sun Oct 13 09:49:31 2024, MaxMem=  2684354560 cpu:               0.6 elap:               0.1
 (Enter /usr/local/g16_AVX//g16/l703.exe)
 Integral derivatives from FoFJK, PRISM(SPDF).
 Compute integral second derivatives, UseDBF=F ICtDFT=           0.
 Calling FoFJK, ICntrl=    100127 FMM=F ISym2X=0 I1Cent= 0 IOpClX= 0 NMat=1 NMatS=1 NMatT=0.
 FoFJK:  IHMeth= 1 ICntrl=  100127 DoSepK=F KAlg= 0 I1Cent=           0 FoldK=F
 IRaf=         0 NMat=       1 IRICut=       1 DoRegI=T DoRafI=F ISym2E= 0 IDoP0=0 IntGTp=1.
 FoFCou: FMM=F IPFlag=           0 FMFlag=      100000 FMFlg1=         800
         NFxFlg=           0 DoJE=F BraDBF=F KetDBF=F FulRan=T
         wScrn=  0.000000 ICntrl=    100127 IOpCl=  0 I1Cent=           0 NGrid=           0
         NMat0=    1 NMatS0=      1 NMatT0=    0 NMatD0=    1 NMtDS0=    0 NMtDT0=    0
 Symmetry not used in FoFCou.
 Leave Link  703 at Sun Oct 13 09:49:34 2024, MaxMem=  2684354560 cpu:              68.4 elap:               2.7
 (Enter /usr/local/g16_AVX//g16/l716.exe)
 Dipole        = 1.46493790D+00 7.58647176D-06-3.96457420D-04
 Polarizability= 9.49977233D+01-5.25181905D-05 4.07783321D+01
                 1.52263739D-03 8.13272231D-06 4.07792709D+01
 Full mass-weighted force constant matrix:
 Low frequencies --- -155.1356  -51.6170  -51.4660   -0.0012    0.0034    0.0053
 Low frequencies ---  155.5136  183.0417  183.0830
 ******    1 imaginary frequencies (negative Signs) ****** 
 Diagonal vibrational polarizability:
      348.7315590      20.6697860      20.6897434
 Harmonic frequencies (cm**-1), IR intensities (KM/Mole), Raman scattering
 activities (A**4/AMU), depolarization ratios for plane and unpolarized
 incident light, reduced masses (AMU), force constants (mDyne/A),
 and normal coordinates:
                      1                      2                      3
                      A                      A                      A
 Frequencies --   -155.1356               167.7959               167.8722
 Red. masses --     10.1106                 4.7346                 4.7356
 Frc consts  --      0.1434                 0.0785                 0.0786
 IR Inten    --    297.6546                21.5340                21.5325
  Atom  AN      X      Y      Z        X      Y      Z        X      Y      Z
     1   6     0.75   0.00  -0.00     0.00   0.01   0.43    -0.00   0.43  -0.01
     2  17    -0.01  -0.00   0.00    -0.00  -0.00  -0.11    -0.00  -0.11   0.00
     3   1     0.23  -0.00   0.11    -0.15   0.01   0.48     0.00   0.47  -0.01
     4   1     0.23  -0.10  -0.06     0.08   0.01   0.47     0.13   0.47  -0.01
     5   1     0.23   0.10  -0.05     0.07   0.01   0.47    -0.13   0.47  -0.01
     6   6    -0.35  -0.00   0.00    -0.00   0.00   0.12     0.00   0.12  -0.00
     7   7    -0.36  -0.00  -0.00     0.00  -0.01  -0.30     0.00  -0.30   0.01
                      4                      5                      6
                      A                      A                      A
 Frequencies --    233.1319               435.8307               435.8539
 Red. masses --     14.6142                 3.8551                 3.8550
 Frc consts  --      0.4680                 0.4314                 0.4315
 IR Inten    --     32.0158                 0.0064                 0.0064
  Atom  AN      X      Y      Z        X      Y      Z        X      Y      Z
     1   6    -0.39   0.00   0.00    -0.00   0.01  -0.16     0.00  -0.16  -0.01
     2  17     0.47  -0.00  -0.00     0.00  -0.00   0.02    -0.00   0.02   0.00
     3   1    -0.30   0.00  -0.01     0.54   0.01  -0.32     0.02  -0.32  -0.01
     4   1    -0.30   0.01   0.01    -0.26   0.01  -0.32    -0.48  -0.32  -0.01
     5   1    -0.30  -0.01   0.01    -0.29   0.01  -0.32     0.46  -0.32  -0.01
     6   6    -0.42   0.00  -0.00    -0.00  -0.02   0.43     0.00   0.43   0.02
     7   7    -0.43  -0.00  -0.00     0.00   0.01  -0.21     0.00  -0.21  -0.01
                      7                      8                      9
                      A                      A                      A
 Frequencies --   1009.9479              1009.9799              1219.0621
 Red. masses --      1.2758                 1.2757                 1.0750
 Frc consts  --      0.7667                 0.7667                 0.9413
 IR Inten    --      0.0806                 0.0809                 2.6136
  Atom  AN      X      Y      Z        X      Y      Z        X      Y      Z
     1   6    -0.00  -0.02   0.12     0.00  -0.12  -0.02    -0.07  -0.00  -0.00
     2  17     0.00   0.00  -0.00     0.00   0.00   0.00    -0.01   0.00   0.00
     3   1     0.76   0.04  -0.09    -0.12   0.23   0.01     0.56   0.00  -0.15
     4   1    -0.27   0.08  -0.20     0.72   0.11  -0.03     0.56   0.13   0.08
     5   1    -0.48  -0.04  -0.18    -0.60   0.13   0.09     0.56  -0.13   0.08
     6   6     0.00   0.02  -0.10    -0.00   0.10   0.02    -0.01   0.00   0.00
     7   7    -0.00  -0.00   0.02     0.00  -0.02  -0.00    -0.04   0.00  -0.00
                     10                     11                     12
                      A                      A                      A
 Frequencies --   1434.2980              1434.3113              2154.0510
 Red. masses --      1.0620                 1.0620                12.4280
 Frc consts  --      1.2872                 1.2872                33.9754
 IR Inten    --      7.8190                 7.8244                 0.0159
  Atom  AN      X      Y      Z        X      Y      Z        X      Y      Z
     1   6    -0.00   0.01  -0.07    -0.00  -0.07  -0.01     0.00   0.00  -0.00
     2  17     0.00   0.00  -0.00     0.00  -0.00  -0.00    -0.00  -0.00   0.00
     3   1     0.28  -0.09  -0.12     0.03   0.75  -0.01    -0.09  -0.00   0.05
     4   1    -0.11  -0.39   0.58    -0.26   0.05  -0.31    -0.09  -0.04  -0.02
     5   1    -0.17   0.36   0.48     0.23   0.14   0.44    -0.09   0.04  -0.02
     6   6     0.00   0.00  -0.01     0.00  -0.01  -0.00     0.76  -0.00   0.00
     7   7     0.00  -0.00   0.00     0.00   0.00   0.00    -0.63   0.00  -0.00
                     13                     14                     15
                      A                      A                      A
 Frequencies --   3137.4285              3278.7054              3278.7471
 Red. masses --      1.0194                 1.1146                 1.1146
 Frc consts  --      5.9119                 7.0593                 7.0595
 IR Inten    --      0.5737                 0.8485                 0.8491
  Atom  AN      X      Y      Z        X      Y      Z        X      Y      Z
     1   6    -0.03  -0.00  -0.00     0.00   0.01  -0.10    -0.00  -0.10  -0.01
     2  17    -0.00  -0.00  -0.00     0.00  -0.00   0.00     0.00   0.00   0.00
     3   1     0.14  -0.00   0.56     0.21  -0.00   0.78     0.01  -0.02   0.06
     4   1     0.14  -0.48  -0.28    -0.09   0.31   0.16    -0.19   0.61   0.36
     5   1     0.14   0.49  -0.28    -0.12  -0.39   0.21     0.17   0.56  -0.33
     6   6    -0.00   0.00  -0.00     0.00  -0.00   0.00     0.00   0.00   0.00
     7   7     0.00  -0.00  -0.00    -0.00   0.00  -0.00    -0.00  -0.00  -0.00

 -------------------
 - Thermochemistry -
 -------------------
 Temperature   298.150 Kelvin.  Pressure   1.00000 Atm.
 Atom     1 has atomic number  6 and mass  12.00000
 Atom     2 has atomic number 17 and mass  34.96885
 Atom     3 has atomic number  1 and mass   1.00783
 Atom     4 has atomic number  1 and mass   1.00783
 Atom     5 has atomic number  1 and mass   1.00783
 Atom     6 has atomic number  6 and mass  12.00000
 Atom     7 has atomic number  7 and mass  14.00307
 Molecular mass:    75.99540 amu.
 Principal axes and moments of inertia in atomic units:
                           1         2         3
     Eigenvalues --    11.824181418.009651418.01002
           X            1.00000   0.00002  -0.00000
           Y           -0.00000   0.09826   0.99516
           Z           -0.00002   0.99516  -0.09826
 This molecule is an asymmetric top.
 Rotational symmetry number  1.
 Rotational temperatures (Kelvin)      7.32515     0.06108     0.06108
 Rotational constants (GHZ):         152.63140     1.27273     1.27273
    1 imaginary frequencies ignored.
 Zero-point vibrational energy     116019.9 (Joules/Mol)
                                   27.72943 (Kcal/Mol)
 Warning -- explicit consideration of   5 degrees of freedom as
           vibrations may cause significant error
 Vibrational temperatures:    241.42   241.53   335.42   627.06   627.10
          (Kelvin)           1453.09  1453.14  1753.96  2063.63  2063.65
                             3099.20  4514.06  4717.33  4717.39
 
 Zero-point correction=                           0.044190 (Hartree/Particle)
 Thermal correction to Energy=                    0.049410
 Thermal correction to Enthalpy=                  0.050355
 Thermal correction to Gibbs Free Energy=         0.016011
 Sum of electronic and zero-point Energies=           -592.984217
 Sum of electronic and thermal Energies=              -592.978996
 Sum of electronic and thermal Enthalpies=            -592.978052
 Sum of electronic and thermal Free Energies=         -593.012396
 
                     E (Thermal)             CV                S
                      KCal/Mol        Cal/Mol-Kelvin    Cal/Mol-Kelvin
 Total                   31.006             15.421             72.281
 Electronic               0.000              0.000              0.000
 Translational            0.889              2.981             38.900
 Rotational               0.889              2.981             24.678
 Vibrational             29.228              9.459              8.703
 Vibration     1          0.625              1.882              2.460
 Vibration     2          0.625              1.882              2.459
 Vibration     3          0.654              1.790              1.855
 Vibration     4          0.796              1.392              0.840
 Vibration     5          0.796              1.392              0.840
                       Q            Log10(Q)             Ln(Q)
 Total Bot       0.431791D-07         -7.364726        -16.957909
 Total V=0       0.914292D+13         12.961085         29.844001
 Vib (Bot)       0.300420D-19        -19.522272        -44.951692
 Vib (Bot)    1  0.120188D+01          0.079860          0.183884
 Vib (Bot)    2  0.120130D+01          0.079651          0.183404
 Vib (Bot)    3  0.843671D+00         -0.073827         -0.169992
 Vib (Bot)    4  0.397960D+00         -0.400161         -0.921404
 Vib (Bot)    5  0.397931D+00         -0.400192         -0.921476
 Vib (V=0)       0.636121D+01          0.803540          1.850219
 Vib (V=0)    1  0.180173D+01          0.255690          0.588748
 Vib (V=0)    2  0.180120D+01          0.255562          0.588453
 Vib (V=0)    3  0.148070D+01          0.170468          0.392518
 Vib (V=0)    4  0.113904D+01          0.056539          0.130186
 Vib (V=0)    5  0.113902D+01          0.056532          0.130170
 Electronic      0.100000D+01          0.000000          0.000000
 Translational   0.260396D+08          7.415635         17.075130
 Rotational      0.551963D+05          4.741910         10.918652
 
                                                      RxCoord=-3.09930 DE=24.54
                                                             IR Spectrum
 
      3    3                                     2                           1       1       1                                       
      2    1                                     1                           4       2       0                      4      2  1      
      7    3                                     5                           3       1       1                      3      3  6      
      9    7                                     4                           4       9       0                      6      3  8      
 
      X    X                                                                 X       X       X                             X  X      
                                                                             X                                             X  X      
                                                                             X                                             X  X      
                                                                             X                                             X  X      
                                                                             X                                             X  X      
                                                                             X                                             X  X      
                                                                             X                                             X  X      
                                                                                                                           X  X      
                                                                                                                           X  X      
                                                                                                                           X  X      
                                                                                                                           X  X      
                                                                                                                           X  X      
                                                                                                                           X  X      
                                                                                                                           X  X      
                                                                                                                           X  X      
                                                                                                                              X      
                                                                                                                              X      
                                                                                                                              X      
                                                                                                                              X      
                                                                                                                              X      
 
 -------------------------------------------------------------------
 Center     Atomic                   Forces (Hartrees/Bohr)
 Number     Number              X              Y              Z
 -------------------------------------------------------------------
      1        6           0.071441033   -0.000000716   -0.000006460
      2       17          -0.018597820   -0.000000065    0.000005272
      3        1           0.000296338   -0.000003460    0.001823754
      4        1           0.000284712   -0.001567095   -0.000912885
      5        1           0.000285806    0.001571632   -0.000904818
      6        6          -0.023318518   -0.000000658    0.000008166
      7        7          -0.030391551    0.000000362   -0.000013029
 -------------------------------------------------------------------
 Cartesian Forces:  Max     0.071441033 RMS     0.018162303
 Z-matrix is all fixed cartesians, so copy forces.
 Force constants in Cartesian coordinates: 
                1             2             3             4             5 
      1  0.824624D-01
      2  0.261841D-05  0.633872D+00
      3  0.306402D-04  0.271732D-05  0.633858D+00
      4  0.315812D-03  0.000000D+00  0.123141D-05  0.411798D-01
      5  0.000000D+00 -0.203191D-02  0.000000D+00  0.000000D+00 -0.160134D-02
      6 -0.129754D-05  0.000000D+00 -0.203133D-02 -0.237485D-05  0.000000D+00
      7 -0.426106D-01  0.177738D-03 -0.764652D-01 -0.767500D-02 -0.275970D-05
      8  0.171093D-03 -0.462157D-01  0.672358D-03  0.284901D-05 -0.814350D-03
      9 -0.736357D-01  0.672499D-03 -0.335993D+00 -0.132302D-02 -0.487057D-05
     10 -0.425853D-01  0.661090D-01  0.383740D-01 -0.767733D-02 -0.967606D-03
     11  0.636615D-01 -0.262983D+00 -0.125838D+00  0.114308D-02  0.834140D-03
     12  0.369526D-01 -0.125840D+00 -0.119253D+00  0.664241D-03  0.964422D-03
     13 -0.425868D-01 -0.662894D-01  0.380682D-01 -0.767769D-02  0.970607D-03
     14 -0.638355D-01 -0.264148D+00  0.125163D+00 -0.114544D-02  0.842358D-03
     15  0.366581D-01  0.125165D+00 -0.118084D+00  0.659032D-03 -0.959227D-03
     16  0.258707D-01  0.000000D+00 -0.103458D-05 -0.133898D-01  0.000000D+00
     17  0.000000D+00 -0.727328D-01  0.000000D+00  0.000000D+00  0.349696D-02
     18 -0.177152D-04  0.000000D+00 -0.727366D-01  0.386878D-05  0.000000D+00
     19  0.191339D-01  0.000000D+00 -0.781358D-05 -0.507577D-02  0.000000D+00
     20  0.000000D+00  0.142394D-01  0.000000D+00  0.000000D+00 -0.725863D-03
     21  0.133842D-04  0.000000D+00  0.142404D-01 -0.297625D-05  0.000000D+00
                6             7             8             9            10 
      6 -0.161396D-02
      7  0.111871D-02  0.642630D-01
      8 -0.485204D-05 -0.184504D-03  0.445508D-01
      9  0.138972D-02  0.795311D-01 -0.705003D-03  0.348060D+00
     10 -0.561340D-03  0.326696D-02 -0.749927D-02 -0.352644D-02  0.642481D-01
     11  0.964412D-03 -0.735092D-03  0.214669D-02  0.284328D-02 -0.687592D-01
     12 -0.253275D-03  0.825105D-02 -0.239440D-01 -0.101683D-01 -0.399137D-01
     13 -0.556683D-03  0.326729D-02  0.751545D-02 -0.349180D-02  0.326505D-02
     14 -0.959232D-03  0.696482D-03  0.204807D-02 -0.278620D-02 -0.677983D-02
     15 -0.262215D-03  0.825449D-02  0.240011D-01 -0.100705D-01 -0.476114D-02
     16  0.227291D-05 -0.188426D-01  0.000000D+00  0.402781D-03 -0.188502D-01
     17  0.000000D+00  0.548965D-04 -0.242393D-02 -0.261138D-04  0.204218D-01
     18  0.349694D-02 -0.236075D-01 -0.259880D-04  0.884216D-02  0.118552D-01
     19  0.000000D+00 -0.166904D-02 -0.470562D-05  0.204304D-02 -0.166720D-02
     20  0.000000D+00 -0.676156D-05  0.708393D-03  0.640887D-05 -0.252482D-02
     21 -0.725882D-03  0.291728D-02  0.639878D-05 -0.205966D-02 -0.146660D-02
               11            12            13            14            15 
     11  0.271593D+00
     12  0.131794D+00  0.121041D+00
     13  0.680175D-02 -0.472946D-02  0.642492D-01
     14 -0.162296D-01  0.133380D-01  0.689462D-01  0.272813D+00
     15 -0.134515D-01  0.820602D-02 -0.395954D-01 -0.131087D+00  0.119819D+00
     16 -0.345782D-03 -0.199182D-03 -0.188500D-01  0.347071D-03 -0.197740D-03
     17  0.600141D-02  0.488946D-02 -0.204762D-01  0.604711D-02 -0.486341D-02
     18  0.489050D-02  0.416737D-03  0.117600D-01 -0.486461D-02  0.371300D-03
     19 -0.176624D-02 -0.102555D-02 -0.166699D-02  0.177103D-02 -0.101731D-02
     20 -0.136215D-02 -0.120177D-02  0.253157D-02 -0.137337D-02  0.119536D-02
     21 -0.120243D-02  0.100285D-04 -0.145480D-02  0.119602D-02  0.211865D-04
               16            17            18            19            20 
     16  0.116585D+01
     17 -0.750408D-05  0.957094D-01
     18  0.298614D-03  0.000000D+00  0.957070D-01
     19 -0.112179D+01  0.694455D-05 -0.292508D-03  0.111274D+01
     20  0.733185D-05 -0.360982D-01  0.000000D+00 -0.715549D-05  0.246118D-01
     21 -0.305712D-03  0.000000D+00 -0.360976D-01  0.299425D-03  0.000000D+00
               21 
     21  0.246115D-01
 Leave Link  716 at Sun Oct 13 09:49:34 2024, MaxMem=  2684354560 cpu:               0.9 elap:               0.1
 (Enter /usr/local/g16_AVX//g16/l103.exe)

 GradGradGradGradGradGradGradGradGradGradGradGradGradGradGradGradGradGrad
 Berny optimization.
 Search for a local minimum.
 Step number   1 out of a maximum of    2
 All quantities printed in internal units (Hartrees-Bohrs-Radians)
 Second derivative matrix not updated -- analytic derivatives used.
 ITU=  0
     Eigenvalues ---   -0.00979   0.00537   0.00537   0.02945   0.02946
     Eigenvalues ---    0.04262   0.08943   0.09772   0.09772   0.13990
     Eigenvalues ---    0.13990   0.42487   0.92052   0.92054   2.26086
 Eigenvalue     1 is  -9.79D-03 should be greater than     0.000000 Eigenvector:
                          X1        X7        X6        X3        X4
   1                    0.72437  -0.41958  -0.40803   0.17457   0.17426
                          X5        Z3        Y5        Y4        Z4
   1                    0.17425   0.11463   0.09947  -0.09919  -0.05764
 Quadratic step=7.736D+00 exceeds max=3.000D-01 adjusted using Lamda=-2.518D-01.
 Angle between NR and scaled steps=  13.40 degrees.
 Angle between quadratic step and forces=  11.66 degrees.
 Linear search not attempted -- first point.
 B after Tr=    -0.011191   -0.000000    0.000001
         Rot=    1.000000    0.000000   -0.000001    0.000000 Ang=  -0.00 deg.
 Variable       Old X    -DE/DX   Delta X   Delta X   Delta X     New X
                                 (Linear)    (Quad)   (Total)
    X1        0.81980   0.07144   0.00000   0.25412   0.24293   1.06273
    Y1        0.00001  -0.00000   0.00000  -0.00000  -0.00000   0.00001
    Z1       -0.00046  -0.00001   0.00000  -0.00000  -0.00000  -0.00047
    X2       -4.26277  -0.01860   0.00000  -0.04589  -0.05708  -4.31985
    Y2       -0.00000  -0.00000   0.00000   0.00000   0.00000  -0.00000
    Z2        0.00021   0.00001   0.00000   0.00001   0.00001   0.00022
    X3        0.28533   0.00030   0.00000   0.02198   0.01079   0.29612
    Y3        0.00460  -0.00000   0.00000  -0.00007  -0.00007   0.00453
    Z3       -1.97801   0.00182   0.00000   0.03053   0.03053  -1.94748
    X4        0.28559   0.00028   0.00000   0.02193   0.01074   0.29633
    Y4        1.71031  -0.00157   0.00000  -0.02638  -0.02638   1.68393
    Z4        0.99237  -0.00091   0.00000  -0.01532  -0.01532   0.97704
    X5        0.28556   0.00029   0.00000   0.02194   0.01075   0.29631
    Y5       -1.71488   0.00157   0.00000   0.02646   0.02646  -1.68843
    Z5        0.98440  -0.00090   0.00000  -0.01520  -0.01520   0.96920
    X6        4.12046  -0.02332   0.00000  -0.09567  -0.10686   4.01360
    Y6        0.00000  -0.00000   0.00000  -0.00000  -0.00000   0.00000
    Z6       -0.00035   0.00001   0.00000   0.00003   0.00003  -0.00032
    X7        6.34990  -0.03039   0.00000  -0.10008  -0.11127   6.23862
    Y7       -0.00001   0.00000   0.00000   0.00000   0.00000  -0.00001
    Z7        0.00028  -0.00001   0.00000  -0.00004  -0.00005   0.00023
         Item               Value     Threshold  Converged?
 Maximum Force            0.071441     0.000450     NO 
 RMS     Force            0.018162     0.000300     NO 
 Maximum Displacement     0.242929     0.001800     NO 
 RMS     Displacement     0.065179     0.001200     NO 
 Predicted change in Energy=-2.439280D-02
 GradGradGradGradGradGradGradGradGradGradGradGradGradGradGradGradGradGrad

 Leave Link  103 at Sun Oct 13 09:49:34 2024, MaxMem=  2684354560 cpu:               0.6 elap:               0.1
 (Enter /usr/local/g16_AVX//g16/l9999.exe)

 ----------------------------------------------------------------------

 Electric dipole moment (input orientation):
 (Debye = 10**-18 statcoulomb cm , SI units = C m)
                  (au)            (Debye)         (10**-30 SI)
   Tot        0.146494D+01      0.372350D+01      0.124203D+02
   x          0.146494D+01      0.372350D+01      0.124203D+02
   y          0.000000D+00      0.000000D+00      0.000000D+00
   z         -0.396457D-03     -0.100769D-02     -0.336131D-02

 Dipole polarizability, Alpha (input orientation).
 (esu units = cm**3 , SI units = C**2 m**2 J**-1)
 Alpha(0;0):
               (au)            (10**-24 esu)      (10**-40 SI)
   iso        0.588518D+02      0.872093D+01      0.970335D+01
   aniso      0.542189D+02      0.803442D+01      0.893949D+01
   xx         0.949977D+02      0.140772D+02      0.156630D+02
   yx        -0.525182D-04     -0.778239D-05     -0.865908D-05
   yy         0.407783D+02      0.604273D+01      0.672344D+01
   zx         0.152264D-02      0.225632D-03      0.251049D-03
   zy         0.000000D+00      0.000000D+00      0.000000D+00
   zz         0.407793D+02      0.604286D+01      0.672359D+01

 ----------------------------------------------------------------------

 Dipole orientation:
     6          0.00024112          0.00000709          0.81980108
    17          0.00094766          0.00002019         -4.26277417
     1          1.97793492          0.00460647          0.28586318
     1         -0.99245122          1.71030513          0.28532703
     1         -0.98446449         -1.71488957          0.28528499
     6         -0.00076174         -0.00001756          4.12045516
     7         -0.00199438         -0.00004423          6.34989899

 Electric dipole moment (dipole orientation):
 (Debye = 10**-18 statcoulomb cm , SI units = C m)
                  (au)            (Debye)         (10**-30 SI)
   Tot        0.146494D+01      0.372350D+01      0.124203D+02
   x          0.000000D+00      0.000000D+00      0.000000D+00
   y          0.000000D+00      0.000000D+00      0.000000D+00
   z          0.146494D+01      0.372350D+01      0.124203D+02

 Dipole polarizability, Alpha (dipole orientation).
 (esu units = cm**3 , SI units = C**2 m**2 J**-1)
 Alpha(0;0):
               (au)            (10**-24 esu)      (10**-40 SI)
   iso        0.588518D+02      0.872093D+01      0.970335D+01
   aniso      0.542189D+02      0.803442D+01      0.893949D+01
   xx         0.407793D+02      0.604287D+01      0.672359D+01
   yx         0.000000D+00      0.000000D+00      0.000000D+00
   yy         0.407783D+02      0.604273D+01      0.672344D+01
   zx        -0.161958D-01     -0.239997D-02     -0.267033D-02
   zy        -0.333390D-03     -0.494033D-04     -0.549686D-04
   zz         0.949977D+02      0.140772D+02      0.156630D+02

 ----------------------------------------------------------------------
 1\1\GINC-NODO6\Freq\RB3LYP\6-31++G(d,p)\C2H3Cl1N1(1-)\ALANQF\13-Oct-20
 24\0\\#p b3lyp 6-31++g(d,p) scf=verytight NoSymm freq=noraman int=ultr
 afine\\RxCoord=-3.09930 DE=24.54\\-1,1\C,0.43382,0.000006,-0.000245\Cl
 ,-2.255763,-0.000001,0.000109\H,0.150989,0.002433,-1.046719\H,0.151126
 ,0.905058,0.525137\H,0.151112,-0.907477,0.52092\C,2.180451,0.000002,-0
 .000187\N,3.360222,-0.000006,0.000146\\Version=ES64L-G16RevB.01\HF=-59
 3.0284069\RMSD=1.431e-09\RMSF=1.816e-02\ZeroPoint=0.0441897\Thermal=0.
 0494104\Dipole=1.5285313,0.0000077,-0.0004148\DipoleDeriv=1.6650561,-0
 .0000004,-0.000055,-0.0000082,0.0902677,0.0000003,0.0000198,0.0000002,
 0.0903303,-1.3148696,0.0000004,0.0000211,0.0000013,-0.8769827,0.,0.000
 0363,-0.0000001,-0.8769925,0.0098862,-0.0000351,0.0154287,-0.0000306,0
 .0870176,0.0001273,0.0141019,0.0001283,0.0320361,0.0098631,-0.013358,-
 0.0077669,-0.0122291,0.0458941,-0.0238601,-0.0071074,-0.0238656,0.0731
 434,0.0098752,0.0133936,-0.0077033,0.0122671,0.045672,0.023733,-0.0070
 509,0.0237377,0.0733644,-0.6223033,0.0000012,-0.0000132,-0.0000058,-0.
 0197561,-0.0000007,0.0002257,-0.0000007,-0.0197763,-0.7575076,-0.00000
 16,0.0000886,0.0000054,-0.3721127,0.0000002,-0.0002254,0.0000002,-0.37
 21053\Polar=94.9977233,-0.0000525,40.7783321,0.0015226,0.0000081,40.77
 92709\Quadrupole=-24.4178064,12.2088718,12.2089346,0.0000344,0.0001016
 ,0.000012\PG=C01 [X(C2H3Cl1N1)]\NImag=1\\0.08246241,0.00000262,0.63387
 191,0.00003064,0.00000272,0.63385779,0.00031581,0.,0.00000123,0.041179
 82,0.00000027,-0.00203191,0.,-0.00000042,-0.00160134,-0.00000130,0.,-0
 .00203133,-0.00000237,-0.00000031,-0.00161396,-0.04261064,0.00017774,-
 0.07646518,-0.00767500,-0.00000276,0.00111871,0.06426303,0.00017109,-0
 .04621569,0.00067236,0.00000285,-0.00081435,-0.00000485,-0.00018450,0.
 04455081,-0.07363569,0.00067250,-0.33599315,-0.00132302,-0.00000487,0.
 00138972,0.07953114,-0.00070500,0.34805971,-0.04258534,0.06610899,0.03
 837395,-0.00767733,-0.00096761,-0.00056134,0.00326696,-0.00749927,-0.0
 0352644,0.06424808,0.06366153,-0.26298334,-0.12583839,0.00114308,0.000
 83414,0.00096441,-0.00073509,0.00214669,0.00284328,-0.06875924,0.27159
 286,0.03695257,-0.12584022,-0.11925267,0.00066424,0.00096442,-0.000253
 28,0.00825105,-0.02394404,-0.01016827,-0.03991367,0.13179415,0.1210414
 2,-0.04258678,-0.06628935,0.03806820,-0.00767769,0.00097061,-0.0005566
 8,0.00326729,0.00751545,-0.00349180,0.00326505,0.00680175,-0.00472946,
 0.06424916,-0.06383547,-0.26414763,0.12516334,-0.00114544,0.00084236,-
 0.00095923,0.00069648,0.00204807,-0.00278620,-0.00677983,-0.01622960,0
 .01333801,0.06894615,0.27281305,0.03665811,0.12516499,-0.11808448,0.00
 065903,-0.00095923,-0.00026221,0.00825449,0.02400113,-0.01007052,-0.00
 476114,-0.01345151,0.00820602,-0.03959544,-0.13108733,0.11981870,0.025
 87068,-0.00000012,-0.00000103,-0.01338983,-0.00000008,0.00000227,-0.01
 884260,-0.00000091,0.00040278,-0.01885022,-0.00034578,-0.00019918,-0.0
 1885003,0.00034707,-0.00019774,1.16585229,0.00000021,-0.07273277,-0.00
 000003,-0.00000015,0.00349696,-0.00000002,0.00005490,-0.00242393,-0.00
 002611,0.02042178,0.00600141,0.00488946,-0.02047618,0.00604711,-0.0048
 6341,-0.00000750,0.09570945,-0.00001772,0.,-0.07273656,0.00000387,-0.0
 0000002,0.00349694,-0.02360749,-0.00002599,0.00884216,0.01185524,0.004
 89050,0.00041674,0.01175999,-0.00486461,0.00037130,0.00029861,0.000000
 13,0.09570701,0.01913387,0.00000013,-0.00000781,-0.00507577,-0.0000000
 1,0.00000071,-0.00166904,-0.00000471,0.00204304,-0.00166720,-0.0017662
 4,-0.00102555,-0.00166699,0.00177103,-0.00101731,-1.12179029,0.0000069
 4,-0.00029251,1.11273543,-0.00000024,0.01423943,0.00000002,0.00000008,
 -0.00072586,0.,-0.00000676,0.00070839,0.00000641,-0.00252482,-0.001362
 15,-0.00120177,0.00253157,-0.00137337,0.00119536,0.00000733,-0.0360982
 2,-0.00000001,-0.00000716,0.02461178,0.00001338,0.00000002,0.01424039,
 -0.00000298,0.,-0.00072588,0.00291728,0.00000640,-0.00205966,-0.001466
 60,-0.00120243,0.00001003,-0.00145480,0.00119602,0.00002119,-0.0003057
 1,-0.00000001,-0.03609759,0.00029943,0.,0.02461152\\-0.07144103,0.0000
 0072,0.00000646,0.01859782,0.00000006,-0.00000527,-0.00029634,0.000003
 46,-0.00182375,-0.00028471,0.00156709,0.00091289,-0.00028581,-0.001571
 63,0.00090482,0.02331852,0.00000066,-0.00000817,0.03039155,-0.00000036
 ,0.00001303\\\@


 ANYONE WHO IS NOT SHOCKED BY QUANTUM THEORY HAS
 NOT UNDERSTOOD IT. -- NIELS BOHR(1885-1962)
 Job cpu time:       0 days  0 hours  3 minutes 53.1 seconds.
 Elapsed time:       0 days  0 hours  0 minutes 10.1 seconds.
 File lengths (MBytes):  RWF=     88 Int=      0 D2E=      0 Chk=      2 Scr=      2
 Normal termination of Gaussian 16 at Sun Oct 13 09:49:34 2024.
