 Entering Gaussian System, Link 0=g16
 Initial command:
 /usr/local/g16_AVX//g16/l1.exe "/scratch/alanqf/0071-54513.ixchel.mda.cinvestav.mx/Gau-20852.inp" -scrdir="/scratch/alanqf/0071-54513.ixchel.mda.cinvestav.mx/"
 Entering Link 1 = /usr/local/g16_AVX//g16/l1.exe PID=     20853.
  
 Copyright (c) 1988-2017, Gaussian, Inc.  All Rights Reserved.
  
 This is part of the Gaussian(R) 16 program.  It is based on
 the Gaussian(R) 09 system (copyright 2009, Gaussian, Inc.),
 the Gaussian(R) 03 system (copyright 2003, Gaussian, Inc.),
 the Gaussian(R) 98 system (copyright 1998, Gaussian, Inc.),
 the Gaussian(R) 94 system (copyright 1995, Gaussian, Inc.),
 the Gaussian 92(TM) system (copyright 1992, Gaussian, Inc.),
 the Gaussian 90(TM) system (copyright 1990, Gaussian, Inc.),
 the Gaussian 88(TM) system (copyright 1988, Gaussian, Inc.),
 the Gaussian 86(TM) system (copyright 1986, Carnegie Mellon
 University), and the Gaussian 82(TM) system (copyright 1983,
 Carnegie Mellon University). Gaussian is a federally registered
 trademark of Gaussian, Inc.
  
 This software contains proprietary and confidential information,
 including trade secrets, belonging to Gaussian, Inc.
  
 This software is provided under written license and may be
 used, copied, transmitted, or stored only in accord with that
 written license.
  
 The following legend is applicable only to US Government
 contracts under FAR:
  
                    RESTRICTED RIGHTS LEGEND
  
 Use, reproduction and disclosure by the US Government is
 subject to restrictions as set forth in subparagraphs (a)
 and (c) of the Commercial Computer Software - Restricted
 Rights clause in FAR 52.227-19.
  
 Gaussian, Inc.
 340 Quinnipiac St., Bldg. 40, Wallingford CT 06492
  
  
 ---------------------------------------------------------------
 Warning -- This program may not be used in any manner that
 competes with the business of Gaussian, Inc. or will provide
 assistance to any competitor of Gaussian, Inc.  The licensee
 of this program is prohibited from giving any competitor of
 Gaussian, Inc. access to this program.  By using this program,
 the user acknowledges that Gaussian, Inc. is engaged in the
 business of creating and licensing software in the field of
 computational chemistry and represents and warrants to the
 licensee that it is not a competitor of Gaussian, Inc. and that
 it will not use this program in any manner prohibited above.
 ---------------------------------------------------------------
  

 Cite this work as:
 Gaussian 16, Revision B.01,
 M. J. Frisch, G. W. Trucks, H. B. Schlegel, G. E. Scuseria, 
 M. A. Robb, J. R. Cheeseman, G. Scalmani, V. Barone, 
 G. A. Petersson, H. Nakatsuji, X. Li, M. Caricato, A. V. Marenich, 
 J. Bloino, B. G. Janesko, R. Gomperts, B. Mennucci, H. P. Hratchian, 
 J. V. Ortiz, A. F. Izmaylov, J. L. Sonnenberg, D. Williams-Young, 
 F. Ding, F. Lipparini, F. Egidi, J. Goings, B. Peng, A. Petrone, 
 T. Henderson, D. Ranasinghe, V. G. Zakrzewski, J. Gao, N. Rega, 
 G. Zheng, W. Liang, M. Hada, M. Ehara, K. Toyota, R. Fukuda, 
 J. Hasegawa, M. Ishida, T. Nakajima, Y. Honda, O. Kitao, H. Nakai, 
 T. Vreven, K. Throssell, J. A. Montgomery, Jr., J. E. Peralta, 
 F. Ogliaro, M. J. Bearpark, J. J. Heyd, E. N. Brothers, K. N. Kudin, 
 V. N. Staroverov, T. A. Keith, R. Kobayashi, J. Normand, 
 K. Raghavachari, A. P. Rendell, J. C. Burant, S. S. Iyengar, 
 J. Tomasi, M. Cossi, J. M. Millam, M. Klene, C. Adamo, R. Cammi, 
 J. W. Ochterski, R. L. Martin, K. Morokuma, O. Farkas, 
 J. B. Foresman, and D. J. Fox, Gaussian, Inc., Wallingford CT, 2016.
 
 ******************************************
 Gaussian 16:  ES64L-G16RevB.01 20-Dec-2017
                13-Oct-2024 
 ******************************************
 %NProcShared=26
 Will use up to   26 processors via shared memory.
 %MEM=20GB
 %chk=CHKfiles/0071.chk
 ---------------------------------------------------------------------
 #p b3lyp 6-31++g(d,p) scf=verytight NoSymm freq=noraman int=ultrafine
 ---------------------------------------------------------------------
 1/10=4,30=1,38=1/1,3;
 2/12=2,15=1,17=6,18=5,40=1/2;
 3/5=1,6=6,7=1111,11=2,25=1,30=1,71=2,74=-5,75=-5,140=1/1,2,3;
 4//1;
 5/5=2,17=3,38=5,98=1/2;
 8/6=4,10=90,11=11/1;
 11/6=1,8=1,9=11,15=111,16=1,31=1/1,2,10;
 10/6=1,31=1/2;
 6/7=2,8=2,9=2,10=2,28=1/1;
 7/8=1,10=1,25=1,30=1/1,2,3,16;
 1/10=4,30=1/3;
 99//99;
 Leave Link    1 at Sun Oct 13 09:49:32 2024, MaxMem=  2684354560 cpu:               1.4 elap:               0.1
 (Enter /usr/local/g16_AVX//g16/l101.exe)
 -------------------------
 RxCoord=-2.99932 DE=26.19
 -------------------------
 Symbolic Z-matrix:
 Charge = -1 Multiplicity = 1
 C                     0.42065   0.00001  -0.00024 
 Cl                   -2.25444  0.         0.00011 
 H                     0.14683   0.00244  -1.04861 
 H                     0.14695   0.9067    0.52607 
 H                     0.14693  -0.90912   0.52185 
 C                     2.18516   0.       -0.00019 
 N                     3.36505  -0.00001   0.00015 
 
 ITRead=  0  0  0  0  0  0  0
 MicOpt= -1 -1 -1 -1 -1 -1 -1
 NAtoms=      7 NQM=        7 NQMF=       0 NMMI=      0 NMMIF=      0
                NMic=       0 NMicF=      0.
                    Isotopes and Nuclear Properties:
 (Nuclear quadrupole moments (NQMom) in fm**2, nuclear magnetic moments (NMagM)
  in nuclear magnetons)

  Atom         1           2           3           4           5           6           7
 IAtWgt=          12          35           1           1           1          12          14
 AtmWgt=  12.0000000  34.9688527   1.0078250   1.0078250   1.0078250  12.0000000  14.0030740
 NucSpn=           0           3           1           1           1           0           2
 AtZEff=  -0.0000000  -0.0000000  -0.0000000  -0.0000000  -0.0000000  -0.0000000  -0.0000000
 NQMom=    0.0000000  -8.1650000   0.0000000   0.0000000   0.0000000   0.0000000   2.0440000
 NMagM=    0.0000000   0.8218740   2.7928460   2.7928460   2.7928460   0.0000000   0.4037610
 AtZNuc=   6.0000000  17.0000000   1.0000000   1.0000000   1.0000000   6.0000000   7.0000000
 Leave Link  101 at Sun Oct 13 09:49:32 2024, MaxMem=  2684354560 cpu:               2.9 elap:               0.1
 (Enter /usr/local/g16_AVX//g16/l103.exe)

 GradGradGradGradGradGradGradGradGradGradGradGradGradGradGradGradGradGrad
 Berny optimization.
 Initialization pass.
 Trust Radius=3.00D-01 FncErr=1.00D-07 GrdErr=1.00D-07 EigMax=2.50D+02 EigMin=1.00D-04
 Number of steps in this run=      2 maximum allowed number of steps=      2.
 GradGradGradGradGradGradGradGradGradGradGradGradGradGradGradGradGradGrad

 Leave Link  103 at Sun Oct 13 09:49:32 2024, MaxMem=  2684354560 cpu:               0.5 elap:               0.0
 (Enter /usr/local/g16_AVX//g16/l202.exe)
                          Input orientation:                          
 ---------------------------------------------------------------------
 Center     Atomic      Atomic             Coordinates (Angstroms)
 Number     Number       Type             X           Y           Z
 ---------------------------------------------------------------------
      1          6           0        0.420652    0.000006   -0.000244
      2         17           0       -2.254436   -0.000001    0.000109
      3          1           0        0.146833    0.002437   -1.048608
      4          1           0        0.146946    0.906696    0.526071
      5          1           0        0.146932   -0.909119    0.521846
      6          6           0        2.185163    0.000002   -0.000189
      7          7           0        3.365054   -0.000006    0.000149
 ---------------------------------------------------------------------
                    Distance matrix (angstroms):
                    1          2          3          4          5
     1  C    0.000000
     2  Cl   2.675088   0.000000
     3  H    1.083536   2.620287   0.000000
     4  H    1.083517   2.620185   1.815846   0.000000
     5  H    1.083517   2.620167   1.815836   1.815820   0.000000
     6  C    1.764511   4.439599   2.292156   2.292024   2.292031
     7  N    2.944402   5.619490   3.384796   3.384512   3.384518
                    6          7
     6  C    0.000000
     7  N    1.179891   0.000000
 Symmetry turned off by external request.
 This structure is nearly, but not quite of a higher symmetry.
 Consider Symm=Loose if the higher symmetry is desired.
 Stoichiometry    C2H3ClN(1-)
 Framework group  C1[X(C2H3ClN)]
 Deg. of freedom    15
 Full point group                 C1      NOp   1
 Rotational constants (GHZ):         152.0825826           1.2715762           1.2715760
 Leave Link  202 at Sun Oct 13 09:49:32 2024, MaxMem=  2684354560 cpu:               0.2 elap:               0.0
 (Enter /usr/local/g16_AVX//g16/l301.exe)
 Standard basis: 6-31++G(d,p) (6D, 7F)
 Ernie: Thresh=  0.10000D-02 Tol=  0.10000D-05 Strict=F.
    98 basis functions,   176 primitive gaussians,    98 cartesian basis functions
    20 alpha electrons       20 beta electrons
       nuclear repulsion energy       108.1270131196 Hartrees.
 IExCor=  402 DFT=T Ex+Corr=B3LYP ExCW=0 ScaHFX=  0.200000
 ScaDFX=  0.800000  0.720000  1.000000  0.810000 ScalE2=  1.000000  1.000000
 IRadAn=      5 IRanWt=     -1 IRanGd=            0 ICorTp=0 IEmpDi=  4
 NAtoms=    7 NActive=    7 NUniq=    7 SFac= 1.00D+00 NAtFMM=   60 NAOKFM=F Big=F
 Integral buffers will be    131072 words long.
 Raffenetti 2 integral format.
 Two-electron integral symmetry is turned off.
 Leave Link  301 at Sun Oct 13 09:49:32 2024, MaxMem=  2684354560 cpu:               1.3 elap:               0.1
 (Enter /usr/local/g16_AVX//g16/l302.exe)
 NPDir=0 NMtPBC=     1 NCelOv=     1 NCel=       1 NClECP=     1 NCelD=      1
         NCelK=      1 NCelE2=     1 NClLst=     1 CellRange=     0.0.
 One-electron integrals computed using PRISM.
 NBasis=    98 RedAO= T EigKep=  3.18D-05  NBF=    98
 NBsUse=    98 1.00D-06 EigRej= -1.00D+00 NBFU=    98
 Precomputing XC quadrature grid using
 IXCGrd= 4 IRadAn=           5 IRanWt=          -1 IRanGd=           0 AccXCQ= 0.00D+00.
 Generated NRdTot=       0 NPtTot=           0 NUsed=           0 NTot=          32
 NSgBfM=    98    98    98    98    98 MxSgAt=     7 MxSgA2=     7.
 Leave Link  302 at Sun Oct 13 09:49:33 2024, MaxMem=  2684354560 cpu:               3.8 elap:               0.2
 (Enter /usr/local/g16_AVX//g16/l303.exe)
 DipDrv:  MaxL=1.
 Leave Link  303 at Sun Oct 13 09:49:33 2024, MaxMem=  2684354560 cpu:               0.7 elap:               0.1
 (Enter /usr/local/g16_AVX//g16/l401.exe)
 ExpMin= 3.60D-02 ExpMax= 2.52D+04 ExpMxC= 3.78D+03 IAcc=3 IRadAn=         5 AccDes= 0.00D+00
 Harris functional with IExCor=  402 and IRadAn=       5 diagonalized for initial guess.
 HarFok:  IExCor=  402 AccDes= 0.00D+00 IRadAn=         5 IDoV= 1 UseB2=F ITyADJ=14
 ICtDFT=  3500011 ScaDFX=  1.000000  1.000000  1.000000  1.000000
 FoFCou: FMM=F IPFlag=           0 FMFlag=      100000 FMFlg1=           0
         NFxFlg=           0 DoJE=T BraDBF=F KetDBF=T FulRan=T
         wScrn=  0.000000 ICntrl=       500 IOpCl=  0 I1Cent=   200000004 NGrid=           0
         NMat0=    1 NMatS0=      1 NMatT0=    0 NMatD0=    1 NMtDS0=    0 NMtDT0=    0
 Symmetry not used in FoFCou.
 Harris En= -593.069000213044    
 JPrj=0 DoOrth=F DoCkMO=F.
 Leave Link  401 at Sun Oct 13 09:49:33 2024, MaxMem=  2684354560 cpu:               5.9 elap:               0.3
 (Enter /usr/local/g16_AVX//g16/l502.exe)
 Keep R1 ints in memory in canonical form, NReq=35752935.
 FoFCou: FMM=F IPFlag=           0 FMFlag=           0 FMFlg1=           0
         NFxFlg=           0 DoJE=F BraDBF=F KetDBF=F FulRan=T
         wScrn=  0.000000 ICntrl=       600 IOpCl=  0 I1Cent=           0 NGrid=           0
         NMat0=    1 NMatS0=   4851 NMatT0=    0 NMatD0=    1 NMtDS0=    0 NMtDT0=    0
 Symmetry not used in FoFCou.
 Two-electron integral symmetry not used.
 Closed shell SCF:
 Using DIIS extrapolation, IDIIS=  1040.
 NGot=  2684354560 LenX=  2672563405 LenY=  2672553360
 Requested convergence on RMS density matrix=1.00D-08 within 128 cycles.
 Requested convergence on MAX density matrix=1.00D-06.
 Requested convergence on             energy=1.00D-06.
 No special actions if energy rises.

 Cycle   1  Pass 1  IDiag  1:
 E= -592.921621788628    
 DIIS: error= 3.02D-02 at cycle   1 NSaved=   1.
 NSaved= 1 IEnMin= 1 EnMin= -592.921621788628     IErMin= 1 ErrMin= 3.02D-02
 ErrMax= 3.02D-02  0.00D+00 EMaxC= 1.00D-01 BMatC= 1.01D-01 BMatP= 1.01D-01
 IDIUse=3 WtCom= 6.98D-01 WtEn= 3.02D-01
 Coeff-Com:  0.100D+01
 Coeff-En:   0.100D+01
 Coeff:      0.100D+01
 Gap=     0.182 Goal=   None    Shift=    0.000
 GapD=    0.182 DampG=1.000 DampE=0.500 DampFc=0.5000 IDamp=-1.
 Damping current iteration by 5.00D-01
 RMSDP=9.90D-03 MaxDP=1.88D-01              OVMax= 1.97D-01

 Cycle   2  Pass 1  IDiag  1:
 E= -592.946135211199     Delta-E=       -0.024513422572 Rises=F Damp=T
 DIIS: error= 1.93D-02 at cycle   2 NSaved=   2.
 NSaved= 2 IEnMin= 2 EnMin= -592.946135211199     IErMin= 2 ErrMin= 1.93D-02
 ErrMax= 1.93D-02  0.00D+00 EMaxC= 1.00D-01 BMatC= 2.47D-02 BMatP= 1.01D-01
 IDIUse=3 WtCom= 8.07D-01 WtEn= 1.93D-01
 Coeff-Com:  0.261D+00 0.739D+00
 Coeff-En:   0.372D+00 0.628D+00
 Coeff:      0.282D+00 0.718D+00
 Gap=     0.154 Goal=   None    Shift=    0.000
 RMSDP=3.58D-03 MaxDP=7.07D-02 DE=-2.45D-02 OVMax= 1.82D-01

 Cycle   3  Pass 1  IDiag  1:
 E= -593.006028306662     Delta-E=       -0.059893095463 Rises=F Damp=F
 DIIS: error= 1.78D-02 at cycle   3 NSaved=   3.
 NSaved= 3 IEnMin= 3 EnMin= -593.006028306662     IErMin= 3 ErrMin= 1.78D-02
 ErrMax= 1.78D-02  0.00D+00 EMaxC= 1.00D-01 BMatC= 2.05D-02 BMatP= 2.47D-02
 IDIUse=3 WtCom= 8.22D-01 WtEn= 1.78D-01
 Coeff-Com:  0.664D-01 0.462D+00 0.472D+00
 Coeff-En:   0.000D+00 0.000D+00 0.100D+01
 Coeff:      0.546D-01 0.380D+00 0.566D+00
 Gap=     0.178 Goal=   None    Shift=    0.000
 RMSDP=3.02D-03 MaxDP=6.22D-02 DE=-5.99D-02 OVMax= 7.71D-02

 Cycle   4  Pass 1  IDiag  1:
 E= -593.017925405586     Delta-E=       -0.011897098924 Rises=F Damp=F
 DIIS: error= 1.26D-02 at cycle   4 NSaved=   4.
 NSaved= 4 IEnMin= 4 EnMin= -593.017925405586     IErMin= 4 ErrMin= 1.26D-02
 ErrMax= 1.26D-02  0.00D+00 EMaxC= 1.00D-01 BMatC= 8.89D-03 BMatP= 2.05D-02
 IDIUse=3 WtCom= 8.74D-01 WtEn= 1.26D-01
 Coeff-Com:  0.316D-01 0.425D-01 0.378D+00 0.548D+00
 Coeff-En:   0.000D+00 0.000D+00 0.337D+00 0.663D+00
 Coeff:      0.276D-01 0.371D-01 0.373D+00 0.563D+00
 Gap=     0.168 Goal=   None    Shift=    0.000
 RMSDP=1.10D-03 MaxDP=1.99D-02 DE=-1.19D-02 OVMax= 3.15D-02

 Cycle   5  Pass 1  IDiag  1:
 E= -593.025927073035     Delta-E=       -0.008001667449 Rises=F Damp=F
 DIIS: error= 1.13D-03 at cycle   5 NSaved=   5.
 NSaved= 5 IEnMin= 5 EnMin= -593.025927073035     IErMin= 5 ErrMin= 1.13D-03
 ErrMax= 1.13D-03  0.00D+00 EMaxC= 1.00D-01 BMatC= 1.34D-04 BMatP= 8.89D-03
 IDIUse=3 WtCom= 9.89D-01 WtEn= 1.13D-02
 Coeff-Com:  0.943D-02-0.769D-02 0.154D+00 0.281D+00 0.563D+00
 Coeff-En:   0.000D+00 0.000D+00 0.000D+00 0.000D+00 0.100D+01
 Coeff:      0.932D-02-0.760D-02 0.152D+00 0.278D+00 0.568D+00
 Gap=     0.171 Goal=   None    Shift=    0.000
 RMSDP=2.30D-04 MaxDP=4.35D-03 DE=-8.00D-03 OVMax= 4.26D-03

 Cycle   6  Pass 1  IDiag  1:
 E= -593.026073376564     Delta-E=       -0.000146303528 Rises=F Damp=F
 DIIS: error= 1.41D-04 at cycle   6 NSaved=   6.
 NSaved= 6 IEnMin= 6 EnMin= -593.026073376564     IErMin= 6 ErrMin= 1.41D-04
 ErrMax= 1.41D-04  0.00D+00 EMaxC= 1.00D-01 BMatC= 2.97D-06 BMatP= 1.34D-04
 IDIUse=3 WtCom= 9.99D-01 WtEn= 1.41D-03
 Coeff-Com:  0.178D-02-0.379D-02 0.296D-01 0.572D-01 0.200D+00 0.715D+00
 Coeff-En:   0.000D+00 0.000D+00 0.000D+00 0.000D+00 0.000D+00 0.100D+01
 Coeff:      0.178D-02-0.379D-02 0.296D-01 0.571D-01 0.200D+00 0.716D+00
 Gap=     0.171 Goal=   None    Shift=    0.000
 RMSDP=9.25D-05 MaxDP=2.99D-03 DE=-1.46D-04 OVMax= 7.08D-04

 Cycle   7  Pass 1  IDiag  1:
 E= -593.026076931297     Delta-E=       -0.000003554733 Rises=F Damp=F
 DIIS: error= 1.81D-05 at cycle   7 NSaved=   7.
 NSaved= 7 IEnMin= 7 EnMin= -593.026076931297     IErMin= 7 ErrMin= 1.81D-05
 ErrMax= 1.81D-05  0.00D+00 EMaxC= 1.00D-01 BMatC= 5.25D-08 BMatP= 2.97D-06
 IDIUse=1 WtCom= 1.00D+00 WtEn= 0.00D+00
 Coeff-Com:  0.180D-03-0.780D-03 0.263D-02 0.514D-02 0.352D-01 0.189D+00
 Coeff-Com:  0.769D+00
 Coeff:      0.180D-03-0.780D-03 0.263D-02 0.514D-02 0.352D-01 0.189D+00
 Coeff:      0.769D+00
 Gap=     0.171 Goal=   None    Shift=    0.000
 RMSDP=5.76D-06 MaxDP=1.15D-04 DE=-3.55D-06 OVMax= 1.27D-04

 Cycle   8  Pass 1  IDiag  1:
 E= -593.026076971646     Delta-E=       -0.000000040350 Rises=F Damp=F
 DIIS: error= 1.03D-05 at cycle   8 NSaved=   8.
 NSaved= 8 IEnMin= 8 EnMin= -593.026076971646     IErMin= 8 ErrMin= 1.03D-05
 ErrMax= 1.03D-05  0.00D+00 EMaxC= 1.00D-01 BMatC= 1.68D-08 BMatP= 5.25D-08
 IDIUse=1 WtCom= 1.00D+00 WtEn= 0.00D+00
 Coeff-Com: -0.123D-04-0.130D-03-0.881D-03-0.164D-02 0.343D-02 0.467D-01
 Coeff-Com:  0.419D+00 0.534D+00
 Coeff:     -0.123D-04-0.130D-03-0.881D-03-0.164D-02 0.343D-02 0.467D-01
 Coeff:      0.419D+00 0.534D+00
 Gap=     0.171 Goal=   None    Shift=    0.000
 RMSDP=1.89D-06 MaxDP=5.20D-05 DE=-4.03D-08 OVMax= 4.31D-05

 Cycle   9  Pass 1  IDiag  1:
 E= -593.026076991023     Delta-E=       -0.000000019377 Rises=F Damp=F
 DIIS: error= 7.62D-07 at cycle   9 NSaved=   9.
 NSaved= 9 IEnMin= 9 EnMin= -593.026076991023     IErMin= 9 ErrMin= 7.62D-07
 ErrMax= 7.62D-07  0.00D+00 EMaxC= 1.00D-01 BMatC= 8.24D-11 BMatP= 1.68D-08
 IDIUse=1 WtCom= 1.00D+00 WtEn= 0.00D+00
 Coeff-Com: -0.233D-06 0.572D-06-0.194D-03-0.295D-03-0.105D-02-0.211D-02
 Coeff-Com:  0.138D-01 0.561D-01 0.934D+00
 Coeff:     -0.233D-06 0.572D-06-0.194D-03-0.295D-03-0.105D-02-0.211D-02
 Coeff:      0.138D-01 0.561D-01 0.934D+00
 Gap=     0.171 Goal=   None    Shift=    0.000
 RMSDP=9.85D-07 MaxDP=3.03D-05 DE=-1.94D-08 OVMax= 5.38D-06

 Cycle  10  Pass 1  IDiag  1:
 E= -593.026076991142     Delta-E=       -0.000000000119 Rises=F Damp=F
 DIIS: error= 2.80D-07 at cycle  10 NSaved=  10.
 NSaved=10 IEnMin=10 EnMin= -593.026076991142     IErMin=10 ErrMin= 2.80D-07
 ErrMax= 2.80D-07  0.00D+00 EMaxC= 1.00D-01 BMatC= 2.90D-12 BMatP= 8.24D-11
 IDIUse=1 WtCom= 1.00D+00 WtEn= 0.00D+00
 Coeff-Com: -0.161D-07 0.140D-05-0.378D-04-0.570D-04-0.348D-03-0.149D-02
 Coeff-Com: -0.396D-02 0.620D-02 0.244D+00 0.755D+00
 Coeff:     -0.161D-07 0.140D-05-0.378D-04-0.570D-04-0.348D-03-0.149D-02
 Coeff:     -0.396D-02 0.620D-02 0.244D+00 0.755D+00
 Gap=     0.171 Goal=   None    Shift=    0.000
 RMSDP=9.24D-08 MaxDP=2.20D-06 DE=-1.19D-10 OVMax= 7.43D-07

 Cycle  11  Pass 1  IDiag  1:
 E= -593.026076991146     Delta-E=       -0.000000000004 Rises=F Damp=F
 DIIS: error= 5.86D-08 at cycle  11 NSaved=  11.
 NSaved=11 IEnMin=11 EnMin= -593.026076991146     IErMin=11 ErrMin= 5.86D-08
 ErrMax= 5.86D-08  0.00D+00 EMaxC= 1.00D-01 BMatC= 1.27D-13 BMatP= 2.90D-12
 IDIUse=1 WtCom= 1.00D+00 WtEn= 0.00D+00
 Coeff-Com: -0.272D-06 0.715D-06 0.183D-06-0.179D-05-0.332D-04-0.291D-03
 Coeff-Com: -0.179D-02-0.190D-02 0.240D-02 0.175D+00 0.827D+00
 Coeff:     -0.272D-06 0.715D-06 0.183D-06-0.179D-05-0.332D-04-0.291D-03
 Coeff:     -0.179D-02-0.190D-02 0.240D-02 0.175D+00 0.827D+00
 Gap=     0.171 Goal=   None    Shift=    0.000
 RMSDP=3.64D-08 MaxDP=1.09D-06 DE=-3.64D-12 OVMax= 1.34D-07

 Cycle  12  Pass 1  IDiag  1:
 E= -593.026076991145     Delta-E=        0.000000000001 Rises=F Damp=F
 DIIS: error= 6.05D-09 at cycle  12 NSaved=  12.
 NSaved=12 IEnMin=11 EnMin= -593.026076991146     IErMin=12 ErrMin= 6.05D-09
 ErrMax= 6.05D-09  0.00D+00 EMaxC= 1.00D-01 BMatC= 2.34D-15 BMatP= 1.27D-13
 IDIUse=1 WtCom= 1.00D+00 WtEn= 0.00D+00
 Coeff-Com: -0.603D-07 0.720D-07 0.624D-06 0.907D-06 0.439D-05 0.153D-04
 Coeff-Com:  0.171D-04-0.293D-03-0.409D-02 0.417D-02 0.646D-01 0.936D+00
 Coeff:     -0.603D-07 0.720D-07 0.624D-06 0.907D-06 0.439D-05 0.153D-04
 Coeff:      0.171D-04-0.293D-03-0.409D-02 0.417D-02 0.646D-01 0.936D+00
 Gap=     0.171 Goal=   None    Shift=    0.000
 RMSDP=1.81D-09 MaxDP=4.38D-08 DE= 6.82D-13 OVMax= 2.08D-08

 SCF Done:  E(RB3LYP) =  -593.026076991     A.U. after   12 cycles
            NFock= 12  Conv=0.18D-08     -V/T= 2.0050
 KE= 5.900711922880D+02 PE=-1.626552034476D+03 EE= 3.353277520772D+02
 Leave Link  502 at Sun Oct 13 09:49:35 2024, MaxMem=  2684354560 cpu:              36.0 elap:               1.6
 (Enter /usr/local/g16_AVX//g16/l801.exe)
 DoSCS=F DFT=T ScalE2(SS,OS)=  1.000000  1.000000
 Range of M.O.s used for correlation:     1    98
 NBasis=    98 NAE=    20 NBE=    20 NFC=     0 NFV=     0
 NROrb=     98 NOA=    20 NOB=    20 NVA=    78 NVB=    78

 **** Warning!!: The largest alpha MO coefficient is  0.91206524D+02

 Leave Link  801 at Sun Oct 13 09:49:35 2024, MaxMem=  2684354560 cpu:               0.7 elap:               0.1
 (Enter /usr/local/g16_AVX//g16/l1101.exe)
 Using compressed storage, NAtomX=     7.
 Will process      8 centers per pass.
 Leave Link 1101 at Sun Oct 13 09:49:35 2024, MaxMem=  2684354560 cpu:               3.6 elap:               0.2
 (Enter /usr/local/g16_AVX//g16/l1102.exe)
 Symmetrizing basis deriv contribution to polar:
 IMax=3 JMax=2 DiffMx= 0.00D+00
 Leave Link 1102 at Sun Oct 13 09:49:35 2024, MaxMem=  2684354560 cpu:               0.7 elap:               0.1
 (Enter /usr/local/g16_AVX//g16/l1110.exe)
 Forming Gx(P) for the SCF density, NAtomX=     7.
 Integral derivatives from FoFJK, PRISM(SPDF).
 Do as many integral derivatives as possible in FoFJK.
 G2DrvN: MDV=    2684353864.
 G2DrvN: will do     8 centers at a time, making    1 passes.
 Calling FoFCou, ICntrl=  3107 FMM=F I1Cent=   0 AccDes= 0.00D+00.
 FoFJK:  IHMeth= 1 ICntrl=    3107 DoSepK=F KAlg= 0 I1Cent=           0 FoldK=F
 IRaf=         0 NMat=       1 IRICut=       1 DoRegI=T DoRafI=F ISym2E= 0 IDoP0=0 IntGTp=1.
 FoFCou: FMM=F IPFlag=           0 FMFlag=      100000 FMFlg1=           0
         NFxFlg=           0 DoJE=F BraDBF=F KetDBF=F FulRan=T
         wScrn=  0.000000 ICntrl=      3107 IOpCl=  0 I1Cent=           0 NGrid=           0
         NMat0=    1 NMatS0=      1 NMatT0=    0 NMatD0=    1 NMtDS0=    0 NMtDT0=    0
 Symmetry not used in FoFCou.
 End of G2Drv F.D. properties file   721 does not exist.
 End of G2Drv F.D. properties file   722 does not exist.
 End of G2Drv F.D. properties file   788 does not exist.
 Leave Link 1110 at Sun Oct 13 09:49:37 2024, MaxMem=  2684354560 cpu:              39.2 elap:               1.6
 (Enter /usr/local/g16_AVX//g16/l1002.exe)
 Minotr:  Closed shell wavefunction.
          IDoAtm=1111111
          Direct CPHF calculation.
          Differentiating once with respect to electric field.
                with respect to dipole field.
          Differentiating once with respect to nuclear coordinates.
          Requested convergence is 1.0D-08 RMS, and 1.0D-07 maximum.
          Secondary convergence is 1.0D-12 RMS, and 1.0D-12 maximum.
          NewPWx=T KeepS1=F KeepF1=F KeepIn=T MapXYZ=F SortEE=F KeepMc=T.
         2129 words used for storage of precomputed grid.
 Keep R1 ints in memory in canonical form, NReq=35668390.
 FoFCou: FMM=F IPFlag=           0 FMFlag=           0 FMFlg1=           0
         NFxFlg=           0 DoJE=F BraDBF=F KetDBF=F FulRan=T
         wScrn=  0.000000 ICntrl=       600 IOpCl=  0 I1Cent=           0 NGrid=           0
         NMat0=    1 NMatS0=   4851 NMatT0=    0 NMatD0=    1 NMtDS0=    0 NMtDT0=    0
 Symmetry not used in FoFCou.
 Two-electron integral symmetry not used.
          MDV=    2684354560 using IRadAn=       1.
          Solving linear equations simultaneously, MaxMat=       0.
          There are    24 degrees of freedom in the 1st order CPHF.  IDoFFX=6 NUNeed=     3.
     21 vectors produced by pass  0 Test12= 6.50D-15 4.17D-09 XBig12= 9.05D+01 5.79D+00.
 AX will form    21 AO Fock derivatives at one time.
     21 vectors produced by pass  1 Test12= 6.50D-15 4.17D-09 XBig12= 5.24D+01 2.37D+00.
     21 vectors produced by pass  2 Test12= 6.50D-15 4.17D-09 XBig12= 2.83D+00 4.87D-01.
     21 vectors produced by pass  3 Test12= 6.50D-15 4.17D-09 XBig12= 2.49D-02 3.47D-02.
     21 vectors produced by pass  4 Test12= 6.50D-15 4.17D-09 XBig12= 5.70D-05 1.71D-03.
     20 vectors produced by pass  5 Test12= 6.50D-15 4.17D-09 XBig12= 9.34D-08 6.68D-05.
      5 vectors produced by pass  6 Test12= 6.50D-15 4.17D-09 XBig12= 1.71D-10 3.07D-06.
      1 vectors produced by pass  7 Test12= 6.50D-15 4.17D-09 XBig12= 2.53D-13 1.62D-07.
      1 vectors produced by pass  8 Test12= 6.50D-15 4.17D-09 XBig12= 3.84D-16 6.16D-09.
 InvSVY:  IOpt=1 It=  1 EMax= 9.40D-15
 Solved reduced A of dimension   132 with    24 vectors.
 FullF1:  Do perturbations      1 to       3.
 Isotropic polarizability for W=    0.000000       59.36 Bohr**3.
 End of Minotr F.D. properties file   721 does not exist.
 End of Minotr F.D. properties file   722 does not exist.
 End of Minotr F.D. properties file   788 does not exist.
 Leave Link 1002 at Sun Oct 13 09:49:39 2024, MaxMem=  2684354560 cpu:              57.2 elap:               2.3
 (Enter /usr/local/g16_AVX//g16/l601.exe)
 Copying SCF densities to generalized density rwf, IOpCl= 0 IROHF=0.

 **********************************************************************

            Population analysis using the SCF Density.

 **********************************************************************

 Alpha  occ. eigenvalues -- -101.26513 -14.21308 -10.10659 -10.10439  -9.17963
 Alpha  occ. eigenvalues --   -6.93746  -6.93724  -6.93724  -0.76619  -0.59120
 Alpha  occ. eigenvalues --   -0.51923  -0.32721  -0.30388  -0.30388  -0.23266
 Alpha  occ. eigenvalues --   -0.20394  -0.20394  -0.06547  -0.06547  -0.06358
 Alpha virt. eigenvalues --    0.10713   0.14657   0.14658   0.14711   0.15711
 Alpha virt. eigenvalues --    0.15711   0.19022   0.20646   0.21133   0.21133
 Alpha virt. eigenvalues --    0.23859   0.23993   0.23993   0.25991   0.25991
 Alpha virt. eigenvalues --    0.26151   0.31304   0.34100   0.34100   0.34706
 Alpha virt. eigenvalues --    0.34706   0.35132   0.39116   0.42646   0.47698
 Alpha virt. eigenvalues --    0.72637   0.78830   0.78830   0.83047   0.83048
 Alpha virt. eigenvalues --    0.83964   0.85938   0.85939   0.88577   0.97573
 Alpha virt. eigenvalues --    0.99891   1.04441   1.04441   1.12075   1.12202
 Alpha virt. eigenvalues --    1.12203   1.14165   1.14166   1.16660   1.16661
 Alpha virt. eigenvalues --    1.24469   1.24848   1.36673   1.51749   1.52399
 Alpha virt. eigenvalues --    1.52400   1.66191   1.66191   1.77611   1.77612
 Alpha virt. eigenvalues --    1.84607   2.08109   2.08109   2.09481   2.14228
 Alpha virt. eigenvalues --    2.20285   2.20289   2.47571   2.47572   2.76298
 Alpha virt. eigenvalues --    2.77912   2.77914   2.91998   2.97486   2.97487
 Alpha virt. eigenvalues --    3.19495   3.45527   3.55488   3.55492   4.20088
 Alpha virt. eigenvalues --    4.37988   4.57409   4.66084
          Condensed to atoms (all electrons):
               1          2          3          4          5          6
     1  C    5.549646  -0.140211   0.429509   0.429419   0.429418  -0.554862
     2  Cl  -0.140211  17.965746  -0.027610  -0.027637  -0.027636   0.095212
     3  H    0.429509  -0.027610   0.482469  -0.020584  -0.020585  -0.056877
     4  H    0.429419  -0.027637  -0.020584   0.482447  -0.020584  -0.056735
     5  H    0.429418  -0.027636  -0.020585  -0.020584   0.482444  -0.056732
     6  C   -0.554862   0.095212  -0.056877  -0.056735  -0.056732   6.223599
     7  N   -0.082880   0.001823  -0.004692  -0.004705  -0.004706   0.618893
               7
     1  C   -0.082880
     2  Cl   0.001823
     3  H   -0.004692
     4  H   -0.004705
     5  H   -0.004706
     6  C    0.618893
     7  N    7.019171
 Mulliken charges:
               1
     1  C   -0.060039
     2  Cl  -0.839688
     3  H    0.218370
     4  H    0.218379
     5  H    0.218381
     6  C   -0.212498
     7  N   -0.542905
 Sum of Mulliken charges =  -1.00000
 Mulliken charges with hydrogens summed into heavy atoms:
               1
     1  C    0.595091
     2  Cl  -0.839688
     6  C   -0.212498
     7  N   -0.542905
 APT charges:
               1
     1  C    0.660311
     2  Cl  -1.027562
     3  H    0.039426
     4  H    0.039420
     5  H    0.039424
     6  C   -0.247074
     7  N   -0.503945
 Sum of APT charges =  -1.00000
 APT charges with hydrogens summed into heavy atoms:
               1
     1  C    0.778581
     2  Cl  -1.027562
     6  C   -0.247074
     7  N   -0.503945
 Electronic spatial extent (au):  <R**2>=            825.5489
 Charge=             -1.0000 electrons
 Dipole moment (field-independent basis, Debye):
    X=              3.5723    Y=              0.0000    Z=             -0.0010  Tot=              3.5723
 Quadrupole moment (field-independent basis, Debye-Ang):
   XX=            -84.8553   YY=            -35.4722   ZZ=            -35.4722
   XY=              0.0000   XZ=              0.0001   YZ=              0.0000
 Traceless Quadrupole moment (field-independent basis, Debye-Ang):
   XX=            -32.9221   YY=             16.4610   ZZ=             16.4610
   XY=              0.0000   XZ=              0.0001   YZ=              0.0000
 Octapole moment (field-independent basis, Debye-Ang**2):
  XXX=            -33.7035  YYY=             -0.0066  ZZZ=             -0.9486  XYY=              1.7062
  XXY=              0.0002  XXZ=             -0.0067  XZZ=              1.7061  YZZ=              0.0066
  YYZ=              0.9482  XYZ=              0.0000
 Hexadecapole moment (field-independent basis, Debye-Ang**3):
 XXXX=          -1633.6679 YYYY=            -57.2401 ZZZZ=            -57.2396 XXXY=              0.0007
 XXXZ=             -0.0000 YYYX=             -0.0003 YYYZ=              0.0000 ZZZX=             -0.0421
 ZZZY=             -0.0000 XXYY=           -209.0480 XXZZ=           -209.0481 YYZZ=            -19.0805
 XXYZ=             -0.0000 YYXZ=              0.0585 ZZXY=              0.0004
 N-N= 1.081270131196D+02 E-N=-1.626552034202D+03  KE= 5.900711922880D+02
  Exact polarizability:  96.649  -0.000  40.712   0.001   0.000  40.713
 Approx polarizability: 117.141  -0.000  50.228   0.006   0.000  50.228
 No NMR shielding tensors so no spin-rotation constants.
 Leave Link  601 at Sun Oct 13 09:49:39 2024, MaxMem=  2684354560 cpu:               2.6 elap:               0.1
 (Enter /usr/local/g16_AVX//g16/l701.exe)
 ... and contract with generalized density number  0.
 Compute integral second derivatives.
 Leave Link  701 at Sun Oct 13 09:49:39 2024, MaxMem=  2684354560 cpu:               4.6 elap:               0.2
 (Enter /usr/local/g16_AVX//g16/l702.exe)
 L702 exits ... SP integral derivatives will be done elsewhere.
 Leave Link  702 at Sun Oct 13 09:49:39 2024, MaxMem=  2684354560 cpu:               0.5 elap:               0.0
 (Enter /usr/local/g16_AVX//g16/l703.exe)
 Integral derivatives from FoFJK, PRISM(SPDF).
 Compute integral second derivatives, UseDBF=F ICtDFT=           0.
 Calling FoFJK, ICntrl=    100127 FMM=F ISym2X=0 I1Cent= 0 IOpClX= 0 NMat=1 NMatS=1 NMatT=0.
 FoFJK:  IHMeth= 1 ICntrl=  100127 DoSepK=F KAlg= 0 I1Cent=           0 FoldK=F
 IRaf=         0 NMat=       1 IRICut=       1 DoRegI=T DoRafI=F ISym2E= 0 IDoP0=0 IntGTp=1.
 FoFCou: FMM=F IPFlag=           0 FMFlag=      100000 FMFlg1=         800
         NFxFlg=           0 DoJE=F BraDBF=F KetDBF=F FulRan=T
         wScrn=  0.000000 ICntrl=    100127 IOpCl=  0 I1Cent=           0 NGrid=           0
         NMat0=    1 NMatS0=      1 NMatT0=    0 NMatD0=    1 NMtDS0=    0 NMtDT0=    0
 Symmetry not used in FoFCou.
 Leave Link  703 at Sun Oct 13 09:49:42 2024, MaxMem=  2684354560 cpu:              68.5 elap:               2.7
 (Enter /usr/local/g16_AVX//g16/l716.exe)
 Dipole        = 1.40546926D+00 7.54614174D-06-3.99203127D-04
 Polarizability= 9.66492700D+01-5.12487359D-05 4.07117393D+01
                 1.45601645D-03 1.14006695D-05 4.07125558D+01
 Full mass-weighted force constant matrix:
 Low frequencies --- -227.0317  -50.8744  -50.7369    0.0036    0.0049    0.0051
 Low frequencies ---  155.3190  182.9791  183.0174
 ******    1 imaginary frequencies (negative Signs) ****** 
 Diagonal vibrational polarizability:
      194.4460514      20.5399229      20.5578626
 Harmonic frequencies (cm**-1), IR intensities (KM/Mole), Raman scattering
 activities (A**4/AMU), depolarization ratios for plane and unpolarized
 incident light, reduced masses (AMU), force constants (mDyne/A),
 and normal coordinates:
                      1                      2                      3
                      A                      A                      A
 Frequencies --   -227.0317               168.0307               168.1001
 Red. masses --     10.2355                 4.8018                 4.8027
 Frc consts  --      0.3108                 0.0799                 0.0800
 IR Inten    --    344.0074                21.4563                21.4551
  Atom  AN      X      Y      Z        X      Y      Z        X      Y      Z
     1   6     0.76   0.00  -0.00     0.00   0.01   0.43    -0.00   0.43  -0.01
     2  17    -0.02  -0.00   0.00    -0.00  -0.00  -0.11    -0.00  -0.11   0.00
     3   1     0.22  -0.00   0.11    -0.14   0.01   0.47     0.00   0.47  -0.01
     4   1     0.22  -0.10  -0.06     0.07   0.02   0.47     0.12   0.47  -0.01
     5   1     0.22   0.10  -0.06     0.07   0.01   0.47    -0.13   0.47  -0.01
     6   6    -0.34  -0.00   0.00    -0.00   0.00   0.12     0.00   0.12  -0.00
     7   7    -0.35  -0.00  -0.00     0.00  -0.01  -0.30     0.00  -0.30   0.01
                      4                      5                      6
                      A                      A                      A
 Frequencies --    233.9493               432.6772               432.7007
 Red. masses --     14.9227                 3.9292                 3.9290
 Frc consts  --      0.4812                 0.4334                 0.4334
 IR Inten    --     29.9855                 0.0263                 0.0264
  Atom  AN      X      Y      Z        X      Y      Z        X      Y      Z
     1   6    -0.37   0.00   0.00    -0.00   0.01  -0.16     0.00  -0.16  -0.01
     2  17     0.48  -0.00  -0.00     0.00  -0.00   0.02    -0.00   0.02   0.00
     3   1    -0.29   0.00  -0.01     0.54   0.01  -0.32     0.02  -0.32  -0.01
     4   1    -0.29   0.01   0.01    -0.25   0.01  -0.32    -0.48  -0.32  -0.02
     5   1    -0.29  -0.01   0.01    -0.29   0.02  -0.32     0.45  -0.32  -0.01
     6   6    -0.43   0.00  -0.00    -0.00  -0.02   0.43    -0.00   0.43   0.02
     7   7    -0.44  -0.00  -0.00     0.00   0.01  -0.21     0.00  -0.21  -0.01
                      7                      8                      9
                      A                      A                      A
 Frequencies --   1008.4917              1008.5177              1210.3601
 Red. masses --      1.2598                 1.2597                 1.0728
 Frc consts  --      0.7549                 0.7549                 0.9259
 IR Inten    --      0.0542                 0.0544                 4.9551
  Atom  AN      X      Y      Z        X      Y      Z        X      Y      Z
     1   6    -0.00  -0.03   0.11     0.00  -0.11  -0.03    -0.06  -0.00  -0.00
     2  17     0.00  -0.00   0.00    -0.00  -0.00  -0.00    -0.01   0.00   0.00
     3   1     0.75   0.05  -0.08    -0.17   0.22   0.02     0.56   0.00  -0.15
     4   1    -0.22   0.09  -0.20     0.74   0.10  -0.02     0.56   0.13   0.07
     5   1    -0.53  -0.03  -0.17    -0.56   0.13   0.10     0.56  -0.13   0.07
     6   6     0.00   0.02  -0.09    -0.00   0.09   0.02    -0.02   0.00   0.00
     7   7    -0.00  -0.00   0.02     0.00  -0.02  -0.00    -0.04   0.00  -0.00
                     10                     11                     12
                      A                      A                      A
 Frequencies --   1433.1141              1433.1272              2152.2696
 Red. masses --      1.0638                 1.0638                12.4395
 Frc consts  --      1.2873                 1.2873                33.9505
 IR Inten    --      7.5929                 7.5974                 0.0327
  Atom  AN      X      Y      Z        X      Y      Z        X      Y      Z
     1   6    -0.00   0.01  -0.07    -0.00  -0.07  -0.01     0.01   0.00  -0.00
     2  17     0.00  -0.00   0.00     0.00   0.00   0.00    -0.00  -0.00   0.00
     3   1     0.28  -0.08  -0.12     0.03   0.75  -0.01    -0.09  -0.00   0.04
     4   1    -0.11  -0.39   0.57    -0.25   0.06  -0.32    -0.09  -0.04  -0.02
     5   1    -0.16   0.37   0.49     0.22   0.14   0.44    -0.09   0.04  -0.02
     6   6     0.00   0.00  -0.01     0.00  -0.01  -0.00     0.76  -0.00   0.00
     7   7     0.00  -0.00   0.00     0.00   0.00   0.00    -0.63   0.00  -0.00
                     13                     14                     15
                      A                      A                      A
 Frequencies --   3140.7165              3285.7910              3285.8337
 Red. masses --      1.0186                 1.1152                 1.1152
 Frc consts  --      5.9197                 7.0940                 7.0942
 IR Inten    --      0.8363                 0.9288                 0.9299
  Atom  AN      X      Y      Z        X      Y      Z        X      Y      Z
     1   6    -0.03   0.00  -0.00     0.00   0.00  -0.10    -0.00  -0.10  -0.00
     2  17    -0.00  -0.00  -0.00     0.00  -0.00   0.00     0.00   0.00   0.00
     3   1     0.13  -0.00   0.56     0.20  -0.00   0.79     0.01  -0.02   0.03
     4   1     0.13  -0.49  -0.28    -0.09   0.33   0.17    -0.18   0.60   0.36
     5   1     0.13   0.49  -0.28    -0.11  -0.37   0.19     0.17   0.57  -0.34
     6   6    -0.00   0.00  -0.00     0.00  -0.00   0.00     0.00   0.00   0.00
     7   7     0.00  -0.00  -0.00    -0.00   0.00  -0.00    -0.00  -0.00  -0.00

 -------------------
 - Thermochemistry -
 -------------------
 Temperature   298.150 Kelvin.  Pressure   1.00000 Atm.
 Atom     1 has atomic number  6 and mass  12.00000
 Atom     2 has atomic number 17 and mass  34.96885
 Atom     3 has atomic number  1 and mass   1.00783
 Atom     4 has atomic number  1 and mass   1.00783
 Atom     5 has atomic number  1 and mass   1.00783
 Atom     6 has atomic number  6 and mass  12.00000
 Atom     7 has atomic number  7 and mass  14.00307
 Molecular mass:    75.99540 amu.
 Principal axes and moments of inertia in atomic units:
                           1         2         3
     Eigenvalues --    11.866851419.294621419.29483
           X            1.00000   0.00002  -0.00000
           Y           -0.00000   0.19178   0.98144
           Z           -0.00002   0.98144  -0.19178
 This molecule is an asymmetric top.
 Rotational symmetry number  1.
 Rotational temperatures (Kelvin)      7.29881     0.06103     0.06103
 Rotational constants (GHZ):         152.08258     1.27158     1.27158
    1 imaginary frequencies ignored.
 Zero-point vibrational energy     116000.0 (Joules/Mol)
                                   27.72466 (Kcal/Mol)
 Warning -- explicit consideration of   5 degrees of freedom as
           vibrations may cause significant error
 Vibrational temperatures:    241.76   241.86   336.60   622.53   622.56
          (Kelvin)           1450.99  1451.03  1741.44  2061.93  2061.95
                             3096.64  4518.79  4727.52  4727.58
 
 Zero-point correction=                           0.044182 (Hartree/Particle)
 Thermal correction to Energy=                    0.049407
 Thermal correction to Enthalpy=                  0.050352
 Thermal correction to Gibbs Free Energy=         0.016000
 Sum of electronic and zero-point Energies=           -592.981895
 Sum of electronic and thermal Energies=              -592.976670
 Sum of electronic and thermal Enthalpies=            -592.975725
 Sum of electronic and thermal Free Energies=         -593.010077
 
                     E (Thermal)             CV                S
                      KCal/Mol        Cal/Mol-Kelvin    Cal/Mol-Kelvin
 Total                   31.004             15.442             72.298
 Electronic               0.000              0.000              0.000
 Translational            0.889              2.981             38.900
 Rotational               0.889              2.981             24.684
 Vibrational             29.226              9.480              8.715
 Vibration     1          0.625              1.882              2.457
 Vibration     2          0.625              1.882              2.457
 Vibration     3          0.654              1.789              1.848
 Vibration     4          0.794              1.399              0.850
 Vibration     5          0.794              1.399              0.850
                       Q            Log10(Q)             Ln(Q)
 Total Bot       0.436823D-07         -7.359695        -16.946323
 Total V=0       0.917532D+13         12.962621         29.847538
 Vib (Bot)       0.303099D-19        -19.518415        -44.942812
 Vib (Bot)    1  0.120011D+01          0.079219          0.182410
 Vib (Bot)    2  0.119958D+01          0.079030          0.181974
 Vib (Bot)    3  0.840419D+00         -0.075504         -0.173855
 Vib (Bot)    4  0.401856D+00         -0.395929         -0.911661
 Vib (Bot)    5  0.401827D+00         -0.395961         -0.911734
 Vib (V=0)       0.636649D+01          0.803900          1.851049
 Vib (V=0)    1  0.180010D+01          0.255296          0.587841
 Vib (V=0)    2  0.179962D+01          0.255180          0.587573
 Vib (V=0)    3  0.147791D+01          0.169647          0.390627
 Vib (V=0)    4  0.114147D+01          0.057466          0.132320
 Vib (V=0)    5  0.114146D+01          0.057459          0.132304
 Electronic      0.100000D+01          0.000000          0.000000
 Translational   0.260396D+08          7.415635         17.075130
 Rotational      0.553460D+05          4.743086         10.921359
 
                                                      RxCoord=-2.99932 DE=26.19
                                                             IR Spectrum
 
      3    3                                     2                           1        1       1                                      
      2    1                                     1                           4        2       0                     4      2  1      
      8    4                                     5                           3        1       0                     3      3  6      
      6    1                                     2                           3        0       8                     3      4  8      
 
      X    X                                                                 X        X       X                     X      X  X      
                                                                             X        X                                    X  X      
                                                                             X                                             X  X      
                                                                             X                                             X  X      
                                                                             X                                             X  X      
                                                                             X                                             X  X      
                                                                             X                                             X  X      
                                                                                                                           X  X      
                                                                                                                           X  X      
                                                                                                                           X  X      
                                                                                                                           X  X      
                                                                                                                           X  X      
                                                                                                                           X  X      
                                                                                                                           X  X      
                                                                                                                              X      
                                                                                                                              X      
                                                                                                                              X      
                                                                                                                              X      
                                                                                                                              X      
                                                                                                                              X      
 
 -------------------------------------------------------------------
 Center     Atomic                   Forces (Hartrees/Bohr)
 Number     Number              X              Y              Z
 -------------------------------------------------------------------
      1        6           0.071103854   -0.000000444   -0.000008403
      2       17          -0.018705400   -0.000000057    0.000005090
      3        1           0.000269268   -0.000003406    0.001821910
      4        1           0.000259570   -0.001567798   -0.000911629
      5        1           0.000260588    0.001572003   -0.000903319
      6        6          -0.023113863   -0.000000655    0.000009483
      7        7          -0.030074017    0.000000357   -0.000013133
 -------------------------------------------------------------------
 Cartesian Forces:  Max     0.071103854 RMS     0.018066611
 Z-matrix is all fixed cartesians, so copy forces.
 Force constants in Cartesian coordinates: 
                1             2             3             4             5 
      1  0.676366D-01
      2  0.299983D-05  0.637871D+00
      3  0.268827D-04  0.231170D-05  0.637849D+00
      4  0.183718D-02  0.000000D+00  0.000000D+00  0.416553D-01
      5  0.000000D+00 -0.228156D-02  0.000000D+00  0.000000D+00 -0.150077D-02
      6 -0.195143D-05  0.000000D+00 -0.228081D-02 -0.194780D-05  0.000000D+00
      7 -0.406177D-01  0.173537D-03 -0.746645D-01 -0.804490D-02 -0.318051D-05
      8  0.166852D-03 -0.466839D-01  0.677814D-03  0.282305D-05 -0.775732D-03
      9 -0.718288D-01  0.677994D-03 -0.338880D+00 -0.131336D-02 -0.487483D-05
     10 -0.405963D-01  0.645567D-01  0.374717D-01 -0.804783D-02 -0.111721D-02
     11  0.621036D-01 -0.265260D+00 -0.126884D+00  0.113466D-02  0.872988D-03
     12  0.360474D-01 -0.126886D+00 -0.120327D+00  0.659341D-03  0.964058D-03
     13 -0.405976D-01 -0.647332D-01  0.371735D-01 -0.804823D-02  0.112062D-02
     14 -0.622737D-01 -0.266435D+00  0.126204D+00 -0.113700D-02  0.881203D-03
     15  0.357605D-01  0.126205D+00 -0.119149D+00  0.654164D-03 -0.958861D-03
     16  0.319438D-01  0.000000D+00  0.000000D+00 -0.141024D-01  0.000000D+00
     17  0.000000D+00 -0.710177D-01  0.000000D+00  0.000000D+00  0.353391D-02
     18 -0.178676D-04  0.000000D+00 -0.710203D-01  0.418416D-05  0.000000D+00
     19  0.203940D-01  0.000000D+00 -0.804228D-05 -0.524908D-02  0.000000D+00
     20  0.000000D+00  0.138075D-01  0.000000D+00  0.000000D+00 -0.730043D-03
     21  0.137517D-04  0.000000D+00  0.138084D-01 -0.314532D-05  0.000000D+00
                6             7             8             9            10 
      6 -0.151227D-02
      7  0.129169D-02  0.627662D-01
      8 -0.485758D-05 -0.179787D-03  0.446177D-01
      9  0.142856D-02  0.775193D-01 -0.710475D-03  0.350541D+00
     10 -0.648157D-03  0.318006D-02 -0.734129D-02 -0.343051D-02  0.627545D-01
     11  0.964041D-03 -0.738089D-03  0.229486D-02  0.293280D-02 -0.670245D-01
     12 -0.215163D-03  0.806729D-02 -0.238991D-01 -0.994149D-02 -0.389057D-01
     13 -0.642802D-03  0.318042D-02  0.735703D-02 -0.339662D-02  0.317868D-02
     14 -0.958857D-03  0.700330D-03  0.219688D-02 -0.287609D-02 -0.661887D-02
     15 -0.224097D-03  0.807075D-02  0.239558D-01 -0.984439D-02 -0.467183D-02
     16  0.241631D-05 -0.186869D-01 -0.107057D-05  0.471082D-03 -0.186940D-01
     17  0.000000D+00  0.538451D-04 -0.232920D-02 -0.256378D-04  0.200307D-01
     18  0.353382D-02 -0.231566D-01 -0.255128D-04  0.873275D-02  0.116283D-01
     19  0.000000D+00 -0.177715D-02 -0.455642D-05  0.197885D-02 -0.177511D-02
     20  0.000000D+00 -0.665568D-05  0.679384D-03  0.628684D-05 -0.248548D-02
     21 -0.730046D-03  0.287199D-02  0.627669D-05 -0.203625D-02 -0.144381D-02
               11            12            13            14            15 
     11  0.273464D+00
     12  0.132838D+00  0.121714D+00
     13  0.664040D-02 -0.464091D-02  0.627555D-01
     14 -0.159631D-01  0.133604D-01  0.672071D-01  0.274694D+00
     15 -0.134732D-01  0.831546D-02 -0.385958D-01 -0.132126D+00  0.120482D+00
     16 -0.405304D-03 -0.234193D-03 -0.186938D-01  0.406766D-03 -0.232479D-03
     17  0.594386D-02  0.480130D-02 -0.200841D-01  0.598875D-02 -0.477573D-02
     18  0.480217D-02  0.459920D-03  0.115348D-01 -0.477676D-02  0.415301D-03
     19 -0.171074D-02 -0.993286D-03 -0.177490D-02  0.171539D-02 -0.985303D-03
     20 -0.135201D-02 -0.117905D-02  0.249212D-02 -0.136302D-02  0.117276D-02
     21 -0.117969D-02 -0.574954D-05 -0.143220D-02  0.117341D-02  0.519837D-05
               16            17            18            19            20 
     16  0.116005D+01
     17 -0.750426D-05  0.929647D-01
     18  0.303930D-03  0.000000D+00  0.929624D-01
     19 -0.112181D+01  0.695385D-05 -0.296784D-03  0.111200D+01
     20  0.733777D-05 -0.350844D-01  0.000000D+00 -0.715762D-05  0.240425D-01
     21 -0.310400D-03  0.000000D+00 -0.350839D-01  0.303814D-03  0.000000D+00
               21 
     21  0.240423D-01
 Leave Link  716 at Sun Oct 13 09:49:42 2024, MaxMem=  2684354560 cpu:               1.0 elap:               0.1
 (Enter /usr/local/g16_AVX//g16/l103.exe)

 GradGradGradGradGradGradGradGradGradGradGradGradGradGradGradGradGradGrad
 Berny optimization.
 Search for a local minimum.
 Step number   1 out of a maximum of    2
 All quantities printed in internal units (Hartrees-Bohrs-Radians)
 Second derivative matrix not updated -- analytic derivatives used.
 ITU=  0
     Eigenvalues ---   -0.02132   0.00549   0.00549   0.02916   0.02916
     Eigenvalues ---    0.04327   0.08688   0.09744   0.09744   0.13680
     Eigenvalues ---    0.13680   0.42123   0.92599   0.92602   2.25756
 Eigenvalue     1 is  -2.13D-02 should be greater than     0.000000 Eigenvector:
                          X1        X7        X6        X3        X4
   1                    0.74400  -0.41255  -0.40430   0.15332   0.15308
                          X5        Z3        Y5        Y4        Z4
   1                    0.15307   0.11555   0.10025  -0.09997  -0.05806
 Quadratic step=3.593D+00 exceeds max=3.000D-01 adjusted using Lamda=-2.413D-01.
 Angle between NR and scaled steps=  10.38 degrees.
 Angle between quadratic step and forces=  10.79 degrees.
 Linear search not attempted -- first point.
 B after Tr=    -0.010627   -0.000000    0.000000
         Rot=    1.000000    0.000000   -0.000000    0.000000 Ang=  -0.00 deg.
 Variable       Old X    -DE/DX   Delta X   Delta X   Delta X     New X
                                 (Linear)    (Quad)   (Total)
    X1        0.79492   0.07110   0.00000   0.25681   0.24618   1.04110
    Y1        0.00001  -0.00000   0.00000  -0.00000  -0.00000   0.00001
    Z1       -0.00046  -0.00001   0.00000  -0.00001  -0.00001  -0.00047
    X2       -4.26027  -0.01871   0.00000  -0.04810  -0.05873  -4.31899
    Y2       -0.00000  -0.00000   0.00000   0.00000   0.00000  -0.00000
    Z2        0.00021   0.00001   0.00000   0.00001   0.00001   0.00022
    X3        0.27747   0.00027   0.00000   0.01902   0.00839   0.28586
    Y3        0.00461  -0.00000   0.00000  -0.00007  -0.00007   0.00454
    Z3       -1.98158   0.00182   0.00000   0.02960   0.02960  -1.95198
    X4        0.27769   0.00026   0.00000   0.01898   0.00835   0.28604
    Y4        1.71341  -0.00157   0.00000  -0.02559  -0.02559   1.68782
    Z4        0.99413  -0.00091   0.00000  -0.01486  -0.01486   0.97927
    X5        0.27766   0.00026   0.00000   0.01898   0.00836   0.28602
    Y5       -1.71799   0.00157   0.00000   0.02566   0.02566  -1.69233
    Z5        0.98615  -0.00090   0.00000  -0.01473  -0.01473   0.97141
    X6        4.12936  -0.02311   0.00000  -0.09388  -0.10450   4.02486
    Y6        0.00000  -0.00000   0.00000  -0.00000  -0.00000   0.00000
    Z6       -0.00036   0.00001   0.00000   0.00004   0.00003  -0.00032
    X7        6.35903  -0.03007   0.00000  -0.09742  -0.10805   6.25098
    Y7       -0.00001   0.00000   0.00000   0.00000   0.00000  -0.00001
    Z7        0.00028  -0.00001   0.00000  -0.00004  -0.00005   0.00024
         Item               Value     Threshold  Converged?
 Maximum Force            0.071104     0.000450     NO 
 RMS     Force            0.018067     0.000300     NO 
 Maximum Displacement     0.246180     0.001800     NO 
 RMS     Displacement     0.065278     0.001200     NO 
 Predicted change in Energy=-2.491097D-02
 GradGradGradGradGradGradGradGradGradGradGradGradGradGradGradGradGradGrad

 Leave Link  103 at Sun Oct 13 09:49:42 2024, MaxMem=  2684354560 cpu:               0.6 elap:               0.1
 (Enter /usr/local/g16_AVX//g16/l9999.exe)

 ----------------------------------------------------------------------

 Electric dipole moment (input orientation):
 (Debye = 10**-18 statcoulomb cm , SI units = C m)
                  (au)            (Debye)         (10**-30 SI)
   Tot        0.140547D+01      0.357235D+01      0.119161D+02
   x          0.140547D+01      0.357235D+01      0.119161D+02
   y          0.000000D+00      0.000000D+00      0.000000D+00
   z         -0.399203D-03     -0.101467D-02     -0.338459D-02

 Dipole polarizability, Alpha (input orientation).
 (esu units = cm**3 , SI units = C**2 m**2 J**-1)
 Alpha(0;0):
               (au)            (10**-24 esu)      (10**-40 SI)
   iso        0.593579D+02      0.879593D+01      0.978679D+01
   aniso      0.559371D+02      0.828903D+01      0.922279D+01
   xx         0.966493D+02      0.143219D+02      0.159353D+02
   yx        -0.512487D-04     -0.759428D-05     -0.844978D-05
   yy         0.407117D+02      0.603286D+01      0.671246D+01
   zx         0.145602D-02      0.215759D-03      0.240065D-03
   zy         0.114007D-04      0.168940D-05      0.187972D-05
   zz         0.407126D+02      0.603298D+01      0.671259D+01

 ----------------------------------------------------------------------

 Dipole orientation:
     6          0.00023531          0.00000707          0.79491717
    17          0.00100409          0.00002099         -4.26026649
     1          1.98150301          0.00461441          0.27803701
     1         -0.99421815          1.71340029          0.27741452
     1         -0.98621562         -1.71799271          0.27737190
     6         -0.00081573         -0.00001840          4.12935954
     7         -0.00208776         -0.00004549          6.35903012

 Electric dipole moment (dipole orientation):
 (Debye = 10**-18 statcoulomb cm , SI units = C m)
                  (au)            (Debye)         (10**-30 SI)
   Tot        0.140547D+01      0.357235D+01      0.119161D+02
   x          0.000000D+00      0.000000D+00      0.000000D+00
   y          0.000000D+00      0.000000D+00      0.000000D+00
   z          0.140547D+01      0.357235D+01      0.119161D+02

 Dipole polarizability, Alpha (dipole orientation).
 (esu units = cm**3 , SI units = C**2 m**2 J**-1)
 Alpha(0;0):
               (au)            (10**-24 esu)      (10**-40 SI)
   iso        0.593579D+02      0.879593D+01      0.978679D+01
   aniso      0.559371D+02      0.828903D+01      0.922279D+01
   xx         0.407126D+02      0.603298D+01      0.671259D+01
   yx        -0.112886D-04     -0.167279D-05     -0.186123D-05
   yy         0.407117D+02      0.603286D+01      0.671246D+01
   zx        -0.173440D-01     -0.257012D-02     -0.285964D-02
   zy        -0.351681D-03     -0.521137D-04     -0.579843D-04
   zz         0.966493D+02      0.143219D+02      0.159353D+02

 ----------------------------------------------------------------------
 1\1\GINC-NODO7\Freq\RB3LYP\6-31++G(d,p)\C2H3Cl1N1(1-)\ALANQF\13-Oct-20
 24\0\\#p b3lyp 6-31++g(d,p) scf=verytight NoSymm freq=noraman int=ultr
 afine\\RxCoord=-2.99932 DE=26.19\\-1,1\C,0.420652,0.000006,-0.000244\C
 l,-2.254436,-0.000001,0.000109\H,0.146833,0.002437,-1.048608\H,0.14694
 6,0.906696,0.526071\H,0.146932,-0.909119,0.521846\C,2.185163,0.000002,
 -0.000189\N,3.365054,-0.000006,0.000149\\Version=ES64L-G16RevB.01\HF=-
 593.026077\RMSD=1.809e-09\RMSF=1.807e-02\ZeroPoint=0.0441821\Thermal=0
 .0494075\Dipole=1.4687299,0.0000077,-0.0004182\DipoleDeriv=1.7977088,-
 0.0000005,-0.0000653,-0.0000084,0.0915817,0.0000004,0.0000056,0.000000
 3,0.0916433,-1.3392651,0.0000004,0.0000224,0.000001,-0.871706,0.,0.000
 0389,-0.0000001,-0.8717146,-0.001063,-0.0000353,0.0154915,-0.0000326,0
 .0859467,0.0001216,0.0149939,0.0001226,0.0333934,-0.0010726,-0.0134102
 ,-0.007795,-0.0130046,0.0466448,-0.0228039,-0.0075552,-0.0228078,0.072
 6883,-0.001061,0.0134459,-0.0077312,0.013045,0.0464325,0.0226825,-0.00
 74952,0.0226855,0.0728994,-0.6875933,0.0000012,-0.0000112,-0.0000058,-
 0.0268061,-0.0000007,0.0002509,-0.0000007,-0.0268233,-0.7676538,-0.000
 0016,0.0000889,0.0000055,-0.3720935,0.0000002,-0.0002389,0.0000002,-0.
 3720866\Polar=96.64927,-0.0000512,40.7117393,0.001456,0.0000114,40.712
 5558\Quadrupole=-24.4767436,12.2383716,12.2383719,0.0000346,0.0000712,
 0.000013\PG=C01 [X(C2H3Cl1N1)]\NImag=1\\0.06763663,0.00000300,0.637870
 88,0.00002688,0.00000231,0.63784882,0.00183718,0.,0.00000076,0.0416552
 5,0.00000029,-0.00228156,0.,-0.00000042,-0.00150077,-0.00000195,0.,-0.
 00228081,-0.00000195,-0.00000031,-0.00151227,-0.04061775,0.00017354,-0
 .07466446,-0.00804490,-0.00000318,0.00129169,0.06276618,0.00016685,-0.
 04668391,0.00067781,0.00000282,-0.00077573,-0.00000486,-0.00017979,0.0
 4461772,-0.07182876,0.00067799,-0.33887996,-0.00131336,-0.00000487,0.0
 0142856,0.07751931,-0.00071047,0.35054078,-0.04059628,0.06455668,0.037
 47171,-0.00804783,-0.00111721,-0.00064816,0.00318006,-0.00734129,-0.00
 343051,0.06275450,0.06210361,-0.26526023,-0.12688428,0.00113466,0.0008
 7299,0.00096404,-0.00073809,0.00229486,0.00293280,-0.06702454,0.273463
 63,0.03604743,-0.12688572,-0.12032692,0.00065934,0.00096406,-0.0002151
 6,0.00806729,-0.02389907,-0.00994149,-0.03890568,0.13283812,0.12171394
 ,-0.04059765,-0.06473319,0.03717350,-0.00804823,0.00112062,-0.00064280
 ,0.00318042,0.00735703,-0.00339662,0.00317868,0.00664040,-0.00464091,0
 .06275550,-0.06227371,-0.26643506,0.12620417,-0.00113700,0.00088120,-0
 .00095886,0.00070033,0.00219688,-0.00287609,-0.00661887,-0.01596310,0.
 01336036,0.06720710,0.27469435,0.03576051,0.12620540,-0.11914918,0.000
 65416,-0.00095886,-0.00022410,0.00807075,0.02395583,-0.00984439,-0.004
 67183,-0.01347316,0.00831546,-0.03859582,-0.13212624,0.12048172,0.0319
 4382,-0.00000014,-0.00000036,-0.01410238,-0.00000008,0.00000242,-0.018
 68686,-0.00000107,0.00047108,-0.01869402,-0.00040530,-0.00023419,-0.01
 869382,0.00040677,-0.00023248,1.16004707,0.00000022,-0.07101767,-0.000
 00004,-0.00000015,0.00353391,-0.00000002,0.00005385,-0.00232920,-0.000
 02564,0.02003071,0.00594386,0.00480130,-0.02008408,0.00598875,-0.00477
 573,-0.00000750,0.09296471,-0.00001787,0.,-0.07102032,0.00000418,-0.00
 000002,0.00353382,-0.02315658,-0.00002551,0.00873275,0.01162827,0.0048
 0217,0.00045992,0.01153484,-0.00477676,0.00041530,0.00030393,0.0000001
 3,0.09296238,0.02039404,0.00000013,-0.00000804,-0.00524908,-0.00000001
 ,0.00000075,-0.00177715,-0.00000456,0.00197885,-0.00177511,-0.00171074
 ,-0.00099329,-0.00177490,0.00171539,-0.00098530,-1.12181381,0.00000695
 ,-0.00029678,1.11199601,-0.00000025,0.01380755,0.00000002,0.00000009,-
 0.00073004,0.,-0.00000666,0.00067938,0.00000629,-0.00248548,-0.0013520
 1,-0.00117905,0.00249212,-0.00136302,0.00117276,0.00000734,-0.03508437
 ,-0.00000001,-0.00000716,0.02404251,0.00001375,0.00000002,0.01380838,-
 0.00000315,0.,-0.00073005,0.00287199,0.00000628,-0.00203625,-0.0014438
 1,-0.00117969,-0.00000575,-0.00143220,0.00117341,0.00000520,-0.0003104
 0,-0.00000001,-0.03508385,0.00030381,0.,0.02404231\\-0.07110385,0.0000
 0044,0.00000840,0.01870540,0.00000006,-0.00000509,-0.00026927,0.000003
 41,-0.00182191,-0.00025957,0.00156780,0.00091163,-0.00026059,-0.001572
 00,0.00090332,0.02311386,0.00000065,-0.00000948,0.03007402,-0.00000036
 ,0.00001313\\\@


 MICHAEL FARADAY, ASKED BY A POLITICIAN WHAT GOOD
 HIS ELECTRICAL DISCOVERIES WERE, REPLIED 
 "AT PRESENT I DO NOT KNOW, BUT ONE DAY YOU WILL BE
 ABLE TO TAX THEM."
 Job cpu time:       0 days  0 hours  3 minutes 53.2 seconds.
 Elapsed time:       0 days  0 hours  0 minutes 10.0 seconds.
 File lengths (MBytes):  RWF=     88 Int=      0 D2E=      0 Chk=      2 Scr=      2
 Normal termination of Gaussian 16 at Sun Oct 13 09:49:42 2024.
