RxCoord=-2.89934 DE=27.83                                               
Freq      RB3LYP                                                      6-31++G(d,p)        
Number of atoms                            I                7
Info1-9                                    I   N=           9
          16          16           0           0           0         100
           6          18        -502
Full Title                                 C   N=           3
RxCoord=-2.89934 DE=27.83           
Route                                      C   N=           6
#p b3lyp 6-31++g(d,p) scf=verytight NoSymm freq=noraman int=
ultrafine   
Charge                                     I               -1
Multiplicity                               I                1
Number of electrons                        I               40
Number of alpha electrons                  I               20
Number of beta electrons                   I               20
Number of basis functions                  I               98
Number of independent functions            I               98
Number of point charges in /Mol/           I                0
Number of translation vectors              I                0
Atomic numbers                             I   N=           7
           6          17           1           1           1           6
           7
Nuclear charges                            R   N=           7
  6.00000000E+00  1.70000000E+01  1.00000000E+00  1.00000000E+00  1.00000000E+00
  6.00000000E+00  7.00000000E+00
Current cartesian coordinates              R   N=          21
  7.69965130E-01  1.32280829E-05 -4.59203448E-04 -4.25773626E+00 -1.88972612E-06
  2.05980148E-04  2.70070209E-01  4.61471120E-03 -1.98512895E+00  2.70242174E-01
  1.71648170E+00  9.95885668E-01  2.70215718E-01 -1.72106807E+00  9.87886457E-01
  4.13826022E+00  5.66917837E-06 -3.60937690E-04  6.36807090E+00 -1.13383567E-05
  2.85348645E-04
Number of symbols in /Mol/                 I                0
Force Field                                I                0
Atom Types                                 C   N=           7
                                                            
                        
Int Atom Types                             I   N=           7
           0           0           0           0           0           0
           0
MM charges                                 R   N=           7
  0.00000000E+00  0.00000000E+00  0.00000000E+00  0.00000000E+00  0.00000000E+00
  0.00000000E+00  0.00000000E+00
Integer atomic weights                     I   N=           7
          12          35           1           1           1          12
          14
Real atomic weights                        R   N=           7
  1.20000000E+01  3.49688527E+01  1.00782504E+00  1.00782504E+00  1.00782504E+00
  1.20000000E+01  1.40030740E+01
Atom fragment info                         I   N=           7
           0           0           0           0           0           0
           0
Atom residue num                           I   N=           7
           0           0           0           0           0           0
           0
Nuclear spins                              I   N=           7
           0           3           1           1           1           0
           2
Nuclear ZEff                               R   N=           7
 -3.60000000E+00 -1.42400000E+01 -1.00000000E+00 -1.00000000E+00 -1.00000000E+00
 -3.60000000E+00 -4.55000000E+00
Nuclear ZNuc                               R   N=           7
  6.00000000E+00  1.70000000E+01  1.00000000E+00  1.00000000E+00  1.00000000E+00
  6.00000000E+00  7.00000000E+00
Nuclear QMom                               R   N=           7
  0.00000000E+00 -8.16500000E+00  0.00000000E+00  0.00000000E+00  0.00000000E+00
  0.00000000E+00  2.04400000E+00
Nuclear GFac                               R   N=           7
  0.00000000E+00  8.21874000E-01  2.79284600E+00  2.79284600E+00  2.79284600E+00
  0.00000000E+00  4.03761000E-01
MicOpt                                     I   N=           7
          -1          -1          -1          -1          -1          -1
          -1
Number of residues                         I                0
Number of secondary structures             I                0
Number of contracted shells                I               33
Number of primitive shells                 I               72
Pure/Cartesian d shells                    I                1
Pure/Cartesian f shells                    I                0
Highest angular momentum                   I                2
Largest degree of contraction              I                6
Shell types                                I   N=          33
           0          -1          -1          -1           2           0
          -1          -1          -1          -1           2           0
           0           0           1           0           0           0
           1           0           0           0           1           0
          -1          -1          -1           2           0          -1
          -1          -1           2
Number of primitives per shell             I   N=          33
           6           3           1           1           1           6
           6           3           1           1           1           3
           1           1           1           3           1           1
           1           3           1           1           1           6
           3           1           1           1           6           3
           1           1           1
Shell to atom map                          I   N=          33
           1           1           1           1           1           2
           2           2           2           2           2           3
           3           3           3           4           4           4
           4           5           5           5           5           6
           6           6           6           6           7           7
           7           7           7
Primitive exponents                        R   N=          72
  3.04752488E+03  4.57369518E+02  1.03948685E+02  2.92101553E+01  9.28666296E+00
  3.16392696E+00  7.86827235E+00  1.88128854E+00  5.44249258E-01  1.68714478E-01
  4.38000000E-02  8.00000000E-01  2.51801000E+04  3.78035000E+03  8.60474000E+02
  2.42145000E+02  7.73349000E+01  2.62470000E+01  4.91765000E+02  1.16984000E+02
  3.74153000E+01  1.37834000E+01  5.45215000E+00  2.22588000E+00  3.18649000E+00
  1.14427000E+00  4.20377000E-01  1.42657000E-01  4.83000000E-02  7.50000000E-01
  1.87311370E+01  2.82539436E+00  6.40121692E-01  1.61277759E-01  3.60000000E-02
  1.10000000E+00  1.87311370E+01  2.82539436E+00  6.40121692E-01  1.61277759E-01
  3.60000000E-02  1.10000000E+00  1.87311370E+01  2.82539436E+00  6.40121692E-01
  1.61277759E-01  3.60000000E-02  1.10000000E+00  3.04752488E+03  4.57369518E+02
  1.03948685E+02  2.92101553E+01  9.28666296E+00  3.16392696E+00  7.86827235E+00
  1.88128854E+00  5.44249258E-01  1.68714478E-01  4.38000000E-02  8.00000000E-01
  4.17351146E+03  6.27457911E+02  1.42902093E+02  4.02343293E+01  1.28202129E+01
  4.39043701E+00  1.16263619E+01  2.71627981E+00  7.72218397E-01  2.12031498E-01
  6.39000000E-02  8.00000000E-01
Contraction coefficients                   R   N=          72
  1.83473713E-03  1.40373228E-02  6.88426223E-02  2.32184443E-01  4.67941348E-01
  3.62311985E-01 -1.19332420E-01 -1.60854152E-01  1.14345644E+00  1.00000000E+00
  1.00000000E+00  1.00000000E+00  1.83295985E-03  1.40341988E-02  6.90973943E-02
  2.37451980E-01  4.83033960E-01  3.39855972E-01 -2.29739142E-03 -3.07137189E-02
 -1.12528069E-01  4.50163278E-02  5.89353363E-01  4.65206287E-01 -2.51828028E-01
  6.15892514E-02  1.06018433E+00  1.00000000E+00  1.00000000E+00  1.00000000E+00
  3.34946043E-02  2.34726953E-01  8.13757326E-01  1.00000000E+00  1.00000000E+00
  1.00000000E+00  3.34946043E-02  2.34726953E-01  8.13757326E-01  1.00000000E+00
  1.00000000E+00  1.00000000E+00  3.34946043E-02  2.34726953E-01  8.13757326E-01
  1.00000000E+00  1.00000000E+00  1.00000000E+00  1.83473713E-03  1.40373228E-02
  6.88426223E-02  2.32184443E-01  4.67941348E-01  3.62311985E-01 -1.19332420E-01
 -1.60854152E-01  1.14345644E+00  1.00000000E+00  1.00000000E+00  1.00000000E+00
  1.83477216E-03  1.39946270E-02  6.85865518E-02  2.32240873E-01  4.69069948E-01
  3.60455199E-01 -1.14961182E-01 -1.69117479E-01  1.14585195E+00  1.00000000E+00
  1.00000000E+00  1.00000000E+00
P(S=P) Contraction coefficients            R   N=          72
  0.00000000E+00  0.00000000E+00  0.00000000E+00  0.00000000E+00  0.00000000E+00
  0.00000000E+00  6.89990666E-02  3.16423961E-01  7.44308291E-01  1.00000000E+00
  1.00000000E+00  0.00000000E+00  0.00000000E+00  0.00000000E+00  0.00000000E+00
  0.00000000E+00  0.00000000E+00  0.00000000E+00  3.98940088E-03  3.03177067E-02
  1.29880029E-01  3.27951072E-01  4.53527100E-01  2.52154056E-01 -1.42993147E-02
  3.23572333E-01  7.43507765E-01  1.00000000E+00  1.00000000E+00  0.00000000E+00
  0.00000000E+00  0.00000000E+00  0.00000000E+00  0.00000000E+00  0.00000000E+00
  0.00000000E+00  0.00000000E+00  0.00000000E+00  0.00000000E+00  0.00000000E+00
  0.00000000E+00  0.00000000E+00  0.00000000E+00  0.00000000E+00  0.00000000E+00
  0.00000000E+00  0.00000000E+00  0.00000000E+00  0.00000000E+00  0.00000000E+00
  0.00000000E+00  0.00000000E+00  0.00000000E+00  0.00000000E+00  6.89990666E-02
  3.16423961E-01  7.44308291E-01  1.00000000E+00  1.00000000E+00  0.00000000E+00
  0.00000000E+00  0.00000000E+00  0.00000000E+00  0.00000000E+00  0.00000000E+00
  0.00000000E+00  6.75797439E-02  3.23907296E-01  7.40895140E-01  1.00000000E+00
  1.00000000E+00  0.00000000E+00
Coordinates of each shell                  R   N=          99
  7.69965130E-01  1.32280829E-05 -4.59203448E-04  7.69965130E-01  1.32280829E-05
 -4.59203448E-04  7.69965130E-01  1.32280829E-05 -4.59203448E-04  7.69965130E-01
  1.32280829E-05 -4.59203448E-04  7.69965130E-01  1.32280829E-05 -4.59203448E-04
 -4.25773626E+00 -1.88972612E-06  2.05980148E-04 -4.25773626E+00 -1.88972612E-06
  2.05980148E-04 -4.25773626E+00 -1.88972612E-06  2.05980148E-04 -4.25773626E+00
 -1.88972612E-06  2.05980148E-04 -4.25773626E+00 -1.88972612E-06  2.05980148E-04
 -4.25773626E+00 -1.88972612E-06  2.05980148E-04  2.70070209E-01  4.61471120E-03
 -1.98512895E+00  2.70070209E-01  4.61471120E-03 -1.98512895E+00  2.70070209E-01
  4.61471120E-03 -1.98512895E+00  2.70070209E-01  4.61471120E-03 -1.98512895E+00
  2.70242174E-01  1.71648170E+00  9.95885668E-01  2.70242174E-01  1.71648170E+00
  9.95885668E-01  2.70242174E-01  1.71648170E+00  9.95885668E-01  2.70242174E-01
  1.71648170E+00  9.95885668E-01  2.70215718E-01 -1.72106807E+00  9.87886457E-01
  2.70215718E-01 -1.72106807E+00  9.87886457E-01  2.70215718E-01 -1.72106807E+00
  9.87886457E-01  2.70215718E-01 -1.72106807E+00  9.87886457E-01  4.13826022E+00
  5.66917837E-06 -3.60937690E-04  4.13826022E+00  5.66917837E-06 -3.60937690E-04
  4.13826022E+00  5.66917837E-06 -3.60937690E-04  4.13826022E+00  5.66917837E-06
 -3.60937690E-04  4.13826022E+00  5.66917837E-06 -3.60937690E-04  6.36807090E+00
 -1.13383567E-05  2.85348645E-04  6.36807090E+00 -1.13383567E-05  2.85348645E-04
  6.36807090E+00 -1.13383567E-05  2.85348645E-04  6.36807090E+00 -1.13383567E-05
  2.85348645E-04  6.36807090E+00 -1.13383567E-05  2.85348645E-04
Num ILSW                                   I              100
ILSW                                       I   N=         100
           0           1           0           0           2           0
           0           0           0           0         402          -1
           5           0           0           0           2           0
           0           0           0           0           1           0
           1           1           0           0           0           0
           0           0      100000           0          -1           0
           0           0           0           0           0           0
           0           0           0           1           0           0
           0 -2000000000           1           0           0           0
           0           0           4          52           0           0
           0           0           5           0           0           0
           0           0           0           7           0           1
           0           0           0           0           0           0
           0           0           0           0           0           0
           0           0           0           0           0           0
           0           0           0           0           0           0
           0           0           0           0
Num RLSW                                   I               52
RLSW                                       R   N=          52
  8.00000000E-01  7.20000000E-01  1.00000000E+00  8.10000000E-01  2.00000000E-01
  0.00000000E+00  0.00000000E+00  1.00000000E+00  0.00000000E+00  0.00000000E+00
  0.00000000E+00  0.00000000E+00  1.00000000E+00  0.00000000E+00  0.00000000E+00
  0.00000000E+00  0.00000000E+00  1.00000000E+00  0.00000000E+00  0.00000000E+00
  0.00000000E+00  0.00000000E+00  1.00000000E+00  0.00000000E+00  0.00000000E+00
  0.00000000E+00  0.00000000E+00  1.00000000E+00  0.00000000E+00  0.00000000E+00
  0.00000000E+00  0.00000000E+00  1.00000000E+00  0.00000000E+00  0.00000000E+00
  0.00000000E+00  0.00000000E+00  0.00000000E+00  1.00000000E+00  1.00000000E+00
  0.00000000E+00  1.00000000E+00  0.00000000E+00  0.00000000E+00  0.00000000E+00
  0.00000000E+00  0.00000000E+00  0.00000000E+00  0.00000000E+00  0.00000000E+00
  0.00000000E+00  0.00000000E+00
MxBond                                     I                4
NBond                                      I   N=           7
           4           0           1           1           1           2
           1
IBond                                      I   N=          28
           3           4           5           6           0           0
           0           0           1           0           0           0
           1           0           0           0           1           0
           0           0           1           7           0           0
           6           0           0           0
RBond                                      R   N=          28
  1.00000000E+00  1.00000000E+00  1.00000000E+00  1.00000000E+00  0.00000000E+00
  0.00000000E+00  0.00000000E+00  0.00000000E+00  1.00000000E+00  0.00000000E+00
  0.00000000E+00  0.00000000E+00  1.00000000E+00  0.00000000E+00  0.00000000E+00
  0.00000000E+00  1.00000000E+00  0.00000000E+00  0.00000000E+00  0.00000000E+00
  1.00000000E+00  2.00000000E+00  0.00000000E+00  0.00000000E+00  2.00000000E+00
  0.00000000E+00  0.00000000E+00  0.00000000E+00
Virial Ratio                               R      2.005004214937905E+00
SCF Energy                                 R     -5.930237635865055E+02
Total Energy                               R     -5.930237635865055E+02
RMS Force                                  R      1.789541807763183E-02
RMS Density                                R      2.146360150046745E-09
NImag                                      I                1
Job Status                                 I                1
Nuclear derivative order                   I                2
External E-field                           R   N=          35
  0.00000000E+00  0.00000000E+00  0.00000000E+00  0.00000000E+00  0.00000000E+00
  0.00000000E+00  0.00000000E+00  0.00000000E+00  0.00000000E+00  0.00000000E+00
  0.00000000E+00  0.00000000E+00  0.00000000E+00  0.00000000E+00  0.00000000E+00
  0.00000000E+00  0.00000000E+00  0.00000000E+00  0.00000000E+00  0.00000000E+00
  0.00000000E+00  0.00000000E+00  0.00000000E+00  0.00000000E+00  0.00000000E+00
  0.00000000E+00  0.00000000E+00  0.00000000E+00  0.00000000E+00  0.00000000E+00
  0.00000000E+00  0.00000000E+00  0.00000000E+00  0.00000000E+00  0.00000000E+00
IOpCl                                      I                0
IROHF                                      I                0
Alpha Orbital Energies                     R   N=          98
 -1.01266451E+02 -1.42114212E+01 -1.01054211E+01 -1.01043956E+01 -9.18096677E+00
 -6.93885054E+00 -6.93854426E+00 -6.93854425E+00 -7.64344110E-01 -5.90077306E-01
 -5.20190858E-01 -3.24156394E-01 -3.04064307E-01 -3.04059608E-01 -2.30534439E-01
 -2.02705913E-01 -2.02705456E-01 -6.66105199E-02 -6.66102929E-02 -6.48030092E-02
  1.07259695E-01  1.46603494E-01  1.46609281E-01  1.47262582E-01  1.58464883E-01
  1.58465446E-01  1.86554284E-01  2.06235007E-01  2.11660649E-01  2.11662926E-01
  2.37769877E-01  2.39853032E-01  2.39855825E-01  2.59698881E-01  2.59699333E-01
  2.61102827E-01  3.12687409E-01  3.41066761E-01  3.41072003E-01  3.47109205E-01
  3.47114472E-01  3.51503390E-01  3.91054696E-01  4.27466289E-01  4.76016911E-01
  7.28197715E-01  7.88483188E-01  7.88484958E-01  8.29126413E-01  8.29128891E-01
  8.37419095E-01  8.59139037E-01  8.59146350E-01  8.86261100E-01  9.75006870E-01
  9.96842616E-01  1.04534640E+00  1.04534903E+00  1.12208246E+00  1.12208937E+00
  1.12292141E+00  1.14047352E+00  1.14047754E+00  1.16575378E+00  1.16576658E+00
  1.24589917E+00  1.24773813E+00  1.36932484E+00  1.51702137E+00  1.52903520E+00
  1.52903990E+00  1.66388010E+00  1.66388044E+00  1.77198406E+00  1.77199205E+00
  1.84295539E+00  2.08315260E+00  2.08315645E+00  2.08987499E+00  2.14072512E+00
  2.19846467E+00  2.19849294E+00  2.48425568E+00  2.48426061E+00  2.75286730E+00
  2.77832512E+00  2.77832764E+00  2.91462828E+00  2.96997379E+00  2.96998274E+00
  3.19363845E+00  3.45502533E+00  3.55587450E+00  3.55589572E+00  4.19883622E+00
  4.38030416E+00  4.57209729E+00  4.65385076E+00
Alpha MO coefficients                      R   N=        9604
 -3.39518323E-06  1.65036776E-06  3.00114921E-05  2.51325897E-10 -5.92585460E-09
 -2.13203871E-05 -2.08609082E-04 -1.31866499E-09  2.36982243E-08  5.43780925E-04
  4.55779548E-04  3.83218151E-10 -1.23213774E-08 -2.71935998E-05 -8.53848818E-06
 -8.54083182E-06  3.08668313E-10 -6.65015994E-11 -1.28354896E-11  9.95997646E-01
  1.51464685E-02  3.36686501E-06 -3.74066855E-11 -4.59814923E-10 -2.10607889E-02
 -3.43706999E-06  1.42454624E-10 -3.81999178E-10  1.91540751E-03 -2.40882340E-05
 -4.44657617E-10  6.31016206E-09 -1.83500534E-04  3.76990944E-05  6.93728019E-10
 -1.78040346E-08  7.50323192E-03  7.51859584E-03  7.51859578E-03 -7.30673499E-11
  2.29362675E-09 -4.21545161E-12 -1.21870342E-05 -5.71084975E-05  7.86050033E-05
  2.60106664E-05  2.24989853E-08 -9.62400014E-06 -1.21978146E-05 -5.71114932E-05
  7.86354714E-05  2.60110343E-05  8.32111980E-06  4.82539924E-06 -1.21995621E-05
 -5.71114318E-05  7.86375160E-05  2.60110704E-05 -8.34333513E-06  4.78676284E-06
 -2.87063933E-06 -1.32478147E-05  5.57266302E-06 -5.37950555E-11 -3.47971156E-10
 -1.55600928E-04 -3.39238019E-04  2.22413839E-09 -5.98573745E-08 -1.00868471E-03
  2.20558271E-04 -5.64711163E-10  1.39599496E-09 -5.85339442E-06 -3.51173794E-06
 -3.51187196E-06  8.44327285E-11 -5.99323066E-09  1.67351181E-11 -4.73743022E-06
 -2.13047963E-05 -4.05316361E-09 -1.87332625E-11  2.76710553E-09  3.13260917E-04
 -1.35231267E-04  1.16044692E-09 -5.55900539E-08  2.44673055E-04 -6.82136917E-05
  4.91984129E-10 -1.81481006E-08  6.74642513E-07 -1.07110595E-05 -1.07110196E-05
 -1.14448046E-10  6.06473546E-09 -1.48304375E-12 -1.23147911E-05 -1.65276874E-04
  2.58260980E-05 -4.63895910E-11  3.82080146E-09  5.36900010E-04  3.59749067E-04
 -2.02897263E-10 -5.44136216E-08  5.67689682E-03  2.28233243E-03 -1.78991535E-09
 -1.38106066E-07  1.44363189E-04 -2.35347916E-05 -2.35210793E-05 -1.36748063E-10
 -5.22268388E-09  1.82631331E-10 -3.11939889E-08 -2.20863917E-06  2.03290581E-06
  9.97170545E-12 -8.31043595E-10 -4.57016306E-06 -1.50839812E-05 -5.98212393E-11
  5.08893449E-09 -1.02721971E-05  7.58764794E-05  2.63727587E-10 -1.93035409E-08
  6.28349474E-04  1.63115664E-04  5.32208864E-10 -1.04355489E-08  9.67289146E-06
 -8.75816506E-06 -8.75826595E-06  2.37865301E-11 -2.91678944E-09 -1.54490600E-11
  5.63689210E-06 -1.18421698E-04 -1.18270002E-04 -1.25354964E-05 -2.05083792E-08
  8.81711270E-06  5.64750006E-06 -1.18354841E-04 -1.18398254E-04 -1.25263019E-05
 -7.63334420E-06 -4.42572309E-06  5.64834307E-06 -1.18355033E-04 -1.18403429E-04
 -1.25258689E-05  7.65386692E-06 -4.39024442E-06  8.41471212E-05  2.79486186E-04
 -4.45868107E-04  3.01421023E-09 -1.14685303E-07  2.38646667E-04  5.66921996E-04
 -6.59904682E-10  1.34550207E-08 -3.93276788E-03  3.29257704E-03 -1.52464388E-08
  4.76902176E-07 -9.60735335E-04  6.78248504E-06  6.78255128E-06  7.97644590E-09
 -3.00088614E-07  3.40014620E-11  9.92753148E-01  3.44781254E-02 -1.80369396E-03
  1.48548366E-08 -5.53342505E-07  4.09856234E-03  6.82959204E-04 -6.76857594E-09
  2.49982902E-07 -3.19220912E-03 -3.92965098E-04  1.02931478E-09 -1.02711494E-08
 -7.52499717E-03 -8.33790743E-03 -8.33790794E-03 -6.99358300E-09  2.66476671E-07
 -6.56012758E-12  9.92810588E-01  4.97658580E-02  5.54540901E-04 -7.82398844E-11
 -8.08901788E-08 -2.02441967E-02 -3.49364617E-03  2.63340680E-08  1.80653857E-07
  2.06420247E-02  1.50060129E-02  3.60954207E-08 -2.94141658E-07 -9.33296604E-03
 -8.48021005E-03 -8.48024888E-03  2.74886910E-09  4.81030679E-08  6.30492623E-09
  2.60046552E-07  1.35370720E-05 -4.72608397E-06  3.93530679E-10 -7.36568189E-10
  1.24783065E-05 -5.79444525E-06 -2.54314676E-09  9.90604701E-09 -3.19250364E-04
  2.28273722E-04  8.33747331E-09 -6.66797477E-08  5.92715601E-03  1.84656226E-03
  1.27493460E-08 -5.34842757E-07  8.75380364E-05  1.47479200E-05  1.47551528E-05
  2.18076985E-09 -2.84788491E-08  4.41722490E-10 -1.03784353E-04  3.10725314E-03
  1.16455711E-04  2.32904828E-05  4.17598602E-07 -1.79529613E-04 -1.03817168E-04
  3.10718393E-03  1.16565797E-04  2.32845906E-05  1.55256744E-04  9.01112797E-05
 -1.03814910E-04  3.10721709E-03  1.16629995E-04  2.32899681E-05 -1.55669957E-04
  8.93870132E-05  2.58571335E-02  1.21215534E-03 -9.31654303E-06  2.22795546E-09
  1.50636375E-08 -1.65294892E-03 -8.30961738E-03  2.38594667E-08 -1.26594466E-06
 -2.95916665E-02  8.40716954E-03 -5.19216606E-08  1.91201725E-07 -6.65047345E-04
 -3.14343504E-04 -3.14334401E-04  4.23784927E-09 -1.08174623E-07 -6.23831444E-10
 -7.47154277E-05 -2.75124661E-04 -1.48365538E-04 -5.50717528E-10  8.99667063E-09
  6.37223538E-03 -2.42213777E-03  3.39598527E-08 -1.24635176E-06  4.63182950E-03
 -2.14916561E-03  2.56221728E-08 -2.44824653E-07  8.62883710E-05 -1.32329028E-04
 -1.32328230E-04 -5.30369038E-09  1.89109947E-07  6.84098298E-11 -2.60199585E-02
 -1.36500065E-03 -3.36988772E-05 -2.26022901E-10 -9.46172272E-09  3.65475306E-03
  1.69289603E-03 -1.45413270E-08  9.74686170E-08  4.15424610E-02  2.63890545E-02
 -1.16257048E-08 -8.23284947E-07 -9.30006521E-05  1.42560214E-04  1.42573935E-04
  1.01296769E-09 -2.47978276E-09 -5.83920165E-10  1.76603848E-08 -5.20088831E-06
  2.51297798E-05  1.15629370E-10 -7.58449870E-09 -1.63099139E-06 -1.60925847E-04
 -6.63088864E-10  4.52971691E-08 -2.84422284E-04  7.14949922E-04  1.94678980E-09
 -1.47147696E-07  9.60684211E-03  3.07290666E-03  2.43740434E-08 -8.24504719E-07
  4.16876324E-05 -3.72631428E-05 -3.72638995E-05  5.58513453E-10 -2.96454439E-08
 -1.03412737E-10 -9.36450231E-05 -6.78235369E-04  5.74044532E-04 -1.44406579E-05
  1.33110672E-08 -5.53206053E-06 -9.36267182E-05 -6.78312806E-04  5.74661250E-04
 -1.43644400E-05  4.79277518E-06  2.77993700E-06 -9.36280640E-05 -6.78326596E-04
  5.74671668E-04 -1.43694995E-05 -4.80706823E-06  2.75897743E-06  9.92532135E-01
  4.95392068E-02  6.76983540E-04 -7.22651874E-09  3.45937841E-07 -1.02793353E-02
  3.84708171E-03 -7.43047266E-09  1.62719204E-07 -5.70194869E-02  1.71052472E-02
 -5.21636867E-08  5.64435779E-07 -8.50178480E-03 -9.62895949E-03 -9.62896117E-03
 -1.04959521E-08  3.81702922E-07  1.77055264E-10 -3.97644730E-04  3.70274614E-04
  1.86043919E-04 -8.23214195E-10  4.04722852E-08 -5.13590266E-03  1.99304960E-03
 -2.26240961E-08  8.30651731E-07  9.73977134E-03 -6.07809927E-03  3.62468586E-08
 -9.84935179E-07  9.77897151E-05  2.98411328E-04  2.98411865E-04  3.27615407E-09
 -1.29187392E-07 -1.40572667E-11  3.02394421E-05  5.20969572E-05  2.84039304E-04
 -9.09372303E-10 -3.61697480E-08 -1.88063140E-03 -3.20580350E-03  6.27958357E-09
  1.77320176E-07  9.59494743E-03  1.26844154E-02 -7.81834615E-09 -1.21515647E-06
  1.27709009E-04  6.36899972E-05  6.36793243E-05 -2.21050795E-10 -2.04638405E-08
 -1.15785508E-10 -2.84630064E-01  1.02270291E+00  2.54526396E-04 -1.44562478E-09
 -9.32102305E-08  7.54085466E-02  5.12322762E-04  2.51239108E-10 -6.46013720E-08
 -2.24618286E-02 -1.67634392E-03 -1.16359795E-09  1.89802394E-07  1.80346088E-02
  6.10357809E-03  7.62224895E-09 -7.11561048E-07 -1.56253041E-02 -1.55285745E-02
 -1.55285773E-02 -5.47702100E-10  1.80752893E-08  6.98826486E-11 -5.89421422E-05
 -2.38401122E-04 -2.25949188E-03  3.22729687E-05 -3.26700437E-08  1.38130331E-05
 -5.89824362E-05 -2.38157465E-04 -2.26069217E-03  3.22031693E-05 -1.19658056E-05
 -6.94159667E-06 -5.89849434E-05 -2.38140180E-04 -2.26081687E-03  3.21941519E-05
  1.19990958E-05 -6.88723659E-06 -2.29907216E-05 -1.44877704E-04 -6.61799986E-06
 -2.95168270E-10 -9.78431784E-09 -1.18024667E-03 -3.73063751E-03  1.95447337E-08
 -5.37227921E-07 -1.21314443E-02  3.99177263E-03 -4.88872059E-08  1.53179384E-06
  5.56119961E-05 -1.79627260E-05 -1.79631112E-05  5.63005356E-10 -2.96544373E-08
  1.07179988E-10 -9.34737492E-05 -3.61900009E-04  5.32261652E-06 -4.42596489E-10
  3.21351340E-08  4.27798902E-03 -1.26272726E-03  1.25242383E-08 -5.81338751E-07
 -1.77819774E-03  2.96336081E-04  1.17803488E-08 -3.49324533E-07 -1.46210082E-04
 -1.95862770E-04 -1.95864448E-04 -1.02682857E-09  5.26448827E-08 -3.21660635E-11
 -2.50178815E-05 -3.22820783E-04 -1.11747539E-04 -2.79574917E-09  5.53529065E-08
 -4.45826772E-04 -1.84966840E-03  1.88986722E-08 -2.82181256E-07 -8.51129699E-02
 -5.78846178E-02  6.50542361E-09  1.72691853E-06  3.36022440E-04 -7.99968452E-05
 -7.99589684E-05 -2.08779335E-09 -6.74402112E-08 -3.72853709E-11  1.19367283E-04
 -2.97665484E-04  9.90652825E-01  4.59621487E-06 -1.91816258E-04  4.28808119E-04
  3.05021010E-02  1.39566867E-07 -5.88070866E-06 -1.16140084E-03 -1.39501001E-02
 -5.85253206E-08  2.60089282E-06 -1.93694337E-02 -1.70621935E-03 -3.27519140E-08
  8.99297183E-07  1.40880892E-04  2.63714555E-04  2.63722015E-04 -1.52588358E-09
  4.69594414E-08  7.89832786E-11 -1.01762280E-04  8.92495896E-04 -3.15961278E-03
 -9.94256648E-05 -3.03182926E-07  1.29859495E-04 -1.01629483E-04  8.92878676E-04
 -3.16013306E-03 -9.95658958E-05 -1.12348108E-04 -6.51565099E-05 -1.01614851E-04
  8.92889684E-04 -3.16014545E-03 -9.95802658E-05  1.12651008E-04 -6.46360729E-05
 -1.10632070E-04 -4.40093000E-04 -1.64453688E-05  1.85339972E-09 -9.66604546E-08
  2.57470046E-03 -1.79868821E-03 -3.25510452E-09  2.17169366E-07  1.16812129E-01
 -3.80518394E-02  1.59192393E-07 -2.51322958E-06 -1.97533772E-04 -1.74582537E-04
 -1.74576910E-04  1.44537678E-10 -2.30478325E-09 -9.11356499E-11 -2.83885765E-05
 -1.35749653E-04  1.10022203E-05 -4.48251553E-10 -1.62169416E-08  1.63355377E-03
 -6.44251713E-04  1.04484305E-08 -2.52696469E-07 -7.53344957E-03  7.03321936E-03
 -5.45692638E-08  1.06956717E-06  2.41819723E-05 -5.16781715E-05 -5.16793019E-05
 -1.15881315E-09  4.50023088E-08  4.00730395E-11 -1.91508063E-09 -8.27596315E-09
  2.28439583E-09 -3.06892283E-05 -2.72027281E-07  6.23352854E-08 -2.61439312E-08
 -4.34080496E-04 -3.82514343E-06  3.76320619E-08 -5.66165615E-08  3.70560745E-04
  3.27127930E-06 -3.29799588E-09 -5.90361640E-08  5.41160700E-08 -3.27690944E-05
 -2.90276456E-07 -3.56003979E-05 -1.02755367E-09  3.71665996E-09 -2.90249870E-06
  9.90765234E-01  8.74727562E-03 -1.10092517E-09 -8.74503719E-08  2.97149218E-02
  2.62346426E-04  2.00202494E-09  2.83396087E-08 -1.15817671E-02 -1.02249733E-04
 -5.95819410E-08 -3.19313687E-08  5.15980076E-03  4.55486163E-05 -1.34905419E-09
  3.82072491E-09 -2.63688253E-09  5.60774816E-05  4.95399240E-07  1.85632300E-06
  9.90109135E-07 -7.76230797E-06  3.00979591E-05  8.68667848E-07  2.73224177E-05
 -7.05067504E-07 -1.32244151E-04  1.03351203E-03 -4.02686625E-03 -1.15834584E-04
 -8.18549831E-05 -6.31229810E-05  1.31250277E-04 -1.02586575E-03  3.99673168E-03
  1.14976239E-04 -8.13326539E-05  6.26297235E-05  8.67086199E-12  1.73789779E-10
  4.68599749E-10  5.47958013E-05  4.84004110E-07 -8.08667431E-09 -8.69318492E-09
 -1.96579208E-04 -1.73791842E-06  9.28095405E-08 -2.35210941E-08  1.09446624E-03
  9.66392526E-06 -4.91578460E-10 -6.27484544E-09  6.39919565E-09 -1.20683373E-05
 -1.06361752E-07 -4.07888345E-06 -3.28724733E-10 -1.26415282E-09 -1.56834407E-10
 -1.82120531E-05 -1.61121474E-07  1.36913800E-08 -3.69821947E-09  1.20706916E-04
  1.06742206E-06 -1.31884806E-08  7.85763706E-09 -3.76691664E-04 -3.32761266E-06
 -5.35833428E-10  5.46624481E-09 -6.73145929E-09 -1.68453511E-05 -1.48810852E-07
  3.75249437E-06  2.61900813E-09 -1.35547410E-08 -2.59251030E-08  2.70124323E-07
 -3.07178327E-05 -1.17566637E-07  2.27937979E-07  3.83733942E-06 -4.33815168E-04
  8.02982035E-06  5.07599672E-06 -3.26773749E-06  3.70085957E-04  4.17454806E-08
 -3.08180525E-05  3.08296530E-05  2.88580211E-07 -3.27954761E-05  6.69097985E-08
 -8.09255475E-09  4.04236978E-08  1.91870201E-04 -8.74727468E-03  9.90765222E-01
  8.58568299E-08  5.76376682E-06 -2.62347924E-04  2.97148902E-02 -2.29628975E-07
 -2.18085435E-06  1.02255728E-04 -1.15816636E-02  2.13834319E-06  1.64019366E-06
 -4.55593999E-05  5.15960221E-03  3.22717802E-08  1.61947102E-06 -1.65825457E-06
 -4.94885717E-07  5.60876945E-05 -3.02131722E-09  1.52183066E-04 -1.18856085E-03
  4.63136010E-03  1.33176647E-04  9.56728411E-08 -1.17882025E-04 -7.52322426E-05
  5.87879843E-04 -2.28945051E-03 -6.58987718E-05 -6.23440552E-05 -8.71199307E-06
 -7.69437798E-05  6.01292029E-04 -2.34167164E-03 -6.74025308E-05  6.34488073E-05
 -9.23636840E-06  1.53615325E-08  6.19366187E-08 -2.31284559E-08 -4.83438638E-07