 Entering Gaussian System, Link 0=g16
 Initial command:
 /usr/local/g16_AVX//g16/l1.exe "/scratch/alanqf/0073-54515.ixchel.mda.cinvestav.mx/Gau-9761.inp" -scrdir="/scratch/alanqf/0073-54515.ixchel.mda.cinvestav.mx/"
 Entering Link 1 = /usr/local/g16_AVX//g16/l1.exe PID=      9762.
  
 Copyright (c) 1988-2017, Gaussian, Inc.  All Rights Reserved.
  
 This is part of the Gaussian(R) 16 program.  It is based on
 the Gaussian(R) 09 system (copyright 2009, Gaussian, Inc.),
 the Gaussian(R) 03 system (copyright 2003, Gaussian, Inc.),
 the Gaussian(R) 98 system (copyright 1998, Gaussian, Inc.),
 the Gaussian(R) 94 system (copyright 1995, Gaussian, Inc.),
 the Gaussian 92(TM) system (copyright 1992, Gaussian, Inc.),
 the Gaussian 90(TM) system (copyright 1990, Gaussian, Inc.),
 the Gaussian 88(TM) system (copyright 1988, Gaussian, Inc.),
 the Gaussian 86(TM) system (copyright 1986, Carnegie Mellon
 University), and the Gaussian 82(TM) system (copyright 1983,
 Carnegie Mellon University). Gaussian is a federally registered
 trademark of Gaussian, Inc.
  
 This software contains proprietary and confidential information,
 including trade secrets, belonging to Gaussian, Inc.
  
 This software is provided under written license and may be
 used, copied, transmitted, or stored only in accord with that
 written license.
  
 The following legend is applicable only to US Government
 contracts under FAR:
  
                    RESTRICTED RIGHTS LEGEND
  
 Use, reproduction and disclosure by the US Government is
 subject to restrictions as set forth in subparagraphs (a)
 and (c) of the Commercial Computer Software - Restricted
 Rights clause in FAR 52.227-19.
  
 Gaussian, Inc.
 340 Quinnipiac St., Bldg. 40, Wallingford CT 06492
  
  
 ---------------------------------------------------------------
 Warning -- This program may not be used in any manner that
 competes with the business of Gaussian, Inc. or will provide
 assistance to any competitor of Gaussian, Inc.  The licensee
 of this program is prohibited from giving any competitor of
 Gaussian, Inc. access to this program.  By using this program,
 the user acknowledges that Gaussian, Inc. is engaged in the
 business of creating and licensing software in the field of
 computational chemistry and represents and warrants to the
 licensee that it is not a competitor of Gaussian, Inc. and that
 it will not use this program in any manner prohibited above.
 ---------------------------------------------------------------
  

 Cite this work as:
 Gaussian 16, Revision B.01,
 M. J. Frisch, G. W. Trucks, H. B. Schlegel, G. E. Scuseria, 
 M. A. Robb, J. R. Cheeseman, G. Scalmani, V. Barone, 
 G. A. Petersson, H. Nakatsuji, X. Li, M. Caricato, A. V. Marenich, 
 J. Bloino, B. G. Janesko, R. Gomperts, B. Mennucci, H. P. Hratchian, 
 J. V. Ortiz, A. F. Izmaylov, J. L. Sonnenberg, D. Williams-Young, 
 F. Ding, F. Lipparini, F. Egidi, J. Goings, B. Peng, A. Petrone, 
 T. Henderson, D. Ranasinghe, V. G. Zakrzewski, J. Gao, N. Rega, 
 G. Zheng, W. Liang, M. Hada, M. Ehara, K. Toyota, R. Fukuda, 
 J. Hasegawa, M. Ishida, T. Nakajima, Y. Honda, O. Kitao, H. Nakai, 
 T. Vreven, K. Throssell, J. A. Montgomery, Jr., J. E. Peralta, 
 F. Ogliaro, M. J. Bearpark, J. J. Heyd, E. N. Brothers, K. N. Kudin, 
 V. N. Staroverov, T. A. Keith, R. Kobayashi, J. Normand, 
 K. Raghavachari, A. P. Rendell, J. C. Burant, S. S. Iyengar, 
 J. Tomasi, M. Cossi, J. M. Millam, M. Klene, C. Adamo, R. Cammi, 
 J. W. Ochterski, R. L. Martin, K. Morokuma, O. Farkas, 
 J. B. Foresman, and D. J. Fox, Gaussian, Inc., Wallingford CT, 2016.
 
 ******************************************
 Gaussian 16:  ES64L-G16RevB.01 20-Dec-2017
                13-Oct-2024 
 ******************************************
 %NProcShared=26
 Will use up to   26 processors via shared memory.
 %MEM=20GB
 %chk=CHKfiles/0073.chk
 ---------------------------------------------------------------------
 #p b3lyp 6-31++g(d,p) scf=verytight NoSymm freq=noraman int=ultrafine
 ---------------------------------------------------------------------
 1/10=4,30=1,38=1/1,3;
 2/12=2,15=1,17=6,18=5,40=1/2;
 3/5=1,6=6,7=1111,11=2,25=1,30=1,71=2,74=-5,75=-5,140=1/1,2,3;
 4//1;
 5/5=2,17=3,38=5,98=1/2;
 8/6=4,10=90,11=11/1;
 11/6=1,8=1,9=11,15=111,16=1,31=1/1,2,10;
 10/6=1,31=1/2;
 6/7=2,8=2,9=2,10=2,28=1/1;
 7/8=1,10=1,25=1,30=1/1,2,3,16;
 1/10=4,30=1/3;
 99//99;
 Leave Link    1 at Sun Oct 13 09:49:34 2024, MaxMem=  2684354560 cpu:               1.5 elap:               0.1
 (Enter /usr/local/g16_AVX//g16/l101.exe)
 -------------------------
 RxCoord=-2.79936 DE=29.47
 -------------------------
 Symbolic Z-matrix:
 Charge = -1 Multiplicity = 1
 C                     0.39421   0.00001  -0.00024 
 Cl                   -2.25174  0.         0.00011 
 H                     0.13923   0.00245  -1.05234 
 H                     0.1393    0.90993   0.52792 
 H                     0.13929  -0.91237   0.52368 
 C                     2.19457   0.       -0.00019 
 N                     3.37457  -0.00001   0.00015 
 
 ITRead=  0  0  0  0  0  0  0
 MicOpt= -1 -1 -1 -1 -1 -1 -1
 NAtoms=      7 NQM=        7 NQMF=       0 NMMI=      0 NMMIF=      0
                NMic=       0 NMicF=      0.
                    Isotopes and Nuclear Properties:
 (Nuclear quadrupole moments (NQMom) in fm**2, nuclear magnetic moments (NMagM)
  in nuclear magnetons)

  Atom         1           2           3           4           5           6           7
 IAtWgt=          12          35           1           1           1          12          14
 AtmWgt=  12.0000000  34.9688527   1.0078250   1.0078250   1.0078250  12.0000000  14.0030740
 NucSpn=           0           3           1           1           1           0           2
 AtZEff=  -0.0000000  -0.0000000  -0.0000000  -0.0000000  -0.0000000  -0.0000000  -0.0000000
 NQMom=    0.0000000  -8.1650000   0.0000000   0.0000000   0.0000000   0.0000000   2.0440000
 NMagM=    0.0000000   0.8218740   2.7928460   2.7928460   2.7928460   0.0000000   0.4037610
 AtZNuc=   6.0000000  17.0000000   1.0000000   1.0000000   1.0000000   6.0000000   7.0000000
 Leave Link  101 at Sun Oct 13 09:49:34 2024, MaxMem=  2684354560 cpu:               2.9 elap:               0.2
 (Enter /usr/local/g16_AVX//g16/l103.exe)

 GradGradGradGradGradGradGradGradGradGradGradGradGradGradGradGradGradGrad
 Berny optimization.
 Initialization pass.
 Trust Radius=3.00D-01 FncErr=1.00D-07 GrdErr=1.00D-07 EigMax=2.50D+02 EigMin=1.00D-04
 Number of steps in this run=      2 maximum allowed number of steps=      2.
 GradGradGradGradGradGradGradGradGradGradGradGradGradGradGradGradGradGrad

 Leave Link  103 at Sun Oct 13 09:49:34 2024, MaxMem=  2684354560 cpu:               0.5 elap:               0.0
 (Enter /usr/local/g16_AVX//g16/l202.exe)
                          Input orientation:                          
 ---------------------------------------------------------------------
 Center     Atomic      Atomic             Coordinates (Angstroms)
 Number     Number       Type             X           Y           Z
 ---------------------------------------------------------------------
      1          6           0        0.394206    0.000007   -0.000241
      2         17           0       -2.251742   -0.000001    0.000109
      3          1           0        0.139230    0.002447   -1.052342
      4          1           0        0.139303    0.909934    0.527921
      5          1           0        0.139289   -0.912365    0.523681
      6          6           0        2.194575    0.000003   -0.000193
      7          7           0        3.374572   -0.000006    0.000153
 ---------------------------------------------------------------------
                    Distance matrix (angstroms):
                    1          2          3          4          5
     1  C    0.000000
     2  Cl   2.645948   0.000000
     3  H    1.082560   2.612356   0.000000
     4  H    1.082542   2.612214   1.822296   0.000000
     5  H    1.082543   2.612195   1.822287   1.822304   0.000000
     6  C    1.800369   4.446317   2.308997   2.308901   2.308909
     7  N    2.980366   5.626314   3.402233   3.401984   3.401990
                    6          7
     6  C    0.000000
     7  N    1.179997   0.000000
 Symmetry turned off by external request.
 This structure is nearly, but not quite of a higher symmetry.
 Consider Symm=Loose if the higher symmetry is desired.
 Stoichiometry    C2H3ClN(1-)
 Framework group  C1[X(C2H3ClN)]
 Deg. of freedom    15
 Full point group                 C1      NOp   1
 Rotational constants (GHZ):         151.0059650           1.2692924           1.2692923
 Leave Link  202 at Sun Oct 13 09:49:34 2024, MaxMem=  2684354560 cpu:               0.2 elap:               0.0
 (Enter /usr/local/g16_AVX//g16/l301.exe)
 Standard basis: 6-31++G(d,p) (6D, 7F)
 Ernie: Thresh=  0.10000D-02 Tol=  0.10000D-05 Strict=F.
    98 basis functions,   176 primitive gaussians,    98 cartesian basis functions
    20 alpha electrons       20 beta electrons
       nuclear repulsion energy       107.9984438194 Hartrees.
 IExCor=  402 DFT=T Ex+Corr=B3LYP ExCW=0 ScaHFX=  0.200000
 ScaDFX=  0.800000  0.720000  1.000000  0.810000 ScalE2=  1.000000  1.000000
 IRadAn=      5 IRanWt=     -1 IRanGd=            0 ICorTp=0 IEmpDi=  4
 NAtoms=    7 NActive=    7 NUniq=    7 SFac= 1.00D+00 NAtFMM=   60 NAOKFM=F Big=F
 Integral buffers will be    131072 words long.
 Raffenetti 2 integral format.
 Two-electron integral symmetry is turned off.
 Leave Link  301 at Sun Oct 13 09:49:34 2024, MaxMem=  2684354560 cpu:               1.4 elap:               0.1
 (Enter /usr/local/g16_AVX//g16/l302.exe)
 NPDir=0 NMtPBC=     1 NCelOv=     1 NCel=       1 NClECP=     1 NCelD=      1
         NCelK=      1 NCelE2=     1 NClLst=     1 CellRange=     0.0.
 One-electron integrals computed using PRISM.
 NBasis=    98 RedAO= T EigKep=  3.53D-05  NBF=    98
 NBsUse=    98 1.00D-06 EigRej= -1.00D+00 NBFU=    98
 Precomputing XC quadrature grid using
 IXCGrd= 4 IRadAn=           5 IRanWt=          -1 IRanGd=           0 AccXCQ= 0.00D+00.
 Generated NRdTot=       0 NPtTot=           0 NUsed=           0 NTot=          32
 NSgBfM=    98    98    98    98    98 MxSgAt=     7 MxSgA2=     7.
 Leave Link  302 at Sun Oct 13 09:49:35 2024, MaxMem=  2684354560 cpu:               3.8 elap:               0.2
 (Enter /usr/local/g16_AVX//g16/l303.exe)
 DipDrv:  MaxL=1.
 Leave Link  303 at Sun Oct 13 09:49:35 2024, MaxMem=  2684354560 cpu:               0.8 elap:               0.1
 (Enter /usr/local/g16_AVX//g16/l401.exe)
 ExpMin= 3.60D-02 ExpMax= 2.52D+04 ExpMxC= 3.78D+03 IAcc=3 IRadAn=         5 AccDes= 0.00D+00
 Harris functional with IExCor=  402 and IRadAn=       5 diagonalized for initial guess.
 HarFok:  IExCor=  402 AccDes= 0.00D+00 IRadAn=         5 IDoV= 1 UseB2=F ITyADJ=14
 ICtDFT=  3500011 ScaDFX=  1.000000  1.000000  1.000000  1.000000
 FoFCou: FMM=F IPFlag=           0 FMFlag=      100000 FMFlg1=           0
         NFxFlg=           0 DoJE=T BraDBF=F KetDBF=T FulRan=T
         wScrn=  0.000000 ICntrl=       500 IOpCl=  0 I1Cent=   200000004 NGrid=           0
         NMat0=    1 NMatS0=      1 NMatT0=    0 NMatD0=    1 NMtDS0=    0 NMtDT0=    0
 Symmetry not used in FoFCou.
 Harris En= -593.063365033122    
 JPrj=0 DoOrth=F DoCkMO=F.
 Leave Link  401 at Sun Oct 13 09:49:35 2024, MaxMem=  2684354560 cpu:               5.9 elap:               0.3
 (Enter /usr/local/g16_AVX//g16/l502.exe)
 Keep R1 ints in memory in canonical form, NReq=35752935.
 FoFCou: FMM=F IPFlag=           0 FMFlag=           0 FMFlg1=           0
         NFxFlg=           0 DoJE=F BraDBF=F KetDBF=F FulRan=T
         wScrn=  0.000000 ICntrl=       600 IOpCl=  0 I1Cent=           0 NGrid=           0
         NMat0=    1 NMatS0=   4851 NMatT0=    0 NMatD0=    1 NMtDS0=    0 NMtDT0=    0
 Symmetry not used in FoFCou.
 Two-electron integral symmetry not used.
 Closed shell SCF:
 Using DIIS extrapolation, IDIIS=  1040.
 NGot=  2684354560 LenX=  2672563405 LenY=  2672553360
 Requested convergence on RMS density matrix=1.00D-08 within 128 cycles.
 Requested convergence on MAX density matrix=1.00D-06.
 Requested convergence on             energy=1.00D-06.
 No special actions if energy rises.

 Cycle   1  Pass 1  IDiag  1:
 E= -592.918490526060    
 DIIS: error= 2.97D-02 at cycle   1 NSaved=   1.
 NSaved= 1 IEnMin= 1 EnMin= -592.918490526060     IErMin= 1 ErrMin= 2.97D-02
 ErrMax= 2.97D-02  0.00D+00 EMaxC= 1.00D-01 BMatC= 9.94D-02 BMatP= 9.94D-02
 IDIUse=3 WtCom= 7.03D-01 WtEn= 2.97D-01
 Coeff-Com:  0.100D+01
 Coeff-En:   0.100D+01
 Coeff:      0.100D+01
 Gap=     0.211 Goal=   None    Shift=    0.000
 GapD=    0.211 DampG=1.000 DampE=0.500 DampFc=0.5000 IDamp=-1.
 Damping current iteration by 5.00D-01
 RMSDP=9.76D-03 MaxDP=1.90D-01              OVMax= 2.01D-01

 Cycle   2  Pass 1  IDiag  1:
 E= -592.941953837685     Delta-E=       -0.023463311625 Rises=F Damp=T
 DIIS: error= 1.95D-02 at cycle   2 NSaved=   2.
 NSaved= 2 IEnMin= 2 EnMin= -592.941953837685     IErMin= 2 ErrMin= 1.95D-02
 ErrMax= 1.95D-02  0.00D+00 EMaxC= 1.00D-01 BMatC= 2.51D-02 BMatP= 9.94D-02
 IDIUse=3 WtCom= 8.05D-01 WtEn= 1.95D-01
 Coeff-Com:  0.265D+00 0.735D+00
 Coeff-En:   0.377D+00 0.623D+00
 Coeff:      0.287D+00 0.713D+00
 Gap=     0.157 Goal=   None    Shift=    0.000
 RMSDP=3.40D-03 MaxDP=5.85D-02 DE=-2.35D-02 OVMax= 1.85D-01

 Cycle   3  Pass 1  IDiag  1:
 E= -593.001586494678     Delta-E=       -0.059632656993 Rises=F Damp=F
 DIIS: error= 1.81D-02 at cycle   3 NSaved=   3.
 NSaved= 3 IEnMin= 3 EnMin= -593.001586494678     IErMin= 3 ErrMin= 1.81D-02
 ErrMax= 1.81D-02  0.00D+00 EMaxC= 1.00D-01 BMatC= 2.03D-02 BMatP= 2.51D-02
 IDIUse=3 WtCom= 8.19D-01 WtEn= 1.81D-01
 Coeff-Com:  0.674D-01 0.458D+00 0.474D+00
 Coeff-En:   0.000D+00 0.000D+00 0.100D+01
 Coeff:      0.552D-01 0.375D+00 0.569D+00
 Gap=     0.181 Goal=   None    Shift=    0.000
 RMSDP=2.94D-03 MaxDP=5.45D-02 DE=-5.96D-02 OVMax= 7.66D-02

 Cycle   4  Pass 1  IDiag  1:
 E= -593.013416812498     Delta-E=       -0.011830317820 Rises=F Damp=F
 DIIS: error= 1.28D-02 at cycle   4 NSaved=   4.
 NSaved= 4 IEnMin= 4 EnMin= -593.013416812498     IErMin= 4 ErrMin= 1.28D-02
 ErrMax= 1.28D-02  0.00D+00 EMaxC= 1.00D-01 BMatC= 8.79D-03 BMatP= 2.03D-02
 IDIUse=3 WtCom= 8.72D-01 WtEn= 1.28D-01
 Coeff-Com:  0.327D-01 0.379D-01 0.377D+00 0.553D+00
 Coeff-En:   0.000D+00 0.000D+00 0.336D+00 0.664D+00
 Coeff:      0.285D-01 0.331D-01 0.372D+00 0.567D+00
 Gap=     0.172 Goal=   None    Shift=    0.000
 RMSDP=1.09D-03 MaxDP=1.78D-02 DE=-1.18D-02 OVMax= 3.14D-02

 Cycle   5  Pass 1  IDiag  1:
 E= -593.021322542028     Delta-E=       -0.007905729530 Rises=F Damp=F
 DIIS: error= 1.17D-03 at cycle   5 NSaved=   5.
 NSaved= 5 IEnMin= 5 EnMin= -593.021322542028     IErMin= 5 ErrMin= 1.17D-03
 ErrMax= 1.17D-03  0.00D+00 EMaxC= 1.00D-01 BMatC= 1.37D-04 BMatP= 8.79D-03
 IDIUse=3 WtCom= 9.88D-01 WtEn= 1.17D-02
 Coeff-Com:  0.101D-01-0.891D-02 0.156D+00 0.288D+00 0.555D+00
 Coeff-En:   0.000D+00 0.000D+00 0.000D+00 0.000D+00 0.100D+01
 Coeff:      0.100D-01-0.880D-02 0.154D+00 0.284D+00 0.560D+00
 Gap=     0.174 Goal=   None    Shift=    0.000
 RMSDP=2.28D-04 MaxDP=4.33D-03 DE=-7.91D-03 OVMax= 4.32D-03

 Cycle   6  Pass 1  IDiag  1:
 E= -593.021472370202     Delta-E=       -0.000149828174 Rises=F Damp=F
 DIIS: error= 1.57D-04 at cycle   6 NSaved=   6.
 NSaved= 6 IEnMin= 6 EnMin= -593.021472370202     IErMin= 6 ErrMin= 1.57D-04
 ErrMax= 1.57D-04  0.00D+00 EMaxC= 1.00D-01 BMatC= 3.09D-06 BMatP= 1.37D-04
 IDIUse=3 WtCom= 9.98D-01 WtEn= 1.57D-03
 Coeff-Com:  0.188D-02-0.399D-02 0.294D-01 0.571D-01 0.198D+00 0.718D+00
 Coeff-En:   0.000D+00 0.000D+00 0.000D+00 0.000D+00 0.000D+00 0.100D+01
 Coeff:      0.187D-02-0.398D-02 0.294D-01 0.570D-01 0.197D+00 0.718D+00
 Gap=     0.173 Goal=   None    Shift=    0.000
 RMSDP=9.38D-05 MaxDP=2.94D-03 DE=-1.50D-04 OVMax= 7.37D-04

 Cycle   7  Pass 1  IDiag  1:
 E= -593.021476109984     Delta-E=       -0.000003739782 Rises=F Damp=F
 DIIS: error= 1.86D-05 at cycle   7 NSaved=   7.
 NSaved= 7 IEnMin= 7 EnMin= -593.021476109984     IErMin= 7 ErrMin= 1.86D-05
 ErrMax= 1.86D-05  0.00D+00 EMaxC= 1.00D-01 BMatC= 4.54D-08 BMatP= 3.09D-06
 IDIUse=1 WtCom= 1.00D+00 WtEn= 0.00D+00
 Coeff-Com:  0.160D-03-0.733D-03 0.193D-02 0.381D-02 0.307D-01 0.175D+00
 Coeff-Com:  0.790D+00
 Coeff:      0.160D-03-0.733D-03 0.193D-02 0.381D-02 0.307D-01 0.175D+00
 Coeff:      0.790D+00
 Gap=     0.174 Goal=   None    Shift=    0.000
 RMSDP=6.79D-06 MaxDP=1.69D-04 DE=-3.74D-06 OVMax= 1.35D-04

 Cycle   8  Pass 1  IDiag  1:
 E= -593.021476145475     Delta-E=       -0.000000035491 Rises=F Damp=F
 DIIS: error= 9.19D-06 at cycle   8 NSaved=   8.
 NSaved= 8 IEnMin= 8 EnMin= -593.021476145475     IErMin= 8 ErrMin= 9.19D-06
 ErrMax= 9.19D-06  0.00D+00 EMaxC= 1.00D-01 BMatC= 1.48D-08 BMatP= 4.54D-08
 IDIUse=1 WtCom= 1.00D+00 WtEn= 0.00D+00
 Coeff-Com: -0.857D-05-0.143D-03-0.878D-03-0.163D-02 0.378D-02 0.495D-01
 Coeff-Com:  0.433D+00 0.517D+00
 Coeff:     -0.857D-05-0.143D-03-0.878D-03-0.163D-02 0.378D-02 0.495D-01
 Coeff:      0.433D+00 0.517D+00
 Gap=     0.174 Goal=   None    Shift=    0.000
 RMSDP=2.03D-06 MaxDP=4.98D-05 DE=-3.55D-08 OVMax= 4.20D-05

 Cycle   9  Pass 1  IDiag  1:
 E= -593.021476162553     Delta-E=       -0.000000017078 Rises=F Damp=F
 DIIS: error= 9.05D-07 at cycle   9 NSaved=   9.
 NSaved= 9 IEnMin= 9 EnMin= -593.021476162553     IErMin= 9 ErrMin= 9.05D-07
 ErrMax= 9.05D-07  0.00D+00 EMaxC= 1.00D-01 BMatC= 1.20D-10 BMatP= 1.48D-08
 IDIUse=1 WtCom= 1.00D+00 WtEn= 0.00D+00
 Coeff-Com: -0.190D-05 0.567D-06-0.233D-03-0.364D-03-0.110D-02-0.117D-02
 Coeff-Com:  0.241D-01 0.769D-01 0.902D+00
 Coeff:     -0.190D-05 0.567D-06-0.233D-03-0.364D-03-0.110D-02-0.117D-02
 Coeff:      0.241D-01 0.769D-01 0.902D+00
 Gap=     0.174 Goal=   None    Shift=    0.000
 RMSDP=1.02D-06 MaxDP=2.98D-05 DE=-1.71D-08 OVMax= 6.33D-06

 Cycle  10  Pass 1  IDiag  1:
 E= -593.021476162715     Delta-E=       -0.000000000163 Rises=F Damp=F
 DIIS: error= 3.80D-07 at cycle  10 NSaved=  10.
 NSaved=10 IEnMin=10 EnMin= -593.021476162715     IErMin=10 ErrMin= 3.80D-07
 ErrMax= 3.80D-07  0.00D+00 EMaxC= 1.00D-01 BMatC= 4.87D-12 BMatP= 1.20D-10
 IDIUse=1 WtCom= 1.00D+00 WtEn= 0.00D+00
 Coeff-Com: -0.280D-06 0.217D-05-0.494D-04-0.727D-04-0.430D-03-0.167D-02
 Coeff-Com: -0.375D-02 0.112D-01 0.273D+00 0.722D+00
 Coeff:     -0.280D-06 0.217D-05-0.494D-04-0.727D-04-0.430D-03-0.167D-02
 Coeff:     -0.375D-02 0.112D-01 0.273D+00 0.722D+00
 Gap=     0.174 Goal=   None    Shift=    0.000
 RMSDP=1.08D-07 MaxDP=2.54D-06 DE=-1.63D-10 OVMax= 9.48D-07

 Cycle  11  Pass 1  IDiag  1:
 E= -593.021476162721     Delta-E=       -0.000000000005 Rises=F Damp=F
 DIIS: error= 4.82D-08 at cycle  11 NSaved=  11.
 NSaved=11 IEnMin=11 EnMin= -593.021476162721     IErMin=11 ErrMin= 4.82D-08
 ErrMax= 4.82D-08  0.00D+00 EMaxC= 1.00D-01 BMatC= 1.39D-13 BMatP= 4.87D-12
 IDIUse=1 WtCom= 1.00D+00 WtEn= 0.00D+00
 Coeff-Com: -0.310D-06 0.788D-06 0.104D-06-0.208D-05-0.334D-04-0.301D-03
 Coeff-Com: -0.180D-02-0.184D-02 0.176D-02 0.120D+00 0.882D+00
 Coeff:     -0.310D-06 0.788D-06 0.104D-06-0.208D-05-0.334D-04-0.301D-03
 Coeff:     -0.180D-02-0.184D-02 0.176D-02 0.120D+00 0.882D+00
 Gap=     0.174 Goal=   None    Shift=    0.000
 RMSDP=3.43D-08 MaxDP=1.01D-06 DE=-5.46D-12 OVMax= 1.74D-07

 Cycle  12  Pass 1  IDiag  1:
 E= -593.021476162722     Delta-E=       -0.000000000001 Rises=F Damp=F
 DIIS: error= 7.07D-09 at cycle  12 NSaved=  12.
 NSaved=12 IEnMin=12 EnMin= -593.021476162722     IErMin=12 ErrMin= 7.07D-09
 ErrMax= 7.07D-09  0.00D+00 EMaxC= 1.00D-01 BMatC= 2.82D-15 BMatP= 1.39D-13
 IDIUse=1 WtCom= 1.00D+00 WtEn= 0.00D+00
 Coeff-Com: -0.611D-07 0.728D-07 0.633D-06 0.939D-06 0.452D-05 0.156D-04
 Coeff-Com:  0.241D-04-0.344D-03-0.376D-02-0.143D-03 0.571D-01 0.947D+00
 Coeff:     -0.611D-07 0.728D-07 0.633D-06 0.939D-06 0.452D-05 0.156D-04
 Coeff:      0.241D-04-0.344D-03-0.376D-02-0.143D-03 0.571D-01 0.947D+00
 Gap=     0.174 Goal=   None    Shift=    0.000
 RMSDP=2.44D-09 MaxDP=6.16D-08 DE=-1.14D-12 OVMax= 2.25D-08

 SCF Done:  E(RB3LYP) =  -593.021476163     A.U. after   12 cycles
            NFock= 12  Conv=0.24D-08     -V/T= 2.0050
 KE= 5.900715761430D+02 PE=-1.626295484313D+03 EE= 3.352039881878D+02
 Leave Link  502 at Sun Oct 13 09:49:37 2024, MaxMem=  2684354560 cpu:              36.2 elap:               1.7
 (Enter /usr/local/g16_AVX//g16/l801.exe)
 DoSCS=F DFT=T ScalE2(SS,OS)=  1.000000  1.000000
 Range of M.O.s used for correlation:     1    98
 NBasis=    98 NAE=    20 NBE=    20 NFC=     0 NFV=     0
 NROrb=     98 NOA=    20 NOB=    20 NVA=    78 NVB=    78

 **** Warning!!: The largest alpha MO coefficient is  0.86958764D+02

 Leave Link  801 at Sun Oct 13 09:49:37 2024, MaxMem=  2684354560 cpu:               0.7 elap:               0.1
 (Enter /usr/local/g16_AVX//g16/l1101.exe)
 Using compressed storage, NAtomX=     7.
 Will process      8 centers per pass.
 Leave Link 1101 at Sun Oct 13 09:49:37 2024, MaxMem=  2684354560 cpu:               3.4 elap:               0.2
 (Enter /usr/local/g16_AVX//g16/l1102.exe)
 Symmetrizing basis deriv contribution to polar:
 IMax=3 JMax=2 DiffMx= 0.00D+00
 Leave Link 1102 at Sun Oct 13 09:49:37 2024, MaxMem=  2684354560 cpu:               0.8 elap:               0.1
 (Enter /usr/local/g16_AVX//g16/l1110.exe)
 Forming Gx(P) for the SCF density, NAtomX=     7.
 Integral derivatives from FoFJK, PRISM(SPDF).
 Do as many integral derivatives as possible in FoFJK.
 G2DrvN: MDV=    2684353864.
 G2DrvN: will do     8 centers at a time, making    1 passes.
 Calling FoFCou, ICntrl=  3107 FMM=F I1Cent=   0 AccDes= 0.00D+00.
 FoFJK:  IHMeth= 1 ICntrl=    3107 DoSepK=F KAlg= 0 I1Cent=           0 FoldK=F
 IRaf=         0 NMat=       1 IRICut=       1 DoRegI=T DoRafI=F ISym2E= 0 IDoP0=0 IntGTp=1.
 FoFCou: FMM=F IPFlag=           0 FMFlag=      100000 FMFlg1=           0
         NFxFlg=           0 DoJE=F BraDBF=F KetDBF=F FulRan=T
         wScrn=  0.000000 ICntrl=      3107 IOpCl=  0 I1Cent=           0 NGrid=           0
         NMat0=    1 NMatS0=      1 NMatT0=    0 NMatD0=    1 NMtDS0=    0 NMtDT0=    0
 Symmetry not used in FoFCou.
 End of G2Drv F.D. properties file   721 does not exist.
 End of G2Drv F.D. properties file   722 does not exist.
 End of G2Drv F.D. properties file   788 does not exist.
 Leave Link 1110 at Sun Oct 13 09:49:39 2024, MaxMem=  2684354560 cpu:              39.4 elap:               1.6
 (Enter /usr/local/g16_AVX//g16/l1002.exe)
 Minotr:  Closed shell wavefunction.
          IDoAtm=1111111
          Direct CPHF calculation.
          Differentiating once with respect to electric field.
                with respect to dipole field.
          Differentiating once with respect to nuclear coordinates.
          Requested convergence is 1.0D-08 RMS, and 1.0D-07 maximum.
          Secondary convergence is 1.0D-12 RMS, and 1.0D-12 maximum.
          NewPWx=T KeepS1=F KeepF1=F KeepIn=T MapXYZ=F SortEE=F KeepMc=T.
         2129 words used for storage of precomputed grid.
 Keep R1 ints in memory in canonical form, NReq=35668390.
 FoFCou: FMM=F IPFlag=           0 FMFlag=           0 FMFlg1=           0
         NFxFlg=           0 DoJE=F BraDBF=F KetDBF=F FulRan=T
         wScrn=  0.000000 ICntrl=       600 IOpCl=  0 I1Cent=           0 NGrid=           0
         NMat0=    1 NMatS0=   4851 NMatT0=    0 NMatD0=    1 NMtDS0=    0 NMtDT0=    0
 Symmetry not used in FoFCou.
 Two-electron integral symmetry not used.
          MDV=    2684354560 using IRadAn=       1.
          Solving linear equations simultaneously, MaxMat=       0.
          There are    24 degrees of freedom in the 1st order CPHF.  IDoFFX=6 NUNeed=     3.
     21 vectors produced by pass  0 Test12= 6.50D-15 4.17D-09 XBig12= 9.62D+01 6.20D+00.
 AX will form    21 AO Fock derivatives at one time.
     21 vectors produced by pass  1 Test12= 6.50D-15 4.17D-09 XBig12= 5.14D+01 2.96D+00.
     21 vectors produced by pass  2 Test12= 6.50D-15 4.17D-09 XBig12= 3.03D+00 5.06D-01.
     21 vectors produced by pass  3 Test12= 6.50D-15 4.17D-09 XBig12= 2.59D-02 3.48D-02.
     21 vectors produced by pass  4 Test12= 6.50D-15 4.17D-09 XBig12= 6.43D-05 2.03D-03.
     20 vectors produced by pass  5 Test12= 6.50D-15 4.17D-09 XBig12= 1.04D-07 7.01D-05.
      5 vectors produced by pass  6 Test12= 6.50D-15 4.17D-09 XBig12= 1.76D-10 3.37D-06.
      1 vectors produced by pass  7 Test12= 6.50D-15 4.17D-09 XBig12= 2.54D-13 1.61D-07.
      1 vectors produced by pass  8 Test12= 6.50D-15 4.17D-09 XBig12= 3.75D-16 6.10D-09.
 InvSVY:  IOpt=1 It=  1 EMax= 3.26D-15
 Solved reduced A of dimension   132 with    24 vectors.
 FullF1:  Do perturbations      1 to       3.
 Isotropic polarizability for W=    0.000000       60.42 Bohr**3.
 End of Minotr F.D. properties file   721 does not exist.
 End of Minotr F.D. properties file   722 does not exist.
 End of Minotr F.D. properties file   788 does not exist.
 Leave Link 1002 at Sun Oct 13 09:49:41 2024, MaxMem=  2684354560 cpu:              56.9 elap:               2.3
 (Enter /usr/local/g16_AVX//g16/l601.exe)
 Copying SCF densities to generalized density rwf, IOpCl= 0 IROHF=0.

 **********************************************************************

            Population analysis using the SCF Density.

 **********************************************************************

 Alpha  occ. eigenvalues -- -101.26788 -14.20964 -10.10641 -10.10205  -9.18241
 Alpha  occ. eigenvalues --   -6.94035  -6.93995  -6.93995  -0.76242  -0.58908
 Alpha  occ. eigenvalues --   -0.52120  -0.32105  -0.30430  -0.30429  -0.22831
 Alpha  occ. eigenvalues --   -0.20135  -0.20135  -0.06784  -0.06784  -0.06612
 Alpha virt. eigenvalues --    0.10740   0.14665   0.14665   0.14742   0.15988
 Alpha virt. eigenvalues --    0.15989   0.18285   0.20599   0.21203   0.21203
 Alpha virt. eigenvalues --    0.23720   0.23976   0.23976   0.25947   0.25947
 Alpha virt. eigenvalues --    0.26073   0.31235   0.34113   0.34114   0.34722
 Alpha virt. eigenvalues --    0.34723   0.35174   0.39096   0.42848   0.47506
 Alpha virt. eigenvalues --    0.72999   0.78874   0.78875   0.82774   0.82774
 Alpha virt. eigenvalues --    0.83528   0.85890   0.85890   0.88681   0.97411
 Alpha virt. eigenvalues --    0.99492   1.04627   1.04627   1.12218   1.12219
 Alpha virt. eigenvalues --    1.12502   1.13921   1.13922   1.16483   1.16485
 Alpha virt. eigenvalues --    1.24660   1.24765   1.37205   1.51660   1.53412
 Alpha virt. eigenvalues --    1.53413   1.66593   1.66593   1.76803   1.76803
 Alpha virt. eigenvalues --    1.84001   2.08531   2.08531   2.08624   2.13918
 Alpha virt. eigenvalues --    2.19398   2.19400   2.49314   2.49314   2.74223
 Alpha virt. eigenvalues --    2.77767   2.77768   2.90955   2.96507   2.96509
 Alpha virt. eigenvalues --    3.19287   3.45477   3.55705   3.55706   4.19684
 Alpha virt. eigenvalues --    4.38111   4.57000   4.64754
          Condensed to atoms (all electrons):
               1          2          3          4          5          6
     1  C    5.509602  -0.136648   0.429978   0.429908   0.429908  -0.501230
     2  Cl  -0.136648  17.959113  -0.029488  -0.029514  -0.029514   0.091962
     3  H    0.429978  -0.029488   0.482820  -0.020228  -0.020230  -0.056704
     4  H    0.429908  -0.029514  -0.020228   0.482787  -0.020224  -0.056579
     5  H    0.429908  -0.029514  -0.020230  -0.020224   0.482784  -0.056576
     6  C   -0.501230   0.091962  -0.056704  -0.056579  -0.056576   6.152012
     7  N   -0.078035   0.001616  -0.004542  -0.004554  -0.004554   0.628296
               7
     1  C   -0.078035
     2  Cl   0.001616
     3  H   -0.004542
     4  H   -0.004554
     5  H   -0.004554
     6  C    0.628296
     7  N    7.004784
 Mulliken charges:
               1
     1  C   -0.083483
     2  Cl  -0.827528
     3  H    0.218394
     4  H    0.218404
     5  H    0.218406
     6  C   -0.201182
     7  N   -0.543012
 Sum of Mulliken charges =  -1.00000
 Mulliken charges with hydrogens summed into heavy atoms:
               1
     1  C    0.571722
     2  Cl  -0.827528
     6  C   -0.201182
     7  N   -0.543012
 APT charges:
               1
     1  C    0.749110
     2  Cl  -1.036925
     3  H    0.032290
     4  H    0.032295
     5  H    0.032299
     6  C   -0.297119
     7  N   -0.511950
 Sum of APT charges =  -1.00000
 APT charges with hydrogens summed into heavy atoms:
               1
     1  C    0.845994
     2  Cl  -1.036925
     6  C   -0.297119
     7  N   -0.511950
 Electronic spatial extent (au):  <R**2>=            827.0425
 Charge=             -1.0000 electrons
 Dipole moment (field-independent basis, Debye):
    X=              3.2406    Y=              0.0000    Z=             -0.0010  Tot=              3.2406
 Quadrupole moment (field-independent basis, Debye-Ang):
   XX=            -85.0866   YY=            -35.4540   ZZ=            -35.4541
   XY=              0.0000   XZ=              0.0000   YZ=              0.0000
 Traceless Quadrupole moment (field-independent basis, Debye-Ang):
   XX=            -33.0884   YY=             16.5443   ZZ=             16.5441
   XY=              0.0000   XZ=              0.0000   YZ=              0.0000
 Octapole moment (field-independent basis, Debye-Ang**2):
  XXX=            -37.3891  YYY=             -0.0067  ZZZ=             -0.9670  XYY=              1.3662
  XXY=              0.0002  XXZ=             -0.0067  XZZ=              1.3662  YZZ=              0.0067
  YYZ=              0.9667  XYZ=              0.0000
 Hexadecapole moment (field-independent basis, Debye-Ang**3):
 XXXX=          -1639.9144 YYYY=            -57.0966 ZZZZ=            -57.0961 XXXY=              0.0007
 XXXZ=             -0.0009 YYYX=             -0.0003 YYYZ=              0.0000 ZZZX=             -0.0398
 ZZZY=             -0.0000 XXYY=           -209.4978 XXZZ=           -209.4979 YYZZ=            -19.0327
 XXYZ=             -0.0000 YYXZ=              0.0560 ZZXY=              0.0004
 N-N= 1.079984438194D+02 E-N=-1.626295484026D+03  KE= 5.900715761430D+02
  Exact polarizability: 100.142  -0.000  40.564   0.001   0.000  40.565
 Approx polarizability: 121.448  -0.000  50.106   0.005   0.000  50.106
 No NMR shielding tensors so no spin-rotation constants.
 Leave Link  601 at Sun Oct 13 09:49:41 2024, MaxMem=  2684354560 cpu:               2.7 elap:               0.1
 (Enter /usr/local/g16_AVX//g16/l701.exe)
 ... and contract with generalized density number  0.
 Compute integral second derivatives.
 Leave Link  701 at Sun Oct 13 09:49:41 2024, MaxMem=  2684354560 cpu:               4.5 elap:               0.2
 (Enter /usr/local/g16_AVX//g16/l702.exe)
 L702 exits ... SP integral derivatives will be done elsewhere.
 Leave Link  702 at Sun Oct 13 09:49:41 2024, MaxMem=  2684354560 cpu:               0.5 elap:               0.0
 (Enter /usr/local/g16_AVX//g16/l703.exe)
 Integral derivatives from FoFJK, PRISM(SPDF).
 Compute integral second derivatives, UseDBF=F ICtDFT=           0.
 Calling FoFJK, ICntrl=    100127 FMM=F ISym2X=0 I1Cent= 0 IOpClX= 0 NMat=1 NMatS=1 NMatT=0.
 FoFJK:  IHMeth= 1 ICntrl=  100127 DoSepK=F KAlg= 0 I1Cent=           0 FoldK=F
 IRaf=         0 NMat=       1 IRICut=       1 DoRegI=T DoRafI=F ISym2E= 0 IDoP0=0 IntGTp=1.
 FoFCou: FMM=F IPFlag=           0 FMFlag=      100000 FMFlg1=         800
         NFxFlg=           0 DoJE=F BraDBF=F KetDBF=F FulRan=T
         wScrn=  0.000000 ICntrl=    100127 IOpCl=  0 I1Cent=           0 NGrid=           0
         NMat0=    1 NMatS0=      1 NMatT0=    0 NMatD0=    1 NMtDS0=    0 NMtDT0=    0
 Symmetry not used in FoFCou.
 Leave Link  703 at Sun Oct 13 09:49:44 2024, MaxMem=  2684354560 cpu:              68.3 elap:               2.7
 (Enter /usr/local/g16_AVX//g16/l716.exe)
 Dipole        = 1.27495151D+00 7.93068780D-06-4.01201340D-04
 Polarizability= 1.00141945D+02-4.37778995D-05 4.05642610D+01
                 1.29112571D-03 7.31777515D-06 4.05648750D+01
 Full mass-weighted force constant matrix:
 Low frequencies --- -315.9125  -49.0416  -48.9293    0.0031    0.0032    0.0038
 Low frequencies ---  154.2997  181.9160  181.9481
 ******    1 imaginary frequencies (negative Signs) ****** 
 Diagonal vibrational polarizability:
      133.4104650      20.4275617      20.4419586
 Harmonic frequencies (cm**-1), IR intensities (KM/Mole), Raman scattering
 activities (A**4/AMU), depolarization ratios for plane and unpolarized
 incident light, reduced masses (AMU), force constants (mDyne/A),
 and normal coordinates:
                      1                      2                      3
                      A                      A                      A
 Frequencies --   -315.9125               167.7207               167.7771
 Red. masses --     10.5326                 4.9422                 4.9430
 Frc consts  --      0.6193                 0.0819                 0.0820
 IR Inten    --    442.8914                21.2486                21.2477
  Atom  AN      X      Y      Z        X      Y      Z        X      Y      Z
     1   6     0.78   0.00  -0.00     0.00   0.01   0.44     0.00   0.44  -0.01
     2  17    -0.03  -0.00   0.00    -0.00  -0.00  -0.11    -0.00  -0.11   0.00
     3   1     0.20  -0.00   0.11    -0.12   0.02   0.47     0.00   0.47  -0.02
     4   1     0.20  -0.10  -0.06     0.07   0.02   0.47     0.11   0.47  -0.01
     5   1     0.20   0.10  -0.06     0.06   0.01   0.47    -0.11   0.47  -0.02
     6   6    -0.34  -0.00   0.00    -0.00   0.00   0.13     0.00   0.13  -0.00
     7   7    -0.34   0.00  -0.00     0.00  -0.01  -0.31     0.00  -0.31   0.01
                      4                      5                      6
                      A                      A                      A
 Frequencies --    235.3175               425.3436               425.3659
 Red. masses --     15.4246                 4.0890                 4.0889
 Frc consts  --      0.5032                 0.4359                 0.4359
 IR Inten    --     28.3115                 0.1138                 0.1140
  Atom  AN      X      Y      Z        X      Y      Z        X      Y      Z
     1   6    -0.36   0.00   0.00    -0.00   0.00  -0.18     0.00  -0.18  -0.00
     2  17     0.49  -0.00  -0.00     0.00  -0.00   0.02    -0.00   0.02   0.00
     3   1    -0.27   0.00  -0.01     0.53   0.01  -0.32     0.01  -0.32  -0.01
     4   1    -0.27   0.01   0.01    -0.25   0.01  -0.32    -0.46  -0.32  -0.01
     5   1    -0.27  -0.01   0.01    -0.27   0.01  -0.32     0.45  -0.32  -0.01
     6   6    -0.45   0.00  -0.00    -0.00  -0.01   0.44     0.00   0.44   0.01
     7   7    -0.46  -0.00  -0.00     0.00   0.01  -0.21     0.00  -0.21  -0.01
                      7                      8                      9
                      A                      A                      A
 Frequencies --   1005.5967              1005.6098              1192.3806
 Red. masses --      1.2285                 1.2284                 1.0686
 Frc consts  --      0.7319                 0.7319                 0.8952
 IR Inten    --      0.0191                 0.0192                11.5782
  Atom  AN      X      Y      Z        X      Y      Z        X      Y      Z
     1   6    -0.00  -0.05   0.10     0.00  -0.10  -0.05    -0.06   0.00  -0.00
     2  17     0.00  -0.00   0.00    -0.00  -0.00  -0.00    -0.01   0.00   0.00
     3   1     0.70   0.09  -0.07    -0.34   0.19   0.04     0.56   0.00  -0.14
     4   1    -0.05   0.10  -0.18     0.78   0.08   0.03     0.56   0.12   0.07
     5   1    -0.65  -0.00  -0.13    -0.43   0.12   0.13     0.56  -0.12   0.07
     6   6     0.00   0.04  -0.08    -0.00   0.08   0.04    -0.02  -0.00   0.00
     7   7    -0.00  -0.01   0.01     0.00  -0.01  -0.01    -0.04   0.00  -0.00
                     10                     11                     12
                      A                      A                      A
 Frequencies --   1430.4896              1430.5042              2150.1299
 Red. masses --      1.0677                 1.0677                12.4647
 Frc consts  --      1.2873                 1.2873                33.9518
 IR Inten    --      7.1524                 7.1555                 0.5131
  Atom  AN      X      Y      Z        X      Y      Z        X      Y      Z
     1   6    -0.00   0.01  -0.07    -0.00  -0.07  -0.01     0.01   0.00  -0.00
     2  17     0.00  -0.00   0.00     0.00   0.00   0.00    -0.00  -0.00   0.00
     3   1     0.26  -0.09  -0.12     0.03   0.76  -0.01    -0.09  -0.00   0.04
     4   1    -0.10  -0.39   0.58    -0.24   0.06  -0.31    -0.09  -0.04  -0.02
     5   1    -0.16   0.36   0.49     0.21   0.14   0.44    -0.09   0.04  -0.02
     6   6     0.00   0.00  -0.01     0.00  -0.01  -0.00     0.75  -0.00   0.00
     7   7    -0.00  -0.00   0.00     0.00   0.00   0.00    -0.63   0.00  -0.00
                     13                     14                     15
                      A                      A                      A
 Frequencies --   3147.3063              3299.8164              3299.8843
 Red. masses --      1.0170                 1.1165                 1.1165
 Frc consts  --      5.9356                 7.1628                 7.1632
 IR Inten    --      1.4232                 1.1075                 1.1095
  Atom  AN      X      Y      Z        X      Y      Z        X      Y      Z
     1   6    -0.03  -0.00  -0.00     0.00   0.01  -0.10     0.00  -0.10  -0.01
     2  17    -0.00  -0.00  -0.00     0.00  -0.00   0.00     0.00   0.00   0.00
     3   1     0.12  -0.00   0.56     0.19  -0.00   0.79     0.01  -0.02   0.05
     4   1     0.12  -0.49  -0.28    -0.08   0.31   0.16    -0.17   0.61   0.36
     5   1     0.12   0.49  -0.28    -0.10  -0.39   0.20     0.16   0.57  -0.34
     6   6    -0.00   0.00  -0.00     0.00  -0.00   0.00     0.00   0.00   0.00
     7   7     0.00  -0.00  -0.00    -0.00   0.00  -0.00    -0.00  -0.00  -0.00

 -------------------
 - Thermochemistry -
 -------------------
 Temperature   298.150 Kelvin.  Pressure   1.00000 Atm.
 Atom     1 has atomic number  6 and mass  12.00000
 Atom     2 has atomic number 17 and mass  34.96885
 Atom     3 has atomic number  1 and mass   1.00783
 Atom     4 has atomic number  1 and mass   1.00783
 Atom     5 has atomic number  1 and mass   1.00783
 Atom     6 has atomic number  6 and mass  12.00000
 Atom     7 has atomic number  7 and mass  14.00307
 Molecular mass:    75.99540 amu.
 Principal axes and moments of inertia in atomic units:
                           1         2         3
     Eigenvalues --    11.951461421.848221421.84835
           X            1.00000   0.00001   0.00002
           Y           -0.00000   0.95279  -0.30364
           Z           -0.00002   0.30364   0.95279
 This molecule is an asymmetric top.
 Rotational symmetry number  1.
 Rotational temperatures (Kelvin)      7.24714     0.06092     0.06092
 Rotational constants (GHZ):         151.00596     1.26929     1.26929
    1 imaginary frequencies ignored.
 Zero-point vibrational energy     115937.5 (Joules/Mol)
                                   27.70974 (Kcal/Mol)
 Warning -- explicit consideration of   5 degrees of freedom as
           vibrations may cause significant error
 Vibrational temperatures:    241.31   241.39   338.57   611.97   612.01
          (Kelvin)           1446.83  1446.85  1715.57  2058.16  2058.18
                             3093.56  4528.27  4747.70  4747.80
 
 Zero-point correction=                           0.044158 (Hartree/Particle)
 Thermal correction to Energy=                    0.049398
 Thermal correction to Enthalpy=                  0.050342
 Thermal correction to Gibbs Free Energy=         0.015962
 Sum of electronic and zero-point Energies=           -592.977318
 Sum of electronic and thermal Energies=              -592.972078
 Sum of electronic and thermal Enthalpies=            -592.971134
 Sum of electronic and thermal Free Energies=         -593.005514
 
                     E (Thermal)             CV                S
                      KCal/Mol        Cal/Mol-Kelvin    Cal/Mol-Kelvin
 Total                   30.998             15.493             72.359
 Electronic               0.000              0.000              0.000
 Translational            0.889              2.981             38.900
 Rotational               0.889              2.981             24.694
 Vibrational             29.220              9.531              8.765
 Vibration     1          0.624              1.882              2.461
 Vibration     2          0.625              1.882              2.460
 Vibration     3          0.655              1.787              1.838
 Vibration     4          0.787              1.415              0.874
 Vibration     5          0.787              1.415              0.874
                       Q            Log10(Q)             Ln(Q)
 Total Bot       0.454908D-07         -7.342077        -16.905756
 Total V=0       0.931756D+13         12.969302         29.862922
 Vib (Bot)       0.313963D-19        -19.503121        -44.907595
 Vib (Bot)    1  0.120244D+01          0.080065          0.184356
 Vib (Bot)    2  0.120202D+01          0.079911          0.184002
 Vib (Bot)    3  0.835023D+00         -0.078302         -0.180296
 Vib (Bot)    4  0.411125D+00         -0.386026         -0.888857
 Vib (Bot)    5  0.411097D+00         -0.386056         -0.888927
 Vib (V=0)       0.643070D+01          0.808258          1.861083
 Vib (V=0)    1  0.180226D+01          0.255816          0.589039
 Vib (V=0)    2  0.180186D+01          0.255722          0.588821
 Vib (V=0)    3  0.147327D+01          0.168284          0.387487
 Vib (V=0)    4  0.114732D+01          0.059685          0.137429
 Vib (V=0)    5  0.114730D+01          0.059678          0.137414
 Electronic      0.100000D+01          0.000000          0.000000
 Translational   0.260396D+08          7.415635         17.075130
 Rotational      0.556428D+05          4.745409         10.926709
 
                                                      RxCoord=-2.79936 DE=29.47
                                                             IR Spectrum
 
      3    3                                      2                          1         1      1                                      
      3    1                                      1                          4         1      0                     4      2  1      
      0    4                                      5                          3         9      0                     2      3  6      
      0    7                                      0                          0         2      6                     5      5  8      
 
      X    X                                      X                          X         X                            X      X  X      
                                                                             X         X                                   X  X      
                                                                             X         X                                   X  X      
                                                                             X         X                                   X  X      
                                                                             X         X                                   X  X      
                                                                             X                                             X  X      
                                                                             X                                             X  X      
                                                                                                                           X  X      
                                                                                                                           X  X      
                                                                                                                           X  X      
                                                                                                                           X  X      
                                                                                                                           X  X      
                                                                                                                           X  X      
                                                                                                                              X      
                                                                                                                              X      
                                                                                                                              X      
                                                                                                                              X      
                                                                                                                              X      
                                                                                                                              X      
                                                                                                                              X      
 
 -------------------------------------------------------------------
 Center     Atomic                   Forces (Hartrees/Bohr)
 Number     Number              X              Y              Z
 -------------------------------------------------------------------
      1        6           0.069571966   -0.000001028   -0.000013103
      2       17          -0.018780711   -0.000000038    0.000004698
      3        1           0.000202472   -0.000003387    0.001803470
      4        1           0.000195679   -0.001554361   -0.000900680
      5        1           0.000196868    0.001559101   -0.000892796
      6        6          -0.022340538   -0.000000666    0.000011500
      7        7          -0.029045736    0.000000379   -0.000013089
 -------------------------------------------------------------------
 Cartesian Forces:  Max     0.069571966 RMS     0.017654831
 Z-matrix is all fixed cartesians, so copy forces.
 Force constants in Cartesian coordinates: 
                1             2             3             4             5 
      1  0.402239D-01
      2  0.248331D-05  0.645663D+00
      3  0.183272D-04  0.348742D-05  0.645620D+00
      4  0.499147D-02  0.000000D+00  0.000000D+00  0.424934D-01
      5  0.000000D+00 -0.282772D-02  0.000000D+00  0.000000D+00 -0.125149D-02
      6 -0.303574D-05  0.000000D+00 -0.282667D-02 -0.109731D-05  0.000000D+00
      7 -0.365735D-01  0.164329D-03 -0.707068D-01 -0.880959D-02 -0.407877D-05
      8  0.157640D-03 -0.476151D-01  0.688910D-03  0.279046D-05 -0.695212D-03
      9 -0.678864D-01  0.689073D-03 -0.344622D+00 -0.129827D-02 -0.488264D-05
     10 -0.365584D-01  0.611453D-01  0.354894D-01 -0.881403D-02 -0.143961D-02
     11  0.587050D-01 -0.269796D+00 -0.128970D+00  0.112146D-02  0.952529D-03
     12  0.340733D-01 -0.128970D+00 -0.122467D+00  0.651636D-03  0.962567D-03
     13 -0.365598D-01 -0.613121D-01  0.352069D-01 -0.881451D-02  0.144389D-02
     14 -0.588655D-01 -0.270989D+00  0.128277D+00 -0.112376D-02  0.960742D-03
     15  0.338020D-01  0.128278D+00 -0.121269D+00  0.646505D-03 -0.957366D-03
     16  0.418190D-01  0.000000D+00  0.000000D+00 -0.154333D-01  0.000000D+00
     17  0.000000D+00 -0.673940D-01  0.000000D+00  0.000000D+00  0.359549D-02
     18 -0.185940D-04  0.000000D+00 -0.673949D-01  0.478785D-05  0.000000D+00
     19  0.226573D-01  0.000000D+00 -0.832792D-05 -0.561340D-02  0.000000D+00
     20  0.000000D+00  0.129592D-01  0.000000D+00  0.000000D+00 -0.734347D-03
     21  0.143853D-04  0.000000D+00  0.129598D-01 -0.345932D-05  0.000000D+00
                6             7             8             9            10 
      6 -0.126085D-02
      7  0.166441D-02  0.597379D-01
      8 -0.486774D-05 -0.169660D-03  0.447367D-01
      9  0.150757D-02  0.731800D-01 -0.721601D-03  0.355497D+00
     10 -0.835317D-03  0.299341D-02 -0.699391D-02 -0.322397D-02  0.597322D-01
     11  0.962539D-03 -0.740967D-03  0.259389D-02  0.310548D-02 -0.632834D-01
     12 -0.136036D-03  0.766485D-02 -0.238032D-01 -0.948567D-02 -0.367322D-01
     13 -0.828455D-03  0.299377D-02  0.700868D-02 -0.319168D-02  0.299299D-02
     14 -0.957352D-03  0.705082D-03  0.249715D-02 -0.304950D-02 -0.626843D-02
     15 -0.144956D-03  0.766833D-02  0.238593D-01 -0.938978D-02 -0.447309D-02
     16  0.265757D-05 -0.183659D-01 -0.127570D-05  0.565338D-03 -0.183723D-01
     17  0.000000D+00  0.517397D-04 -0.214026D-02 -0.245988D-04  0.192478D-01
     18  0.359527D-02 -0.222532D-01 -0.244808D-04  0.847337D-02  0.111739D-01
     19  0.000000D+00 -0.197611D-02 -0.427087D-05  0.185497D-02 -0.197385D-02
     20  0.000000D+00 -0.644406D-05  0.622886D-03  0.602368D-05 -0.240773D-02
     21 -0.734323D-03  0.278242D-02  0.601738D-05 -0.198001D-02 -0.139877D-02
               11            12            13            14            15 
     11  0.277204D+00
     12  0.134935D+00  0.123049D+00
     13  0.628904D-02 -0.444381D-02  0.597333D-01
     14 -0.154280D-01  0.133990D-01  0.634554D-01  0.278453D+00
     15 -0.135104D-01  0.853718D-02 -0.364395D-01 -0.134211D+00  0.121797D+00
     16 -0.487546D-03 -0.282738D-03 -0.183721D-01  0.489199D-03 -0.280611D-03
     17  0.579813D-02  0.460739D-02 -0.192991D-01  0.584119D-02 -0.458283D-02
     18  0.460797D-02  0.535682D-03  0.110841D-01 -0.458356D-02  0.492862D-03
     19 -0.160364D-02 -0.931049D-03 -0.197364D-02  0.160800D-02 -0.923566D-03
     20 -0.132427D-02 -0.113015D-02  0.241418D-02 -0.133482D-02  0.112412D-02
     21 -0.113078D-02 -0.337814D-04 -0.138752D-02  0.112475D-02 -0.232856D-04
               16            17            18            19            20 
     16  0.115140D+01
     17 -0.843906D-05  0.872482D-01
     18  0.313110D-03  0.000000D+00  0.872461D-01
     19 -0.112267D+01  0.785643D-05 -0.304139D-03  0.111155D+01
     20  0.827775D-05 -0.329488D-01  0.000000D+00 -0.807010D-05  0.227601D-01
     21 -0.318314D-03  0.000000D+00 -0.329485D-01  0.311269D-03  0.000000D+00
               21 
     21  0.227600D-01
 Leave Link  716 at Sun Oct 13 09:49:44 2024, MaxMem=  2684354560 cpu:               0.9 elap:               0.1
 (Enter /usr/local/g16_AVX//g16/l103.exe)

 GradGradGradGradGradGradGradGradGradGradGradGradGradGradGradGradGradGrad
 Berny optimization.
 Search for a local minimum.
 Step number   1 out of a maximum of    2
 All quantities printed in internal units (Hartrees-Bohrs-Radians)
 Second derivative matrix not updated -- analytic derivatives used.
 ITU=  0
     Eigenvalues ---   -0.04243   0.00570   0.00570   0.02852   0.02852
     Eigenvalues ---    0.04454   0.08217   0.09657   0.09657   0.13063
     Eigenvalues ---    0.13063   0.41486   0.93673   0.93679   2.25383
 Eigenvalue     1 is  -4.24D-02 should be greater than     0.000000 Eigenvector:
                          X1        X7        X6        X3        X5
   1                    0.77552  -0.39681  -0.39397   0.12117   0.12099
                          X4        Z3        Y5        Y4        X2
   1                    0.12099   0.11299   0.09802  -0.09775  -0.06012
 Quadratic step=1.815D+00 exceeds max=3.000D-01 adjusted using Lamda=-2.185D-01.
 Angle between NR and scaled steps=   6.03 degrees.
 Angle between quadratic step and forces=   9.46 degrees.
 Linear search not attempted -- first point.
 B after Tr=    -0.009866   -0.000000   -0.000000
         Rot=    1.000000    0.000000   -0.000000    0.000000 Ang=  -0.00 deg.
 Variable       Old X    -DE/DX   Delta X   Delta X   Delta X     New X
                                 (Linear)    (Quad)   (Total)
    X1        0.74494   0.06957   0.00000   0.26040   0.25053   0.99547
    Y1        0.00001  -0.00000   0.00000  -0.00000  -0.00000   0.00001
    Z1       -0.00046  -0.00001   0.00000  -0.00001  -0.00002  -0.00047
    X2       -4.25518  -0.01878   0.00000  -0.05274  -0.06260  -4.31778
    Y2       -0.00000  -0.00000   0.00000   0.00000   0.00000  -0.00000
    Z2        0.00021   0.00000   0.00000   0.00001   0.00001   0.00021
    X3        0.26311   0.00020   0.00000   0.01447   0.00460   0.26771
    Y3        0.00462  -0.00000   0.00000  -0.00006  -0.00006   0.00456
    Z3       -1.98864   0.00180   0.00000   0.02745   0.02744  -1.96119
    X4        0.26324   0.00020   0.00000   0.01444   0.00458   0.26782
    Y4        1.71953  -0.00155   0.00000  -0.02374  -0.02374   1.69579
    Z4        0.99763  -0.00090   0.00000  -0.01377  -0.01377   0.98385
    X5        0.26322   0.00020   0.00000   0.01445   0.00458   0.26780
    Y5       -1.72412   0.00156   0.00000   0.02380   0.02380  -1.70032
    Z5        0.98961  -0.00089   0.00000  -0.01366  -0.01366   0.97595
    X6        4.14715  -0.02234   0.00000  -0.08991  -0.09978   4.04737
    Y6        0.00001  -0.00000   0.00000  -0.00000  -0.00000   0.00000
    Z6       -0.00036   0.00001   0.00000   0.00004   0.00004  -0.00032
    X7        6.37702  -0.02905   0.00000  -0.09204  -0.10191   6.27511
    Y7       -0.00001   0.00000   0.00000   0.00000   0.00000  -0.00001
    Z7        0.00029  -0.00001   0.00000  -0.00004  -0.00004   0.00024
         Item               Value     Threshold  Converged?
 Maximum Force            0.069572     0.000450     NO 
 RMS     Force            0.017655     0.000300     NO 
 Maximum Displacement     0.250533     0.001800     NO 
 RMS     Displacement     0.065229     0.001200     NO 
 Predicted change in Energy=-2.541736D-02
 GradGradGradGradGradGradGradGradGradGradGradGradGradGradGradGradGradGrad

 Leave Link  103 at Sun Oct 13 09:49:44 2024, MaxMem=  2684354560 cpu:               0.6 elap:               0.1
 (Enter /usr/local/g16_AVX//g16/l9999.exe)

 ----------------------------------------------------------------------

 Electric dipole moment (input orientation):
 (Debye = 10**-18 statcoulomb cm , SI units = C m)
                  (au)            (Debye)         (10**-30 SI)
   Tot        0.127495D+01      0.324060D+01      0.108095D+02
   x          0.127495D+01      0.324060D+01      0.108095D+02
   y          0.000000D+00      0.000000D+00      0.000000D+00
   z         -0.401201D-03     -0.101975D-02     -0.340153D-02

 Dipole polarizability, Alpha (input orientation).
 (esu units = cm**3 , SI units = C**2 m**2 J**-1)
 Alpha(0;0):
               (au)            (10**-24 esu)      (10**-40 SI)
   iso        0.604237D+02      0.895387D+01      0.996252D+01
   aniso      0.595774D+02      0.882846D+01      0.982298D+01
   xx         0.100142D+03      0.148395D+02      0.165112D+02
   yx        -0.437779D-04     -0.648722D-05     -0.721800D-05
   yy         0.405643D+02      0.601100D+01      0.668814D+01
   zx         0.129113D-02      0.191325D-03      0.212878D-03
   zy         0.000000D+00      0.000000D+00      0.000000D+00
   zz         0.405649D+02      0.601109D+01      0.668824D+01

 ----------------------------------------------------------------------

 Dipole orientation:
     6          0.00022101          0.00000860          0.74494148
    17          0.00113304          0.00002459         -4.25517554
     1          1.98855525          0.00463489          0.26373237
     1         -0.99771959          1.71951821          0.26294127
     1         -0.98968572         -1.72412777          0.26289591
     6         -0.00094031         -0.00002013          4.14714562
     7         -0.00229585         -0.00005102          6.37701646

 Electric dipole moment (dipole orientation):
 (Debye = 10**-18 statcoulomb cm , SI units = C m)
                  (au)            (Debye)         (10**-30 SI)
   Tot        0.127495D+01      0.324060D+01      0.108095D+02
   x          0.000000D+00      0.000000D+00      0.000000D+00
   y          0.000000D+00      0.000000D+00      0.000000D+00
   z          0.127495D+01      0.324060D+01      0.108095D+02

 Dipole polarizability, Alpha (dipole orientation).
 (esu units = cm**3 , SI units = C**2 m**2 J**-1)
 Alpha(0;0):
               (au)            (10**-24 esu)      (10**-40 SI)
   iso        0.604237D+02      0.895387D+01      0.996252D+01
   aniso      0.595774D+02      0.882846D+01      0.982298D+01
   xx         0.405649D+02      0.601110D+01      0.668825D+01
   yx         0.000000D+00      0.000000D+00      0.000000D+00
   yy         0.405643D+02      0.601100D+01      0.668814D+01
   zx        -0.200388D-01     -0.296945D-02     -0.330395D-02
   zy        -0.414501D-03     -0.614227D-04     -0.683420D-04
   zz         0.100142D+03      0.148395D+02      0.165112D+02

 ----------------------------------------------------------------------
 1\1\GINC-NODO10\Freq\RB3LYP\6-31++G(d,p)\C2H3Cl1N1(1-)\ALANQF\13-Oct-2
 024\0\\#p b3lyp 6-31++g(d,p) scf=verytight NoSymm freq=noraman int=ult
 rafine\\RxCoord=-2.79936 DE=29.47\\-1,1\C,0.394206,0.000007,-0.000241\
 Cl,-2.251742,-0.000001,0.000109\H,0.13923,0.002447,-1.052342\H,0.13930
 3,0.909934,0.527921\H,0.139289,-0.912365,0.523681\C,2.194575,0.000003,
 -0.000193\N,3.374572,-0.000006,0.000153\\Version=ES64L-G16RevB.01\HF=-
 593.0214762\RMSD=2.438e-09\RMSF=1.765e-02\ZeroPoint=0.0441583\Thermal=
 0.0493981\Dipole=1.3375983,0.0000088,-0.0004216\DipoleDeriv=2.0597001,
 0.0000002,-0.0000848,-0.0000075,0.0937837,0.0000001,-0.0000232,0.,0.09
 38452,-1.3909642,0.0000004,0.0000254,0.0000005,-0.8599016,0.,0.0000453
 ,-0.0000001,-0.8599078,-0.0232165,-0.0000354,0.0154905,-0.0000359,0.08
 38815,0.0001104,0.0163629,0.0001113,0.0362046,-0.0232101,-0.0134058,-0
 .0077884,-0.0141945,0.0482375,-0.0206829,-0.0082421,-0.0206839,0.07185
 89,-0.0231987,0.0134414,-0.0077246,0.0142381,0.0480447,0.0205729,-0.00
 81768,0.0205731,0.0720503,-0.8081579,0.0000012,-0.000007,-0.0000075,-0
 .0415941,-0.0000007,0.000298,-0.0000006,-0.0416055,-0.7909529,-0.00000
 19,0.0000889,0.0000067,-0.3724518,0.0000001,-0.0002641,0.0000001,-0.37
 24456\Polar=100.1419446,-0.0000438,40.564261,0.0012911,0.0000073,40.56
 4875\Quadrupole=-24.6003812,12.3002482,12.300133,0.0000356,0.0000238,0
 .0000125\PG=C01 [X(C2H3Cl1N1)]\NImag=1\\0.04022385,0.00000248,0.645662
 91,0.00001833,0.00000349,0.64561952,0.00499147,0.,-0.00000011,0.042493
 39,0.00000033,-0.00282772,0.,-0.00000042,-0.00125149,-0.00000304,0.,-0
 .00282667,-0.00000110,-0.00000030,-0.00126085,-0.03657346,0.00016433,-
 0.07070676,-0.00880959,-0.00000408,0.00166441,0.05973787,0.00015764,-0
 .04761514,0.00068891,0.00000279,-0.00069521,-0.00000487,-0.00016966,0.
 04473668,-0.06788635,0.00068907,-0.34462210,-0.00129827,-0.00000488,0.
 00150757,0.07317996,-0.00072160,0.35549662,-0.03655841,0.06114529,0.03
 548940,-0.00881403,-0.00143961,-0.00083532,0.00299341,-0.00699391,-0.0
 0322397,0.05973221,0.05870505,-0.26979612,-0.12896960,0.00112146,0.000
 95253,0.00096254,-0.00074097,0.00259389,0.00310548,-0.06328339,0.27720
 387,0.03407329,-0.12897036,-0.12246661,0.00065164,0.00096257,-0.000136
 04,0.00766485,-0.02380325,-0.00948567,-0.03673217,0.13493476,0.1230492
 4,-0.03655979,-0.06131213,0.03520690,-0.00881451,0.00144389,-0.0008284
 5,0.00299377,0.00700868,-0.00319168,0.00299299,0.00628904,-0.00444381,
 0.05973326,-0.05886549,-0.27098915,0.12827723,-0.00112376,0.00096074,-
 0.00095735,0.00070508,0.00249715,-0.00304950,-0.00626843,-0.01542803,0
 .01339904,0.06345540,0.27845292,0.03380198,0.12827780,-0.12126912,0.00
 064651,-0.00095737,-0.00014496,0.00766833,0.02385927,-0.00938978,-0.00
 447309,-0.01351038,0.00853718,-0.03643955,-0.13421062,0.12179710,0.041
 81899,-0.00000012,0.00000056,-0.01543334,-0.00000010,0.00000266,-0.018
 36589,-0.00000128,0.00056534,-0.01837233,-0.00048755,-0.00028274,-0.01
 837208,0.00048920,-0.00028061,1.15139940,0.00000029,-0.06739400,-0.000
 00005,-0.00000017,0.00359549,-0.00000002,0.00005174,-0.00214026,-0.000
 02460,0.01924779,0.00579813,0.00460739,-0.01929907,0.00584119,-0.00458
 283,-0.00000844,0.08724824,-0.00001859,-0.00000002,-0.06739486,0.00000
 479,-0.00000002,0.00359527,-0.02225320,-0.00002448,0.00847337,0.011173
 92,0.00460797,0.00053568,0.01108412,-0.00458356,0.00049286,0.00031311,
 0.00000012,0.08724614,0.02265733,0.00000015,-0.00000833,-0.00561340,-0
 .00000002,0.00000084,-0.00197611,-0.00000427,0.00185497,-0.00197385,-0
 .00160364,-0.00093105,-0.00197364,0.00160800,-0.00092357,-1.12267475,0
 .00000786,-0.00030414,1.11155441,-0.00000031,0.01295921,0.00000002,0.0
 0000010,-0.00073435,0.,-0.00000644,0.00062289,0.00000602,-0.00240773,-
 0.00132427,-0.00113015,0.00241418,-0.00133482,0.00112412,0.00000828,-0
 .03294879,0.,-0.00000807,0.02276013,0.00001439,0.00000002,0.01295983,-
 0.00000346,0.,-0.00073432,0.00278242,0.00000602,-0.00198001,-0.0013987
 7,-0.00113078,-0.00003378,-0.00138752,0.00112475,-0.00002329,-0.000318
 31,0.,-0.03294847,0.00031127,0.,0.02276004\\-0.06957197,0.00000103,0.0
 0001310,0.01878071,0.00000004,-0.00000470,-0.00020247,0.00000339,-0.00
 180347,-0.00019568,0.00155436,0.00090068,-0.00019687,-0.00155910,0.000
 89280,0.02234054,0.00000067,-0.00001150,0.02904574,-0.00000038,0.00001
 309\\\@


 YOU WILL NEVER "FIND" TIME FOR ANYTHING.
 IF YOU WANT TIME, YOU MUST MAKE IT.

                        -- CHARLES BIXTON
 Job cpu time:       0 days  0 hours  3 minutes 53.1 seconds.
 Elapsed time:       0 days  0 hours  0 minutes 10.0 seconds.
 File lengths (MBytes):  RWF=     88 Int=      0 D2E=      0 Chk=      2 Scr=      2
 Normal termination of Gaussian 16 at Sun Oct 13 09:49:44 2024.
