 Entering Gaussian System, Link 0=g16
 Initial command:
 /usr/local/g16_AVX//g16/l1.exe "/scratch/alanqf/0074-54516.ixchel.mda.cinvestav.mx/Gau-37181.inp" -scrdir="/scratch/alanqf/0074-54516.ixchel.mda.cinvestav.mx/"
 Entering Link 1 = /usr/local/g16_AVX//g16/l1.exe PID=     37182.
  
 Copyright (c) 1988-2017, Gaussian, Inc.  All Rights Reserved.
  
 This is part of the Gaussian(R) 16 program.  It is based on
 the Gaussian(R) 09 system (copyright 2009, Gaussian, Inc.),
 the Gaussian(R) 03 system (copyright 2003, Gaussian, Inc.),
 the Gaussian(R) 98 system (copyright 1998, Gaussian, Inc.),
 the Gaussian(R) 94 system (copyright 1995, Gaussian, Inc.),
 the Gaussian 92(TM) system (copyright 1992, Gaussian, Inc.),
 the Gaussian 90(TM) system (copyright 1990, Gaussian, Inc.),
 the Gaussian 88(TM) system (copyright 1988, Gaussian, Inc.),
 the Gaussian 86(TM) system (copyright 1986, Carnegie Mellon
 University), and the Gaussian 82(TM) system (copyright 1983,
 Carnegie Mellon University). Gaussian is a federally registered
 trademark of Gaussian, Inc.
  
 This software contains proprietary and confidential information,
 including trade secrets, belonging to Gaussian, Inc.
  
 This software is provided under written license and may be
 used, copied, transmitted, or stored only in accord with that
 written license.
  
 The following legend is applicable only to US Government
 contracts under FAR:
  
                    RESTRICTED RIGHTS LEGEND
  
 Use, reproduction and disclosure by the US Government is
 subject to restrictions as set forth in subparagraphs (a)
 and (c) of the Commercial Computer Software - Restricted
 Rights clause in FAR 52.227-19.
  
 Gaussian, Inc.
 340 Quinnipiac St., Bldg. 40, Wallingford CT 06492
  
  
 ---------------------------------------------------------------
 Warning -- This program may not be used in any manner that
 competes with the business of Gaussian, Inc. or will provide
 assistance to any competitor of Gaussian, Inc.  The licensee
 of this program is prohibited from giving any competitor of
 Gaussian, Inc. access to this program.  By using this program,
 the user acknowledges that Gaussian, Inc. is engaged in the
 business of creating and licensing software in the field of
 computational chemistry and represents and warrants to the
 licensee that it is not a competitor of Gaussian, Inc. and that
 it will not use this program in any manner prohibited above.
 ---------------------------------------------------------------
  

 Cite this work as:
 Gaussian 16, Revision B.01,
 M. J. Frisch, G. W. Trucks, H. B. Schlegel, G. E. Scuseria, 
 M. A. Robb, J. R. Cheeseman, G. Scalmani, V. Barone, 
 G. A. Petersson, H. Nakatsuji, X. Li, M. Caricato, A. V. Marenich, 
 J. Bloino, B. G. Janesko, R. Gomperts, B. Mennucci, H. P. Hratchian, 
 J. V. Ortiz, A. F. Izmaylov, J. L. Sonnenberg, D. Williams-Young, 
 F. Ding, F. Lipparini, F. Egidi, J. Goings, B. Peng, A. Petrone, 
 T. Henderson, D. Ranasinghe, V. G. Zakrzewski, J. Gao, N. Rega, 
 G. Zheng, W. Liang, M. Hada, M. Ehara, K. Toyota, R. Fukuda, 
 J. Hasegawa, M. Ishida, T. Nakajima, Y. Honda, O. Kitao, H. Nakai, 
 T. Vreven, K. Throssell, J. A. Montgomery, Jr., J. E. Peralta, 
 F. Ogliaro, M. J. Bearpark, J. J. Heyd, E. N. Brothers, K. N. Kudin, 
 V. N. Staroverov, T. A. Keith, R. Kobayashi, J. Normand, 
 K. Raghavachari, A. P. Rendell, J. C. Burant, S. S. Iyengar, 
 J. Tomasi, M. Cossi, J. M. Millam, M. Klene, C. Adamo, R. Cammi, 
 J. W. Ochterski, R. L. Martin, K. Morokuma, O. Farkas, 
 J. B. Foresman, and D. J. Fox, Gaussian, Inc., Wallingford CT, 2016.
 
 ******************************************
 Gaussian 16:  ES64L-G16RevB.01 20-Dec-2017
                13-Oct-2024 
 ******************************************
 %NProcShared=26
 Will use up to   26 processors via shared memory.
 %MEM=20GB
 %chk=CHKfiles/0074.chk
 ---------------------------------------------------------------------
 #p b3lyp 6-31++g(d,p) scf=verytight NoSymm freq=noraman int=ultrafine
 ---------------------------------------------------------------------
 1/10=4,30=1,38=1/1,3;
 2/12=2,15=1,17=6,18=5,40=1/2;
 3/5=1,6=6,7=1111,11=2,25=1,30=1,71=2,74=-5,75=-5,140=1/1,2,3;
 4//1;
 5/5=2,17=3,38=5,98=1/2;
 8/6=4,10=90,11=11/1;
 11/6=1,8=1,9=11,15=111,16=1,31=1/1,2,10;
 10/6=1,31=1/2;
 6/7=2,8=2,9=2,10=2,28=1/1;
 7/8=1,10=1,25=1,30=1/1,2,3,16;
 1/10=4,30=1/3;
 99//99;
 Leave Link    1 at Sun Oct 13 09:49:36 2024, MaxMem=  2684354560 cpu:               1.3 elap:               0.1
 (Enter /usr/local/g16_AVX//g16/l101.exe)
 -------------------------
 RxCoord=-2.69938 DE=31.09
 -------------------------
 Symbolic Z-matrix:
 Charge = -1 Multiplicity = 1
 C                     0.38093   0.00001  -0.00024 
 Cl                   -2.25037  0.         0.00011 
 H                     0.13578   0.00245  -1.05417 
 H                     0.13583   0.91152   0.52883 
 H                     0.13582  -0.91396   0.52458 
 C                     2.19926   0.       -0.0002 
 N                     3.37926  -0.00001   0.00016 
 
 ITRead=  0  0  0  0  0  0  0
 MicOpt= -1 -1 -1 -1 -1 -1 -1
 NAtoms=      7 NQM=        7 NQMF=       0 NMMI=      0 NMMIF=      0
                NMic=       0 NMicF=      0.
                    Isotopes and Nuclear Properties:
 (Nuclear quadrupole moments (NQMom) in fm**2, nuclear magnetic moments (NMagM)
  in nuclear magnetons)

  Atom         1           2           3           4           5           6           7
 IAtWgt=          12          35           1           1           1          12          14
 AtmWgt=  12.0000000  34.9688527   1.0078250   1.0078250   1.0078250  12.0000000  14.0030740
 NucSpn=           0           3           1           1           1           0           2
 AtZEff=  -0.0000000  -0.0000000  -0.0000000  -0.0000000  -0.0000000  -0.0000000  -0.0000000
 NQMom=    0.0000000  -8.1650000   0.0000000   0.0000000   0.0000000   0.0000000   2.0440000
 NMagM=    0.0000000   0.8218740   2.7928460   2.7928460   2.7928460   0.0000000   0.4037610
 AtZNuc=   6.0000000  17.0000000   1.0000000   1.0000000   1.0000000   6.0000000   7.0000000
 Leave Link  101 at Sun Oct 13 09:49:36 2024, MaxMem=  2684354560 cpu:               1.8 elap:               0.1
 (Enter /usr/local/g16_AVX//g16/l103.exe)

 GradGradGradGradGradGradGradGradGradGradGradGradGradGradGradGradGradGrad
 Berny optimization.
 Initialization pass.
 Trust Radius=3.00D-01 FncErr=1.00D-07 GrdErr=1.00D-07 EigMax=2.50D+02 EigMin=1.00D-04
 Number of steps in this run=      2 maximum allowed number of steps=      2.
 GradGradGradGradGradGradGradGradGradGradGradGradGradGradGradGradGradGrad

 Leave Link  103 at Sun Oct 13 09:49:36 2024, MaxMem=  2684354560 cpu:               0.3 elap:               0.0
 (Enter /usr/local/g16_AVX//g16/l202.exe)
                          Input orientation:                          
 ---------------------------------------------------------------------
 Center     Atomic      Atomic             Coordinates (Angstroms)
 Number     Number       Type             X           Y           Z
 ---------------------------------------------------------------------
      1          6           0        0.380927    0.000007   -0.000240
      2         17           0       -2.250371   -0.000001    0.000109
      3          1           0        0.135777    0.002452   -1.054174
      4          1           0        0.135834    0.911523    0.528831
      5          1           0        0.135820   -0.913958    0.524583
      6          6           0        2.199264    0.000003   -0.000195
      7          7           0        3.379256   -0.000006    0.000155
 ---------------------------------------------------------------------
                    Distance matrix (angstroms):
                    1          2          3          4          5
     1  C    0.000000
     2  Cl   2.631298   0.000000
     3  H    1.082073   2.608682   0.000000
     4  H    1.082057   2.608524   1.825463   0.000000
     5  H    1.082058   2.608505   1.825454   1.825486   0.000000
     6  C    1.818337   4.449635   2.317079   2.316998   2.317006
     7  N    2.998329   5.629627   3.410538   3.410303   3.410309
                    6          7
     6  C    0.000000
     7  N    1.179992   0.000000
 Symmetry turned off by external request.
 This structure is nearly, but not quite of a higher symmetry.
 Consider Symm=Loose if the higher symmetry is desired.
 Stoichiometry    C2H3ClN(1-)
 Framework group  C1[X(C2H3ClN)]
 Deg. of freedom    15
 Full point group                 C1      NOp   1
 Rotational constants (GHZ):         150.4816668           1.2681656           1.2681654
 Leave Link  202 at Sun Oct 13 09:49:36 2024, MaxMem=  2684354560 cpu:               0.2 elap:               0.0
 (Enter /usr/local/g16_AVX//g16/l301.exe)
 Standard basis: 6-31++G(d,p) (6D, 7F)
 Ernie: Thresh=  0.10000D-02 Tol=  0.10000D-05 Strict=F.
    98 basis functions,   176 primitive gaussians,    98 cartesian basis functions
    20 alpha electrons       20 beta electrons
       nuclear repulsion energy       107.9418833656 Hartrees.
 IExCor=  402 DFT=T Ex+Corr=B3LYP ExCW=0 ScaHFX=  0.200000
 ScaDFX=  0.800000  0.720000  1.000000  0.810000 ScalE2=  1.000000  1.000000
 IRadAn=      5 IRanWt=     -1 IRanGd=            0 ICorTp=0 IEmpDi=  4
 NAtoms=    7 NActive=    7 NUniq=    7 SFac= 1.00D+00 NAtFMM=   60 NAOKFM=F Big=F
 Integral buffers will be    131072 words long.
 Raffenetti 2 integral format.
 Two-electron integral symmetry is turned off.
 Leave Link  301 at Sun Oct 13 09:49:37 2024, MaxMem=  2684354560 cpu:               0.9 elap:               0.1
 (Enter /usr/local/g16_AVX//g16/l302.exe)
 NPDir=0 NMtPBC=     1 NCelOv=     1 NCel=       1 NClECP=     1 NCelD=      1
         NCelK=      1 NCelE2=     1 NClLst=     1 CellRange=     0.0.
 One-electron integrals computed using PRISM.
 NBasis=    98 RedAO= T EigKep=  3.72D-05  NBF=    98
 NBsUse=    98 1.00D-06 EigRej= -1.00D+00 NBFU=    98
 Precomputing XC quadrature grid using
 IXCGrd= 4 IRadAn=           5 IRanWt=          -1 IRanGd=           0 AccXCQ= 0.00D+00.
 Generated NRdTot=       0 NPtTot=           0 NUsed=           0 NTot=          32
 NSgBfM=    98    98    98    98    98 MxSgAt=     7 MxSgA2=     7.
 Leave Link  302 at Sun Oct 13 09:49:37 2024, MaxMem=  2684354560 cpu:               3.8 elap:               0.2
 (Enter /usr/local/g16_AVX//g16/l303.exe)
 DipDrv:  MaxL=1.
 Leave Link  303 at Sun Oct 13 09:49:37 2024, MaxMem=  2684354560 cpu:               0.6 elap:               0.1
 (Enter /usr/local/g16_AVX//g16/l401.exe)
 ExpMin= 3.60D-02 ExpMax= 2.52D+04 ExpMxC= 3.78D+03 IAcc=3 IRadAn=         5 AccDes= 0.00D+00
 Harris functional with IExCor=  402 and IRadAn=       5 diagonalized for initial guess.
 HarFok:  IExCor=  402 AccDes= 0.00D+00 IRadAn=         5 IDoV= 1 UseB2=F ITyADJ=14
 ICtDFT=  3500011 ScaDFX=  1.000000  1.000000  1.000000  1.000000
 FoFCou: FMM=F IPFlag=           0 FMFlag=      100000 FMFlg1=           0
         NFxFlg=           0 DoJE=T BraDBF=F KetDBF=T FulRan=T
         wScrn=  0.000000 ICntrl=       500 IOpCl=  0 I1Cent=   200000004 NGrid=           0
         NMat0=    1 NMatS0=      1 NMatT0=    0 NMatD0=    1 NMtDS0=    0 NMtDT0=    0
 Symmetry not used in FoFCou.
 Harris En= -593.060603173862    
 JPrj=0 DoOrth=F DoCkMO=F.
 Leave Link  401 at Sun Oct 13 09:49:37 2024, MaxMem=  2684354560 cpu:               5.7 elap:               0.3
 (Enter /usr/local/g16_AVX//g16/l502.exe)
 Keep R1 ints in memory in canonical form, NReq=35752935.
 FoFCou: FMM=F IPFlag=           0 FMFlag=           0 FMFlg1=           0
         NFxFlg=           0 DoJE=F BraDBF=F KetDBF=F FulRan=T
         wScrn=  0.000000 ICntrl=       600 IOpCl=  0 I1Cent=           0 NGrid=           0
         NMat0=    1 NMatS0=   4851 NMatT0=    0 NMatD0=    1 NMtDS0=    0 NMtDT0=    0
 Symmetry not used in FoFCou.
 Two-electron integral symmetry not used.
 Closed shell SCF:
 Using DIIS extrapolation, IDIIS=  1040.
 NGot=  2684354560 LenX=  2672563405 LenY=  2672553360
 Requested convergence on RMS density matrix=1.00D-08 within 128 cycles.
 Requested convergence on MAX density matrix=1.00D-06.
 Requested convergence on             energy=1.00D-06.
 No special actions if energy rises.

 Cycle   1  Pass 1  IDiag  1:
 E= -592.917082976354    
 DIIS: error= 2.94D-02 at cycle   1 NSaved=   1.
 NSaved= 1 IEnMin= 1 EnMin= -592.917082976354     IErMin= 1 ErrMin= 2.94D-02
 ErrMax= 2.94D-02  0.00D+00 EMaxC= 1.00D-01 BMatC= 9.86D-02 BMatP= 9.86D-02
 IDIUse=3 WtCom= 7.06D-01 WtEn= 2.94D-01
 Coeff-Com:  0.100D+01
 Coeff-En:   0.100D+01
 Coeff:      0.100D+01
 Gap=     0.214 Goal=   None    Shift=    0.000
 GapD=    0.214 DampG=1.000 DampE=0.500 DampFc=0.5000 IDamp=-1.
 Damping current iteration by 5.00D-01
 RMSDP=9.69D-03 MaxDP=1.90D-01              OVMax= 2.03D-01

 Cycle   2  Pass 1  IDiag  1:
 E= -592.940138979992     Delta-E=       -0.023056003637 Rises=F Damp=T
 DIIS: error= 1.98D-02 at cycle   2 NSaved=   2.
 NSaved= 2 IEnMin= 2 EnMin= -592.940138979992     IErMin= 2 ErrMin= 1.98D-02
 ErrMax= 1.98D-02  0.00D+00 EMaxC= 1.00D-01 BMatC= 2.52D-02 BMatP= 9.86D-02
 IDIUse=3 WtCom= 8.02D-01 WtEn= 1.98D-01
 Coeff-Com:  0.267D+00 0.733D+00
 Coeff-En:   0.379D+00 0.621D+00
 Coeff:      0.289D+00 0.711D+00
 Gap=     0.159 Goal=   None    Shift=    0.000
 RMSDP=3.32D-03 MaxDP=5.57D-02 DE=-2.31D-02 OVMax= 1.85D-01

 Cycle   3  Pass 1  IDiag  1:
 E= -592.999408034006     Delta-E=       -0.059269054015 Rises=F Damp=F
 DIIS: error= 1.82D-02 at cycle   3 NSaved=   3.
 NSaved= 3 IEnMin= 3 EnMin= -592.999408034006     IErMin= 3 ErrMin= 1.82D-02
 ErrMax= 1.82D-02  0.00D+00 EMaxC= 1.00D-01 BMatC= 2.02D-02 BMatP= 2.52D-02
 IDIUse=3 WtCom= 8.18D-01 WtEn= 1.82D-01
 Coeff-Com:  0.674D-01 0.457D+00 0.475D+00
 Coeff-En:   0.000D+00 0.000D+00 0.100D+01
 Coeff:      0.551D-01 0.374D+00 0.571D+00
 Gap=     0.182 Goal=   None    Shift=    0.000
 RMSDP=2.91D-03 MaxDP=5.11D-02 DE=-5.93D-02 OVMax= 7.65D-02

 Cycle   4  Pass 1  IDiag  1:
 E= -593.011195864660     Delta-E=       -0.011787830653 Rises=F Damp=F
 DIIS: error= 1.29D-02 at cycle   4 NSaved=   4.
 NSaved= 4 IEnMin= 4 EnMin= -593.011195864660     IErMin= 4 ErrMin= 1.29D-02
 ErrMax= 1.29D-02  0.00D+00 EMaxC= 1.00D-01 BMatC= 8.75D-03 BMatP= 2.02D-02
 IDIUse=3 WtCom= 8.71D-01 WtEn= 1.29D-01
 Coeff-Com:  0.331D-01 0.352D-01 0.376D+00 0.555D+00
 Coeff-En:   0.000D+00 0.000D+00 0.336D+00 0.664D+00
 Coeff:      0.288D-01 0.306D-01 0.371D+00 0.569D+00
 Gap=     0.173 Goal=   None    Shift=    0.000
 RMSDP=1.08D-03 MaxDP=1.75D-02 DE=-1.18D-02 OVMax= 3.14D-02

 Cycle   5  Pass 1  IDiag  1:
 E= -593.019070020615     Delta-E=       -0.007874155955 Rises=F Damp=F
 DIIS: error= 1.18D-03 at cycle   5 NSaved=   5.
 NSaved= 5 IEnMin= 5 EnMin= -593.019070020615     IErMin= 5 ErrMin= 1.18D-03
 ErrMax= 1.18D-03  0.00D+00 EMaxC= 1.00D-01 BMatC= 1.37D-04 BMatP= 8.75D-03
 IDIUse=3 WtCom= 9.88D-01 WtEn= 1.18D-02
 Coeff-Com:  0.105D-01-0.956D-02 0.158D+00 0.291D+00 0.550D+00
 Coeff-En:   0.000D+00 0.000D+00 0.000D+00 0.000D+00 0.100D+01
 Coeff:      0.104D-01-0.945D-02 0.156D+00 0.288D+00 0.555D+00
 Gap=     0.176 Goal=   None    Shift=    0.000
 RMSDP=2.25D-04 MaxDP=4.20D-03 DE=-7.87D-03 OVMax= 4.30D-03

 Cycle   6  Pass 1  IDiag  1:
 E= -593.019219848255     Delta-E=       -0.000149827640 Rises=F Damp=F
 DIIS: error= 1.65D-04 at cycle   6 NSaved=   6.
 NSaved= 6 IEnMin= 6 EnMin= -593.019219848255     IErMin= 6 ErrMin= 1.65D-04
 ErrMax= 1.65D-04  0.00D+00 EMaxC= 1.00D-01 BMatC= 3.16D-06 BMatP= 1.37D-04
 IDIUse=3 WtCom= 9.98D-01 WtEn= 1.65D-03
 Coeff-Com:  0.193D-02-0.408D-02 0.294D-01 0.572D-01 0.197D+00 0.718D+00
 Coeff-En:   0.000D+00 0.000D+00 0.000D+00 0.000D+00 0.000D+00 0.100D+01
 Coeff:      0.192D-02-0.407D-02 0.293D-01 0.571D-01 0.197D+00 0.719D+00
 Gap=     0.175 Goal=   None    Shift=    0.000
 RMSDP=9.42D-05 MaxDP=2.90D-03 DE=-1.50D-04 OVMax= 7.52D-04

 Cycle   7  Pass 1  IDiag  1:
 E= -593.019223700761     Delta-E=       -0.000003852506 Rises=F Damp=F
 DIIS: error= 1.89D-05 at cycle   7 NSaved=   7.
 NSaved= 7 IEnMin= 7 EnMin= -593.019223700761     IErMin= 7 ErrMin= 1.89D-05
 ErrMax= 1.89D-05  0.00D+00 EMaxC= 1.00D-01 BMatC= 4.35D-08 BMatP= 3.16D-06
 IDIUse=1 WtCom= 1.00D+00 WtEn= 0.00D+00
 Coeff-Com:  0.155D-03-0.721D-03 0.169D-02 0.336D-02 0.294D-01 0.170D+00
 Coeff-Com:  0.796D+00
 Coeff:      0.155D-03-0.721D-03 0.169D-02 0.336D-02 0.294D-01 0.170D+00
 Coeff:      0.796D+00
 Gap=     0.175 Goal=   None    Shift=    0.000
 RMSDP=7.40D-06 MaxDP=1.92D-04 DE=-3.85D-06 OVMax= 1.40D-04

 Cycle   8  Pass 1  IDiag  1:
 E= -593.019223735713     Delta-E=       -0.000000034952 Rises=F Damp=F
 DIIS: error= 8.78D-06 at cycle   8 NSaved=   8.
 NSaved= 8 IEnMin= 8 EnMin= -593.019223735713     IErMin= 8 ErrMin= 8.78D-06
 ErrMax= 8.78D-06  0.00D+00 EMaxC= 1.00D-01 BMatC= 1.38D-08 BMatP= 4.35D-08
 IDIUse=1 WtCom= 1.00D+00 WtEn= 0.00D+00
 Coeff-Com: -0.670D-05-0.149D-03-0.875D-03-0.162D-02 0.401D-02 0.510D-01
 Coeff-Com:  0.436D+00 0.512D+00
 Coeff:     -0.670D-05-0.149D-03-0.875D-03-0.162D-02 0.401D-02 0.510D-01
 Coeff:      0.436D+00 0.512D+00
 Gap=     0.175 Goal=   None    Shift=    0.000
 RMSDP=2.14D-06 MaxDP=4.88D-05 DE=-3.50D-08 OVMax= 4.29D-05

 Cycle   9  Pass 1  IDiag  1:
 E= -593.019223751708     Delta-E=       -0.000000015994 Rises=F Damp=F
 DIIS: error= 9.88D-07 at cycle   9 NSaved=   9.
 NSaved= 9 IEnMin= 9 EnMin= -593.019223751708     IErMin= 9 ErrMin= 9.88D-07
 ErrMax= 9.88D-07  0.00D+00 EMaxC= 1.00D-01 BMatC= 1.45D-10 BMatP= 1.38D-08
 IDIUse=1 WtCom= 1.00D+00 WtEn= 0.00D+00
 Coeff-Com: -0.285D-05 0.213D-06-0.256D-03-0.404D-03-0.111D-02-0.494D-03
 Coeff-Com:  0.304D-01 0.898D-01 0.882D+00
 Coeff:     -0.285D-05 0.213D-06-0.256D-03-0.404D-03-0.111D-02-0.494D-03
 Coeff:      0.304D-01 0.898D-01 0.882D+00
 Gap=     0.175 Goal=   None    Shift=    0.000
 RMSDP=1.02D-06 MaxDP=2.90D-05 DE=-1.60D-08 OVMax= 6.92D-06

 Cycle  10  Pass 1  IDiag  1:
 E= -593.019223751897     Delta-E=       -0.000000000190 Rises=F Damp=F
 DIIS: error= 4.17D-07 at cycle  10 NSaved=  10.
 NSaved=10 IEnMin=10 EnMin= -593.019223751897     IErMin=10 ErrMin= 4.17D-07
 ErrMax= 4.17D-07  0.00D+00 EMaxC= 1.00D-01 BMatC= 6.01D-12 BMatP= 1.45D-10
 IDIUse=1 WtCom= 1.00D+00 WtEn= 0.00D+00
 Coeff-Com: -0.469D-06 0.264D-05-0.541D-04-0.789D-04-0.467D-03-0.174D-02
 Coeff-Com: -0.370D-02 0.136D-01 0.275D+00 0.718D+00
 Coeff:     -0.469D-06 0.264D-05-0.541D-04-0.789D-04-0.467D-03-0.174D-02
 Coeff:     -0.370D-02 0.136D-01 0.275D+00 0.718D+00
 Gap=     0.175 Goal=   None    Shift=    0.000
 RMSDP=1.09D-07 MaxDP=2.50D-06 DE=-1.90D-10 OVMax= 1.04D-06

 Cycle  11  Pass 1  IDiag  1:
 E= -593.019223751904     Delta-E=       -0.000000000007 Rises=F Damp=F
 DIIS: error= 4.31D-08 at cycle  11 NSaved=  11.
 NSaved=11 IEnMin=11 EnMin= -593.019223751904     IErMin=11 ErrMin= 4.31D-08
 ErrMax= 4.31D-08  0.00D+00 EMaxC= 1.00D-01 BMatC= 1.45D-13 BMatP= 6.01D-12
 IDIUse=1 WtCom= 1.00D+00 WtEn= 0.00D+00
 Coeff-Com: -0.329D-06 0.824D-06 0.767D-07-0.218D-05-0.334D-04-0.307D-03
 Coeff-Com: -0.178D-02-0.185D-02 0.139D-02 0.102D+00 0.901D+00
 Coeff:     -0.329D-06 0.824D-06 0.767D-07-0.218D-05-0.334D-04-0.307D-03
 Coeff:     -0.178D-02-0.185D-02 0.139D-02 0.102D+00 0.901D+00
 Gap=     0.175 Goal=   None    Shift=    0.000
 RMSDP=3.34D-08 MaxDP=9.71D-07 DE=-7.05D-12 OVMax= 1.94D-07

 Cycle  12  Pass 1  IDiag  1:
 E= -593.019223751905     Delta-E=       -0.000000000001 Rises=F Damp=F
 DIIS: error= 7.62D-09 at cycle  12 NSaved=  12.
 NSaved=12 IEnMin=12 EnMin= -593.019223751905     IErMin=12 ErrMin= 7.62D-09
 ErrMax= 7.62D-09  0.00D+00 EMaxC= 1.00D-01 BMatC= 3.12D-15 BMatP= 1.45D-13
 IDIUse=1 WtCom= 1.00D+00 WtEn= 0.00D+00
 Coeff-Com: -0.617D-07 0.737D-07 0.638D-06 0.959D-06 0.458D-05 0.156D-04
 Coeff-Com:  0.282D-04-0.373D-03-0.359D-02-0.168D-02 0.533D-01 0.952D+00
 Coeff:     -0.617D-07 0.737D-07 0.638D-06 0.959D-06 0.458D-05 0.156D-04
 Coeff:      0.282D-04-0.373D-03-0.359D-02-0.168D-02 0.533D-01 0.952D+00
 Gap=     0.175 Goal=   None    Shift=    0.000
 RMSDP=2.74D-09 MaxDP=7.01D-08 DE=-5.68D-13 OVMax= 2.34D-08

 SCF Done:  E(RB3LYP) =  -593.019223752     A.U. after   12 cycles
            NFock= 12  Conv=0.27D-08     -V/T= 2.0050
 KE= 5.900730640602D+02 PE=-1.626183092480D+03 EE= 3.351489213028D+02
 Leave Link  502 at Sun Oct 13 09:49:39 2024, MaxMem=  2684354560 cpu:              47.5 elap:               2.1
 (Enter /usr/local/g16_AVX//g16/l801.exe)
 DoSCS=F DFT=T ScalE2(SS,OS)=  1.000000  1.000000
 Range of M.O.s used for correlation:     1    98
 NBasis=    98 NAE=    20 NBE=    20 NFC=     0 NFV=     0
 NROrb=     98 NOA=    20 NOB=    20 NVA=    78 NVB=    78

 **** Warning!!: The largest alpha MO coefficient is  0.84806640D+02

 Leave Link  801 at Sun Oct 13 09:49:39 2024, MaxMem=  2684354560 cpu:               0.5 elap:               0.0
 (Enter /usr/local/g16_AVX//g16/l1101.exe)
 Using compressed storage, NAtomX=     7.
 Will process      8 centers per pass.
 Leave Link 1101 at Sun Oct 13 09:49:39 2024, MaxMem=  2684354560 cpu:               3.6 elap:               0.2
 (Enter /usr/local/g16_AVX//g16/l1102.exe)
 Symmetrizing basis deriv contribution to polar:
 IMax=3 JMax=2 DiffMx= 0.00D+00
 Leave Link 1102 at Sun Oct 13 09:49:40 2024, MaxMem=  2684354560 cpu:               0.4 elap:               0.0
 (Enter /usr/local/g16_AVX//g16/l1110.exe)
 Forming Gx(P) for the SCF density, NAtomX=     7.
 Integral derivatives from FoFJK, PRISM(SPDF).
 Do as many integral derivatives as possible in FoFJK.
 G2DrvN: MDV=    2684353864.
 G2DrvN: will do     8 centers at a time, making    1 passes.
 Calling FoFCou, ICntrl=  3107 FMM=F I1Cent=   0 AccDes= 0.00D+00.
 FoFJK:  IHMeth= 1 ICntrl=    3107 DoSepK=F KAlg= 0 I1Cent=           0 FoldK=F
 IRaf=         0 NMat=       1 IRICut=       1 DoRegI=T DoRafI=F ISym2E= 0 IDoP0=0 IntGTp=1.
 FoFCou: FMM=F IPFlag=           0 FMFlag=      100000 FMFlg1=           0
         NFxFlg=           0 DoJE=F BraDBF=F KetDBF=F FulRan=T
         wScrn=  0.000000 ICntrl=      3107 IOpCl=  0 I1Cent=           0 NGrid=           0
         NMat0=    1 NMatS0=      1 NMatT0=    0 NMatD0=    1 NMtDS0=    0 NMtDT0=    0
 Symmetry not used in FoFCou.
 End of G2Drv F.D. properties file   721 does not exist.
 End of G2Drv F.D. properties file   722 does not exist.
 End of G2Drv F.D. properties file   788 does not exist.
 Leave Link 1110 at Sun Oct 13 09:49:42 2024, MaxMem=  2684354560 cpu:              59.1 elap:               2.3
 (Enter /usr/local/g16_AVX//g16/l1002.exe)
 Minotr:  Closed shell wavefunction.
          IDoAtm=1111111
          Direct CPHF calculation.
          Differentiating once with respect to electric field.
                with respect to dipole field.
          Differentiating once with respect to nuclear coordinates.
          Requested convergence is 1.0D-08 RMS, and 1.0D-07 maximum.
          Secondary convergence is 1.0D-12 RMS, and 1.0D-12 maximum.
          NewPWx=T KeepS1=F KeepF1=F KeepIn=T MapXYZ=F SortEE=F KeepMc=T.
         2129 words used for storage of precomputed grid.
 Keep R1 ints in memory in canonical form, NReq=35668390.
 FoFCou: FMM=F IPFlag=           0 FMFlag=           0 FMFlg1=           0
         NFxFlg=           0 DoJE=F BraDBF=F KetDBF=F FulRan=T
         wScrn=  0.000000 ICntrl=       600 IOpCl=  0 I1Cent=           0 NGrid=           0
         NMat0=    1 NMatS0=   4851 NMatT0=    0 NMatD0=    1 NMtDS0=    0 NMtDT0=    0
 Symmetry not used in FoFCou.
 Two-electron integral symmetry not used.
          MDV=    2684354560 using IRadAn=       1.
          Solving linear equations simultaneously, MaxMat=       0.
          There are    24 degrees of freedom in the 1st order CPHF.  IDoFFX=6 NUNeed=     3.
     21 vectors produced by pass  0 Test12= 6.50D-15 4.17D-09 XBig12= 9.94D+01 6.39D+00.
 AX will form    21 AO Fock derivatives at one time.
     21 vectors produced by pass  1 Test12= 6.50D-15 4.17D-09 XBig12= 5.09D+01 2.67D+00.
     21 vectors produced by pass  2 Test12= 6.50D-15 4.17D-09 XBig12= 3.13D+00 5.15D-01.
     21 vectors produced by pass  3 Test12= 6.50D-15 4.17D-09 XBig12= 2.64D-02 3.45D-02.
     21 vectors produced by pass  4 Test12= 6.50D-15 4.17D-09 XBig12= 6.84D-05 2.16D-03.
     19 vectors produced by pass  5 Test12= 6.50D-15 4.17D-09 XBig12= 1.11D-07 7.17D-05.
      5 vectors produced by pass  6 Test12= 6.50D-15 4.17D-09 XBig12= 1.78D-10 3.51D-06.
      1 vectors produced by pass  7 Test12= 6.50D-15 4.17D-09 XBig12= 2.53D-13 1.60D-07.
      1 vectors produced by pass  8 Test12= 6.50D-15 4.17D-09 XBig12= 3.75D-16 6.08D-09.
 InvSVY:  IOpt=1 It=  1 EMax= 7.11D-15
 Solved reduced A of dimension   131 with    24 vectors.
 FullF1:  Do perturbations      1 to       3.
 Isotropic polarizability for W=    0.000000       60.97 Bohr**3.
 End of Minotr F.D. properties file   721 does not exist.
 End of Minotr F.D. properties file   722 does not exist.
 End of Minotr F.D. properties file   788 does not exist.
 Leave Link 1002 at Sun Oct 13 09:49:45 2024, MaxMem=  2684354560 cpu:              78.3 elap:               3.1
 (Enter /usr/local/g16_AVX//g16/l601.exe)
 Copying SCF densities to generalized density rwf, IOpCl= 0 IROHF=0.

 **********************************************************************

            Population analysis using the SCF Density.

 **********************************************************************

 Alpha  occ. eigenvalues -- -101.26941 -14.20773 -10.10735 -10.09955  -9.18395
 Alpha  occ. eigenvalues --   -6.94196  -6.94146  -6.94146  -0.76041  -0.58822
 Alpha  occ. eigenvalues --   -0.52226  -0.31789  -0.30457  -0.30456  -0.22599
 Alpha  occ. eigenvalues --   -0.19987  -0.19987  -0.06914  -0.06914  -0.06752
 Alpha virt. eigenvalues --    0.10754   0.14670   0.14671   0.14758   0.16137
 Alpha virt. eigenvalues --    0.16137   0.17917   0.20571   0.21244   0.21244
 Alpha virt. eigenvalues --    0.23683   0.23964   0.23965   0.25924   0.25924
 Alpha virt. eigenvalues --    0.26039   0.31203   0.34119   0.34120   0.34740
 Alpha virt. eigenvalues --    0.34741   0.35204   0.39087   0.42950   0.47411
 Alpha virt. eigenvalues --    0.73175   0.78908   0.78908   0.82631   0.82632
 Alpha virt. eigenvalues --    0.83321   0.85865   0.85866   0.88743   0.97302
 Alpha virt. eigenvalues --    0.99318   1.04717   1.04718   1.12231   1.12232
 Alpha virt. eigenvalues --    1.12702   1.13787   1.13788   1.16384   1.16386
 Alpha virt. eigenvalues --    1.24619   1.24881   1.37489   1.51621   1.53924
 Alpha virt. eigenvalues --    1.53924   1.66805   1.66805   1.76424   1.76425
 Alpha virt. eigenvalues --    1.83722   2.08389   2.08755   2.08755   2.13765
 Alpha virt. eigenvalues --    2.18943   2.18943   2.50231   2.50233   2.73112
 Alpha virt. eigenvalues --    2.77717   2.77718   2.90471   2.96013   2.96015
 Alpha virt. eigenvalues --    3.19262   3.45451   3.55839   3.55840   4.19489
 Alpha virt. eigenvalues --    4.38228   4.56781   4.64192
          Condensed to atoms (all electrons):
               1          2          3          4          5          6
     1  C    5.491395  -0.134841   0.430223   0.430161   0.430161  -0.475886
     2  Cl  -0.134841  17.955188  -0.030433  -0.030459  -0.030459   0.090448
     3  H    0.430223  -0.030433   0.483051  -0.020058  -0.020059  -0.056670
     4  H    0.430161  -0.030459  -0.020058   0.483015  -0.020052  -0.056552
     5  H    0.430161  -0.030459  -0.020059  -0.020052   0.483011  -0.056549
     6  C   -0.475886   0.090448  -0.056670  -0.056552  -0.056549   6.117661
     7  N   -0.075658   0.001511  -0.004464  -0.004476  -0.004476   0.632883
               7
     1  C   -0.075658
     2  Cl   0.001511
     3  H   -0.004464
     4  H   -0.004476
     5  H   -0.004476
     6  C    0.632883
     7  N    6.998089
 Mulliken charges:
               1
     1  C   -0.095556
     2  Cl  -0.820955
     3  H    0.218411
     4  H    0.218421
     5  H    0.218423
     6  C   -0.195335
     7  N   -0.543409
 Sum of Mulliken charges =  -1.00000
 Mulliken charges with hydrogens summed into heavy atoms:
               1
     1  C    0.559699
     2  Cl  -0.820955
     6  C   -0.195335
     7  N   -0.543409
 APT charges:
               1
     1  C    0.792231
     2  Cl  -1.041562
     3  H    0.028734
     4  H    0.028743
     5  H    0.028746
     6  C   -0.320395
     7  N   -0.516497
 Sum of APT charges =  -1.00000
 APT charges with hydrogens summed into heavy atoms:
               1
     1  C    0.878454
     2  Cl  -1.041562
     6  C   -0.320395
     7  N   -0.516497
 Electronic spatial extent (au):  <R**2>=            827.7832
 Charge=             -1.0000 electrons
 Dipole moment (field-independent basis, Debye):
    X=              3.0601    Y=              0.0000    Z=             -0.0010  Tot=              3.0601
 Quadrupole moment (field-independent basis, Debye-Ang):
   XX=            -85.2054   YY=            -35.4434   ZZ=            -35.4436
   XY=              0.0000   XZ=              0.0000   YZ=              0.0000
 Traceless Quadrupole moment (field-independent basis, Debye-Ang):
   XX=            -33.1746   YY=             16.5874   ZZ=             16.5872
   XY=              0.0000   XZ=              0.0000   YZ=              0.0000
 Octapole moment (field-independent basis, Debye-Ang**2):
  XXX=            -39.3912  YYY=             -0.0068  ZZZ=             -0.9763  XYY=              1.1832
  XXY=              0.0002  XXZ=             -0.0067  XZZ=              1.1831  YZZ=              0.0068
  YYZ=              0.9760  XYZ=              0.0000
 Hexadecapole moment (field-independent basis, Debye-Ang**3):
 XXXX=          -1643.1280 YYYY=            -57.0184 ZZZZ=            -57.0179 XXXY=              0.0007
 XXXZ=             -0.0014 YYYX=             -0.0003 YYYZ=              0.0000 ZZZX=             -0.0392
 ZZZY=             -0.0000 XXYY=           -209.7202 XXZZ=           -209.7202 YYZZ=            -19.0067
 XXYZ=             -0.0000 YYXZ=              0.0553 ZZXY=              0.0004
 N-N= 1.079418833656D+02 E-N=-1.626183092187D+03  KE= 5.900730640602D+02
  Exact polarizability: 101.954  -0.000  40.484   0.001   0.000  40.485
 Approx polarizability: 123.767  -0.000  50.038   0.005   0.000  50.037
 No NMR shielding tensors so no spin-rotation constants.
 Leave Link  601 at Sun Oct 13 09:49:45 2024, MaxMem=  2684354560 cpu:               2.5 elap:               0.1
 (Enter /usr/local/g16_AVX//g16/l701.exe)
 ... and contract with generalized density number  0.
 Compute integral second derivatives.
 Leave Link  701 at Sun Oct 13 09:49:45 2024, MaxMem=  2684354560 cpu:               4.1 elap:               0.2
 (Enter /usr/local/g16_AVX//g16/l702.exe)
 L702 exits ... SP integral derivatives will be done elsewhere.
 Leave Link  702 at Sun Oct 13 09:49:45 2024, MaxMem=  2684354560 cpu:               0.4 elap:               0.0
 (Enter /usr/local/g16_AVX//g16/l703.exe)
 Integral derivatives from FoFJK, PRISM(SPDF).
 Compute integral second derivatives, UseDBF=F ICtDFT=           0.
 Calling FoFJK, ICntrl=    100127 FMM=F ISym2X=0 I1Cent= 0 IOpClX= 0 NMat=1 NMatS=1 NMatT=0.
 FoFJK:  IHMeth= 1 ICntrl=  100127 DoSepK=F KAlg= 0 I1Cent=           0 FoldK=F
 IRaf=         0 NMat=       1 IRICut=       1 DoRegI=T DoRafI=F ISym2E= 0 IDoP0=0 IntGTp=1.
 FoFCou: FMM=F IPFlag=           0 FMFlag=      100000 FMFlg1=         800
         NFxFlg=           0 DoJE=F BraDBF=F KetDBF=F FulRan=T
         wScrn=  0.000000 ICntrl=    100127 IOpCl=  0 I1Cent=           0 NGrid=           0
         NMat0=    1 NMatS0=      1 NMatT0=    0 NMatD0=    1 NMtDS0=    0 NMtDT0=    0
 Symmetry not used in FoFCou.
 Leave Link  703 at Sun Oct 13 09:49:49 2024, MaxMem=  2684354560 cpu:             102.0 elap:               4.0
 (Enter /usr/local/g16_AVX//g16/l716.exe)
 Dipole        = 1.20395126D+00 8.03871691D-06-4.01374078D-04
 Polarizability= 1.01953646D+02-4.30988847D-05 4.04841158D+01
                 1.19805286D-03 8.81795716D-06 4.04846376D+01
 Full mass-weighted force constant matrix:
 Low frequencies --- -347.4183  -47.9533  -47.8527   -0.0038   -0.0009    0.0026
 Low frequencies ---  153.4760  180.9673  180.9966
 ******    1 imaginary frequencies (negative Signs) ****** 
 Diagonal vibrational polarizability:
      124.2411719      20.4291503      20.4420118
 Harmonic frequencies (cm**-1), IR intensities (KM/Mole), Raman scattering
 activities (A**4/AMU), depolarization ratios for plane and unpolarized
 incident light, reduced masses (AMU), force constants (mDyne/A),
 and normal coordinates:
                      1                      2                      3
                      A                      A                      A
 Frequencies --   -347.4183               167.2210               167.2714
 Red. masses --     10.6855                 5.0155                 5.0162
 Frc consts  --      0.7599                 0.0826                 0.0827
 IR Inten    --    495.4148                21.1134                21.1126
  Atom  AN      X      Y      Z        X      Y      Z        X      Y      Z
     1   6     0.79   0.00  -0.00     0.00   0.02   0.44     0.00   0.44  -0.02
     2  17    -0.03  -0.00   0.00    -0.00  -0.00  -0.11    -0.00  -0.11   0.00
     3   1     0.19  -0.00   0.11    -0.12   0.02   0.47     0.00   0.47  -0.02
     4   1     0.19  -0.10  -0.06     0.06   0.02   0.47     0.10   0.47  -0.02
     5   1     0.19   0.10  -0.06     0.05   0.02   0.47    -0.10   0.47  -0.02
     6   6    -0.34  -0.00   0.00    -0.00   0.00   0.14     0.00   0.14  -0.00
     7   7    -0.34   0.00  -0.00     0.00  -0.01  -0.31    -0.00  -0.31   0.01
                      4                      5                      6
                      A                      A                      A
 Frequencies --    235.8223               421.2200               421.2421
 Red. masses --     15.6580                 4.1743                 4.1741
 Frc consts  --      0.5130                 0.4364                 0.4364
 IR Inten    --     27.8389                 0.1850                 0.1853
  Atom  AN      X      Y      Z        X      Y      Z        X      Y      Z
     1   6    -0.35   0.00   0.00    -0.00   0.00  -0.19     0.00  -0.19  -0.00
     2  17     0.49  -0.00  -0.00     0.00  -0.00   0.02    -0.00   0.02   0.00
     3   1    -0.26   0.00  -0.01     0.52   0.01  -0.32     0.01  -0.32  -0.01
     4   1    -0.26   0.01   0.01    -0.25   0.01  -0.32    -0.46  -0.32  -0.01
     5   1    -0.26  -0.01   0.01    -0.27   0.01  -0.32     0.44  -0.32  -0.01
     6   6    -0.46   0.00  -0.00    -0.00  -0.01   0.45     0.00   0.45   0.01
     7   7    -0.47  -0.00  -0.00     0.00   0.01  -0.21     0.00  -0.21  -0.01
                      7                      8                      9
                      A                      A                      A
 Frequencies --   1004.1881              1004.1990              1183.1439
 Red. masses --      1.2133                 1.2133                 1.0667
 Frc consts  --      0.7209                 0.7209                 0.8798
 IR Inten    --      0.0090                 0.0090                15.7065
  Atom  AN      X      Y      Z        X      Y      Z        X      Y      Z
     1   6     0.00   0.07  -0.08     0.00  -0.08  -0.07    -0.06  -0.00  -0.00
     2  17    -0.00   0.00  -0.00    -0.00  -0.00  -0.00    -0.01   0.00   0.00
     3   1    -0.60  -0.13   0.06    -0.49   0.16   0.05     0.56   0.00  -0.13
     4   1    -0.13  -0.11   0.17     0.77   0.05   0.07     0.56   0.11   0.06
     5   1     0.73  -0.03   0.10    -0.28   0.12   0.15     0.56  -0.11   0.06
     6   6    -0.00  -0.06   0.07    -0.00   0.07   0.06    -0.02  -0.00   0.00
     7   7     0.00   0.01  -0.01     0.00  -0.01  -0.01    -0.04   0.00  -0.00
                     10                     11                     12
                      A                      A                      A
 Frequencies --   1429.0648              1429.0791              2149.6781
 Red. masses --      1.0698                 1.0698                12.4781
 Frc consts  --      1.2872                 1.2872                33.9740
 IR Inten    --      6.9387                 6.9411                 0.8883
  Atom  AN      X      Y      Z        X      Y      Z        X      Y      Z
     1   6    -0.00   0.01  -0.07    -0.00  -0.07  -0.01     0.01   0.00  -0.00
     2  17     0.00  -0.00   0.00     0.00   0.00   0.00    -0.00  -0.00   0.00
     3   1     0.26  -0.07  -0.12     0.02   0.76  -0.01    -0.09  -0.00   0.04
     4   1    -0.11  -0.39   0.58    -0.23   0.07  -0.33    -0.09  -0.03  -0.02
     5   1    -0.15   0.37   0.51     0.21   0.14   0.43    -0.09   0.03  -0.02
     6   6     0.00   0.00  -0.01     0.00  -0.01  -0.00     0.75  -0.00   0.00
     7   7    -0.00  -0.00   0.00     0.00   0.00   0.00    -0.63   0.00  -0.00
                     13                     14                     15
                      A                      A                      A
 Frequencies --   3150.5899              3306.7236              3306.8011
 Red. masses --      1.0163                 1.1171                 1.1171
 Frc consts  --      5.9437                 7.1968                 7.1972
 IR Inten    --      1.7209                 1.2052                 1.2076
  Atom  AN      X      Y      Z        X      Y      Z        X      Y      Z
     1   6    -0.03   0.00  -0.00     0.00   0.00  -0.10    -0.00  -0.10  -0.00
     2  17    -0.00  -0.00  -0.00     0.00  -0.00   0.00     0.00   0.00   0.00
     3   1     0.12  -0.00   0.56     0.18  -0.00   0.79     0.01  -0.02   0.02
     4   1     0.12  -0.49  -0.28    -0.09   0.33   0.18    -0.16   0.60   0.36
     5   1     0.12   0.49  -0.28    -0.09  -0.37   0.19     0.15   0.58  -0.34
     6   6    -0.00   0.00   0.00     0.00  -0.00   0.00     0.00   0.00   0.00
     7   7     0.00  -0.00  -0.00    -0.00   0.00  -0.00    -0.00  -0.00  -0.00

 -------------------
 - Thermochemistry -
 -------------------
 Temperature   298.150 Kelvin.  Pressure   1.00000 Atm.
 Atom     1 has atomic number  6 and mass  12.00000
 Atom     2 has atomic number 17 and mass  34.96885
 Atom     3 has atomic number  1 and mass   1.00783
 Atom     4 has atomic number  1 and mass   1.00783
 Atom     5 has atomic number  1 and mass   1.00783
 Atom     6 has atomic number  6 and mass  12.00000
 Atom     7 has atomic number  7 and mass  14.00307
 Molecular mass:    75.99540 amu.
 Principal axes and moments of inertia in atomic units:
                           1         2         3
     Eigenvalues --    11.993101423.111641423.11189
           X            1.00000   0.00000   0.00002
           Y           -0.00000   0.98917  -0.14681
           Z           -0.00002   0.14681   0.98917
 This molecule is an asymmetric top.
 Rotational symmetry number  1.
 Rotational temperatures (Kelvin)      7.22198     0.06086     0.06086
 Rotational constants (GHZ):         150.48167     1.26817     1.26817
    1 imaginary frequencies ignored.
 Zero-point vibrational energy     115895.7 (Joules/Mol)
                                   27.69973 (Kcal/Mol)
 Warning -- explicit consideration of   5 degrees of freedom as
           vibrations may cause significant error
 Vibrational temperatures:    240.59   240.67   339.30   606.04   606.07
          (Kelvin)           1444.80  1444.82  1702.28  2056.11  2056.13
                             3092.91  4533.00  4757.64  4757.75
 
 Zero-point correction=                           0.044142 (Hartree/Particle)
 Thermal correction to Energy=                    0.049392
 Thermal correction to Enthalpy=                  0.050336
 Thermal correction to Gibbs Free Energy=         0.015935
 Sum of electronic and zero-point Energies=           -592.975081
 Sum of electronic and thermal Energies=              -592.969832
 Sum of electronic and thermal Enthalpies=            -592.968888
 Sum of electronic and thermal Free Energies=         -593.003288
 
                     E (Thermal)             CV                S
                      KCal/Mol        Cal/Mol-Kelvin    Cal/Mol-Kelvin
 Total                   30.994             15.521             72.402
 Electronic               0.000              0.000              0.000
 Translational            0.889              2.981             38.900
 Rotational               0.889              2.981             24.700
 Vibrational             29.216              9.560              8.803
 Vibration     1          0.624              1.883              2.466
 Vibration     2          0.624              1.883              2.466
 Vibration     3          0.655              1.786              1.834
 Vibration     4          0.784              1.424              0.888
 Vibration     5          0.784              1.424              0.888
                       Q            Log10(Q)             Ln(Q)
 Total Bot       0.468040D-07         -7.329717        -16.877298
 Total V=0       0.942602D+13         12.974328         29.874495
 Vib (Bot)       0.322179D-19        -19.491902        -44.881764
 Vib (Bot)    1  0.120623D+01          0.081430          0.187500
 Vib (Bot)    2  0.120585D+01          0.081292          0.187183
 Vib (Bot)    3  0.833047D+00         -0.079330         -0.182665
 Vib (Bot)    4  0.416469D+00         -0.380417         -0.875942
 Vib (Bot)    5  0.416441D+00         -0.380447         -0.876011
 Vib (V=0)       0.648848D+01          0.812143          1.870029
 Vib (V=0)    1  0.180575D+01          0.256659          0.590978
 Vib (V=0)    2  0.180540D+01          0.256573          0.590782
 Vib (V=0)    3  0.147158D+01          0.167784          0.386337
 Vib (V=0)    4  0.115073D+01          0.060973          0.140395
 Vib (V=0)    5  0.115071D+01          0.060966          0.140379
 Electronic      0.100000D+01          0.000000          0.000000
 Translational   0.260396D+08          7.415635         17.075130
 Rotational      0.557892D+05          4.746550         10.929336
 
                                                      RxCoord=-2.69938 DE=31.09
                                                             IR Spectrum
 
      3    3                                      2                           1        1      1                                      
      3    1                                      1                           4        1      0                     4      2  1      
      0    5                                      5                           2        8      0                     2      3  6      
      7    1                                      0                           9        3      4                     1      6  7      
 
      X    X                                      X                           X        X                            X      X  X      
                                                                              X        X                                   X  X      
                                                                              X        X                                   X  X      
                                                                              X        X                                   X  X      
                                                                              X        X                                   X  X      
                                                                              X        X                                   X  X      
                                                                              X        X                                   X  X      
                                                                                                                           X  X      
                                                                                                                           X  X      
                                                                                                                           X  X      
                                                                                                                           X  X      
                                                                                                                           X  X      
                                                                                                                           X  X      
                                                                                                                              X      
                                                                                                                              X      
                                                                                                                              X      
                                                                                                                              X      
                                                                                                                              X      
                                                                                                                              X      
                                                                                                                              X      
 
 -------------------------------------------------------------------
 Center     Atomic                   Forces (Hartrees/Bohr)
 Number     Number              X              Y              Z
 -------------------------------------------------------------------
      1        6           0.068421550   -0.000000649   -0.000014476
      2       17          -0.018746076   -0.000000028    0.000004489
      3        1           0.000164863   -0.000003385    0.001786186
      4        1           0.000159486   -0.001541251   -0.000891682
      5        1           0.000160574    0.001545597   -0.000883694
      6        6          -0.021801458   -0.000000655    0.000012144
      7        7          -0.028358939    0.000000370   -0.000012968
 -------------------------------------------------------------------
 Cartesian Forces:  Max     0.068421550 RMS     0.017350815
 Z-matrix is all fixed cartesians, so copy forces.
 Force constants in Cartesian coordinates: 
                1             2             3             4             5 
      1  0.276241D-01
      2  0.288629D-05  0.649445D+00
      3  0.149899D-04  0.278488D-05  0.649393D+00
      4  0.660790D-02  0.000000D+00  0.000000D+00  0.428560D-01
      5  0.000000D+00 -0.312528D-02  0.000000D+00  0.000000D+00 -0.110174D-02
      6 -0.343436D-05  0.000000D+00 -0.312411D-02  0.000000D+00  0.000000D+00
      7 -0.345356D-01  0.159303D-03 -0.685435D-01 -0.920326D-02 -0.455471D-05
      8  0.152640D-03 -0.480744D-01  0.694549D-03  0.278591D-05 -0.653559D-03
      9 -0.657468D-01  0.694728D-03 -0.347464D+00 -0.129352D-02 -0.488655D-05
     10 -0.345231D-01  0.592787D-01  0.344051D-01 -0.920853D-02 -0.161250D-02
     11  0.568588D-01 -0.272039D+00 -0.130002D+00  0.111724D-02  0.993401D-03
     12  0.330011D-01 -0.130002D+00 -0.123525D+00  0.649163D-03  0.961678D-03
     13 -0.345244D-01 -0.594409D-01  0.341314D-01 -0.920906D-02  0.161724D-02
     14 -0.570147D-01 -0.273243D+00  0.129304D+00 -0.111953D-02  0.100162D-02
     15  0.327386D-01  0.129305D+00 -0.122318D+00  0.644048D-03 -0.956477D-03
     16  0.456967D-01  0.000000D+00  0.000000D+00 -0.160411D-01  0.000000D+00
     17  0.000000D+00 -0.655070D-01  0.000000D+00  0.000000D+00  0.362014D-02
     18 -0.190500D-04  0.000000D+00 -0.655072D-01  0.508185D-05  0.000000D+00
     19  0.236545D-01  0.000000D+00 -0.839310D-05 -0.580202D-02  0.000000D+00
     20  0.000000D+00  0.125437D-01  0.000000D+00  0.000000D+00 -0.734580D-03
     21  0.146609D-04  0.000000D+00  0.125442D-01 -0.361211D-05  0.000000D+00
                6             7             8             9            10 
      6 -0.111011D-02
      7  0.186426D-02  0.582166D-01
      8 -0.487257D-05 -0.164243D-03  0.447887D-01
      9  0.154804D-02  0.708477D-01 -0.727293D-03  0.357959D+00
     10 -0.935697D-03  0.289402D-02 -0.680398D-02 -0.311283D-02  0.582136D-01
     11  0.961649D-03 -0.741049D-03  0.274348D-02  0.318846D-02 -0.612708D-01
     12 -0.951140D-04  0.744542D-02 -0.237532D-01 -0.925839D-02 -0.355631D-01
     13 -0.928031D-03  0.289439D-02  0.681826D-02 -0.308142D-02  0.289400D-02
     14 -0.956462D-03  0.706193D-03  0.264737D-02 -0.313285D-02 -0.607820D-02
     15 -0.104031D-03  0.744892D-02  0.238088D-01 -0.916307D-02 -0.436346D-02
     16  0.276166D-05 -0.181995D-01 -0.132629D-05  0.591872D-03 -0.182057D-01
     17  0.000000D+00  0.506927D-04 -0.204721D-02 -0.240472D-04  0.188560D-01
     18  0.361987D-02 -0.218008D-01 -0.239279D-04  0.832537D-02  0.109465D-01
     19  0.000000D+00 -0.206661D-02 -0.413424D-05  0.179508D-02 -0.206429D-02
     20  0.000000D+00 -0.634147D-05  0.595618D-03  0.588759D-05 -0.236925D-02
     21 -0.734545D-03  0.273804D-02  0.588181D-05 -0.194776D-02 -0.137648D-02
               11            12            13            14            15 
     11  0.279060D+00
     12  0.135979D+00  0.123708D+00
     13  0.609831D-02 -0.433507D-02  0.582146D-01
     14 -0.151616D-01  0.134156D-01  0.614377D-01  0.280320D+00
     15 -0.135263D-01  0.864848D-02 -0.352801D-01 -0.135250D+00  0.122446D+00
     16 -0.510714D-03 -0.296516D-03 -0.182054D-01  0.512443D-03 -0.294279D-03
     17  0.571108D-02  0.450298D-02 -0.189062D-01  0.575318D-02 -0.447898D-02
     18  0.450344D-02  0.567901D-03  0.108586D-01 -0.447958D-02  0.526053D-03
     19 -0.155185D-02 -0.900963D-03 -0.206409D-02  0.155606D-02 -0.893723D-03
     20 -0.130705D-02 -0.110433D-02  0.237560D-02 -0.131736D-02  0.109844D-02
     21 -0.110494D-02 -0.460226D-04 -0.136541D-02  0.109905D-02 -0.357657D-04
               16            17            18            19            20 
     16  0.114840D+01
     17 -0.845062D-05  0.843083D-01
     18  0.317802D-03  0.000000D+00  0.843063D-01
     19 -0.112344D+01  0.787704D-05 -0.308118D-03  0.111179D+01
     20  0.829140D-05 -0.318385D-01  0.000000D+00 -0.808340D-05  0.220582D-01
     21 -0.322439D-03  0.000000D+00 -0.318383D-01  0.315238D-03  0.000000D+00
               21 
     21  0.220582D-01
 Leave Link  716 at Sun Oct 13 09:49:49 2024, MaxMem=  2684354560 cpu:               0.7 elap:               0.1
 (Enter /usr/local/g16_AVX//g16/l103.exe)

 GradGradGradGradGradGradGradGradGradGradGradGradGradGradGradGradGradGrad
 Berny optimization.
 Search for a local minimum.
 Step number   1 out of a maximum of    2
 All quantities printed in internal units (Hartrees-Bohrs-Radians)
 Second derivative matrix not updated -- analytic derivatives used.
 ITU=  0
     Eigenvalues ---   -0.05191   0.00579   0.00579   0.02819   0.02819
     Eigenvalues ---    0.04514   0.07994   0.09593   0.09593   0.12765
     Eigenvalues ---    0.12765   0.41207   0.94199   0.94206   2.25320
 Eigenvalue     1 is  -5.19D-02 should be greater than     0.000000 Eigenvector:
                          X1        X7        X6        Z3        X3
   1                    0.78851  -0.38894  -0.38824   0.11041   0.10838
                          X4        X5        Y5        Y4        X2
   1                    0.10822   0.10822   0.09578  -0.09552  -0.06699
 Quadratic step=1.476D+00 exceeds max=3.000D-01 adjusted using Lamda=-2.059D-01.
 Angle between NR and scaled steps=   4.68 degrees.
 Angle between quadratic step and forces=   8.95 degrees.
 Linear search not attempted -- first point.
 B after Tr=    -0.009633   -0.000000   -0.000001
         Rot=    1.000000    0.000000   -0.000000    0.000000 Ang=  -0.00 deg.
 Variable       Old X    -DE/DX   Delta X   Delta X   Delta X     New X
                                 (Linear)    (Quad)   (Total)
    X1        0.71985   0.06842   0.00000   0.26211   0.25248   0.97233
    Y1        0.00001  -0.00000   0.00000  -0.00000  -0.00000   0.00001
    Z1       -0.00045  -0.00001   0.00000  -0.00002  -0.00002  -0.00047
    X2       -4.25258  -0.01875   0.00000  -0.05518  -0.06481  -4.31740
    Y2       -0.00000  -0.00000   0.00000   0.00000   0.00000  -0.00000
    Z2        0.00021   0.00000   0.00000   0.00001   0.00001   0.00021
    X3        0.25658   0.00016   0.00000   0.01271   0.00308   0.25966
    Y3        0.00463  -0.00000   0.00000  -0.00006  -0.00006   0.00457
    Z3       -1.99210   0.00179   0.00000   0.02640   0.02640  -1.96570
    X4        0.25669   0.00016   0.00000   0.01269   0.00306   0.25975
    Y4        1.72253  -0.00154   0.00000  -0.02284  -0.02284   1.69969
    Z4        0.99935  -0.00089   0.00000  -0.01325  -0.01325   0.98610
    X5        0.25666   0.00016   0.00000   0.01270   0.00307   0.25973
    Y5       -1.72713   0.00155   0.00000   0.02290   0.02290  -1.70423
    Z5        0.99132  -0.00088   0.00000  -0.01314  -0.01314   0.97818
    X6        4.15601  -0.02180   0.00000  -0.08802  -0.09765   4.05836
    Y6        0.00001  -0.00000   0.00000  -0.00000  -0.00000   0.00000
    Z6       -0.00037   0.00001   0.00000   0.00005   0.00004  -0.00033
    X7        6.38587  -0.02836   0.00000  -0.08959  -0.09922   6.28665
    Y7       -0.00001   0.00000   0.00000   0.00000   0.00000  -0.00001
    Z7        0.00029  -0.00001   0.00000  -0.00004  -0.00004   0.00025
         Item               Value     Threshold  Converged?
 Maximum Force            0.068422     0.000450     NO 
 RMS     Force            0.017351     0.000300     NO 
 Maximum Displacement     0.252482     0.001800     NO 
 RMS     Displacement     0.065264     0.001200     NO 
 Predicted change in Energy=-2.549677D-02
 GradGradGradGradGradGradGradGradGradGradGradGradGradGradGradGradGradGrad

 Leave Link  103 at Sun Oct 13 09:49:50 2024, MaxMem=  2684354560 cpu:               0.6 elap:               0.1
 (Enter /usr/local/g16_AVX//g16/l9999.exe)

 ----------------------------------------------------------------------

 Electric dipole moment (input orientation):
 (Debye = 10**-18 statcoulomb cm , SI units = C m)
                  (au)            (Debye)         (10**-30 SI)
   Tot        0.120395D+01      0.306014D+01      0.102075D+02
   x          0.120395D+01      0.306014D+01      0.102075D+02
   y          0.000000D+00      0.000000D+00      0.000000D+00
   z         -0.401374D-03     -0.102019D-02     -0.340299D-02

 Dipole polarizability, Alpha (input orientation).
 (esu units = cm**3 , SI units = C**2 m**2 J**-1)
 Alpha(0;0):
               (au)            (10**-24 esu)      (10**-40 SI)
   iso        0.609741D+02      0.903543D+01      0.100533D+02
   aniso      0.614693D+02      0.910881D+01      0.101349D+02
   xx         0.101954D+03      0.151080D+02      0.168099D+02
   yx        -0.430989D-04     -0.638660D-05     -0.710605D-05
   yy         0.404841D+02      0.599913D+01      0.667493D+01
   zx         0.119805D-02      0.177533D-03      0.197532D-03
   zy         0.000000D+00      0.000000D+00      0.000000D+00
   zz         0.404846D+02      0.599920D+01      0.667502D+01

 ----------------------------------------------------------------------

 Dipole orientation:
     6          0.00021355          0.00000842          0.71984781
    17          0.00121175          0.00002651         -4.25258470
     1          1.99201447          0.00464520          0.25724549
     1         -0.99944278          1.72252044          0.25636738
     1         -0.99139218         -1.72713864          0.25632057
     6         -0.00101704         -0.00002209          4.15600653
     7         -0.00242183         -0.00005399          6.38586789

 Electric dipole moment (dipole orientation):
 (Debye = 10**-18 statcoulomb cm , SI units = C m)
                  (au)            (Debye)         (10**-30 SI)
   Tot        0.120395D+01      0.306014D+01      0.102075D+02
   x          0.000000D+00      0.000000D+00      0.000000D+00
   y          0.000000D+00      0.000000D+00      0.000000D+00
   z          0.120395D+01      0.306014D+01      0.102075D+02

 Dipole polarizability, Alpha (dipole orientation).
 (esu units = cm**3 , SI units = C**2 m**2 J**-1)
 Alpha(0;0):
               (au)            (10**-24 esu)      (10**-40 SI)
   iso        0.609741D+02      0.903543D+01      0.100533D+02
   aniso      0.614693D+02      0.910881D+01      0.101349D+02
   xx         0.404846D+02      0.599921D+01      0.667502D+01
   yx         0.000000D+00      0.000000D+00      0.000000D+00
   yy         0.404841D+02      0.599913D+01      0.667493D+01
   zx        -0.216906D-01     -0.321422D-02     -0.357630D-02
   zy        -0.453675D-03     -0.672277D-04     -0.748010D-04
   zz         0.101954D+03      0.151080D+02      0.168099D+02

 ----------------------------------------------------------------------
 1\1\GINC-NODO11\Freq\RB3LYP\6-31++G(d,p)\C2H3Cl1N1(1-)\ALANQF\13-Oct-2
 024\0\\#p b3lyp 6-31++g(d,p) scf=verytight NoSymm freq=noraman int=ult
 rafine\\RxCoord=-2.69938 DE=31.09\\-1,1\C,0.380927,0.000007,-0.00024\C
 l,-2.250371,-0.000001,0.000109\H,0.135777,0.002452,-1.054174\H,0.13583
 4,0.911523,0.528831\H,0.13582,-0.913958,0.524583\C,2.199264,0.000003,-
 0.000195\N,3.379256,-0.000006,0.000155\\Version=ES64L-G16RevB.01\HF=-5
 93.0192238\RMSD=2.739e-09\RMSF=1.735e-02\ZeroPoint=0.0441423\Thermal=0
 .0493918\Dipole=1.2663152,0.0000089,-0.0004223\DipoleDeriv=2.1873008,0
 .0000002,-0.0000939,-0.0000074,0.0946647,0.0000003,-0.0000371,0.000000
 2,0.094726,-1.4179524,0.0000003,0.000027,0.0000002,-0.8533641,0.,0.000
 049,-0.0000001,-0.8533694,-0.0343261,-0.0000353,0.0154215,-0.000037,0.
 0828869,0.0001047,0.0168184,0.0001057,0.0376406,-0.0343151,-0.0133444,
 -0.0077508,-0.0145897,0.0490653,-0.0196262,-0.0084702,-0.019626,0.0714
 798,-0.0343044,0.0133798,-0.0076874,0.0146346,0.0488824,0.0195218,-0.0
 084033,0.0195207,0.0716614,-0.8625536,0.0000012,-0.0000049,-0.0000075,
 -0.0493115,-0.0000006,0.0003194,-0.0000006,-0.0493204,-0.8038493,-0.00
 00018,0.0000886,0.0000069,-0.3728237,0.0000001,-0.0002762,0.0000001,-0
 .372818\Polar=101.9536461,-0.0000431,40.4841158,0.0011981,0.0000088,40
 .4846376\Quadrupole=-24.664481,12.3323237,12.3321572,0.0000358,0.00000
 09,0.0000121\PG=C01 [X(C2H3Cl1N1)]\NImag=1\\0.02762409,0.00000289,0.64
 944523,0.00001499,0.00000278,0.64939344,0.00660790,0.,-0.00000041,0.04
 285604,0.00000035,-0.00312528,0.,-0.00000042,-0.00110174,-0.00000343,0
 .,-0.00312411,-0.00000075,-0.00000030,-0.00111011,-0.03453565,0.000159
 30,-0.06854349,-0.00920326,-0.00000455,0.00186426,0.05821663,0.0001526
 4,-0.04807442,0.00069455,0.00000279,-0.00065356,-0.00000487,-0.0001642
 4,0.04478871,-0.06574684,0.00069473,-0.34746358,-0.00129352,-0.0000048
 9,0.00154804,0.07084767,-0.00072729,0.35795938,-0.03452313,0.05927874,
 0.03440507,-0.00920853,-0.00161250,-0.00093570,0.00289402,-0.00680398,
 -0.00311283,0.05821359,0.05685885,-0.27203926,-0.13000173,0.00111724,0
 .00099340,0.00096165,-0.00074105,0.00274348,0.00318846,-0.06127078,0.2
 7905989,0.03300111,-0.13000218,-0.12352483,0.00064916,0.00096168,-0.00
 009511,0.00744542,-0.02375317,-0.00925839,-0.03556314,0.13597940,0.123
 70797,-0.03452440,-0.05944092,0.03413144,-0.00920906,0.00161724,-0.000
 92803,0.00289439,0.00681826,-0.00308142,0.00289400,0.00609831,-0.00433
 507,0.05821459,-0.05701471,-0.27324296,0.12930442,-0.00111953,0.001001
 62,-0.00095646,0.00070619,0.00264737,-0.00313285,-0.00607820,-0.015161
 55,0.01341563,0.06143775,0.28031970,0.03273857,0.12930467,-0.12231787,
 0.00064405,-0.00095648,-0.00010403,0.00744892,0.02380883,-0.00916307,-
 0.00436346,-0.01352627,0.00864848,-0.03528008,-0.13525021,0.12244620,0
 .04569671,-0.00000015,0.00000080,-0.01604107,-0.00000010,0.00000276,-0
 .01819952,-0.00000133,0.00059187,-0.01820567,-0.00051071,-0.00029652,-
 0.01820543,0.00051244,-0.00029428,1.14839877,0.00000030,-0.06550698,-0
 .00000004,-0.00000017,0.00362014,-0.00000002,0.00005069,-0.00204721,-0
 .00002405,0.01885597,0.00571108,0.00450298,-0.01890622,0.00575318,-0.0
 0447898,-0.00000845,0.08430829,-0.00001905,-0.00000002,-0.06550724,0.0
 0000508,-0.00000002,0.00361987,-0.02180083,-0.00002393,0.00832537,0.01
 094655,0.00450344,0.00056790,0.01085857,-0.00447958,0.00052605,0.00031
 780,0.00000010,0.08430630,0.02365448,0.00000015,-0.00000839,-0.0058020
 2,-0.00000002,0.00000088,-0.00206661,-0.00000413,0.00179508,-0.0020642
 9,-0.00155185,-0.00090096,-0.00206409,0.00155606,-0.00089372,-1.123443
 79,0.00000788,-0.00030812,1.11178632,-0.00000031,0.01254366,0.00000002
 ,0.00000010,-0.00073458,0.,-0.00000634,0.00059562,0.00000589,-0.002369
 25,-0.00130705,-0.00110433,0.00237560,-0.00131736,0.00109844,0.0000082
 9,-0.03183850,0.,-0.00000808,0.02205821,0.00001466,0.00000002,0.012544
 19,-0.00000361,0.,-0.00073454,0.00273804,0.00000588,-0.00194776,-0.001
 37648,-0.00110494,-0.00004602,-0.00136541,0.00109905,-0.00003577,-0.00
 032244,0.,-0.03183826,0.00031524,-0.00000001,0.02205816\\-0.06842155,0
 .00000065,0.00001448,0.01874608,0.00000003,-0.00000449,-0.00016486,0.0
 0000338,-0.00178619,-0.00015949,0.00154125,0.00089168,-0.00016057,-0.0
 0154560,0.00088369,0.02180146,0.00000065,-0.00001214,0.02835894,-0.000
 00037,0.00001297\\\@


 REPARTEE - WHAT YOU THINK OF AFTER YOU BECOME A DEPARTEE.
 Job cpu time:       0 days  0 hours  5 minutes 15.4 seconds.
 Elapsed time:       0 days  0 hours  0 minutes 13.1 seconds.
 File lengths (MBytes):  RWF=     88 Int=      0 D2E=      0 Chk=      2 Scr=      2
 Normal termination of Gaussian 16 at Sun Oct 13 09:49:50 2024.
