 Entering Gaussian System, Link 0=g16
 Initial command:
 /usr/local/g16_AVX//g16/l1.exe "/scratch/alanqf/0075-54517.ixchel.mda.cinvestav.mx/Gau-38530.inp" -scrdir="/scratch/alanqf/0075-54517.ixchel.mda.cinvestav.mx/"
 Entering Link 1 = /usr/local/g16_AVX//g16/l1.exe PID=     38531.
  
 Copyright (c) 1988-2017, Gaussian, Inc.  All Rights Reserved.
  
 This is part of the Gaussian(R) 16 program.  It is based on
 the Gaussian(R) 09 system (copyright 2009, Gaussian, Inc.),
 the Gaussian(R) 03 system (copyright 2003, Gaussian, Inc.),
 the Gaussian(R) 98 system (copyright 1998, Gaussian, Inc.),
 the Gaussian(R) 94 system (copyright 1995, Gaussian, Inc.),
 the Gaussian 92(TM) system (copyright 1992, Gaussian, Inc.),
 the Gaussian 90(TM) system (copyright 1990, Gaussian, Inc.),
 the Gaussian 88(TM) system (copyright 1988, Gaussian, Inc.),
 the Gaussian 86(TM) system (copyright 1986, Carnegie Mellon
 University), and the Gaussian 82(TM) system (copyright 1983,
 Carnegie Mellon University). Gaussian is a federally registered
 trademark of Gaussian, Inc.
  
 This software contains proprietary and confidential information,
 including trade secrets, belonging to Gaussian, Inc.
  
 This software is provided under written license and may be
 used, copied, transmitted, or stored only in accord with that
 written license.
  
 The following legend is applicable only to US Government
 contracts under FAR:
  
                    RESTRICTED RIGHTS LEGEND
  
 Use, reproduction and disclosure by the US Government is
 subject to restrictions as set forth in subparagraphs (a)
 and (c) of the Commercial Computer Software - Restricted
 Rights clause in FAR 52.227-19.
  
 Gaussian, Inc.
 340 Quinnipiac St., Bldg. 40, Wallingford CT 06492
  
  
 ---------------------------------------------------------------
 Warning -- This program may not be used in any manner that
 competes with the business of Gaussian, Inc. or will provide
 assistance to any competitor of Gaussian, Inc.  The licensee
 of this program is prohibited from giving any competitor of
 Gaussian, Inc. access to this program.  By using this program,
 the user acknowledges that Gaussian, Inc. is engaged in the
 business of creating and licensing software in the field of
 computational chemistry and represents and warrants to the
 licensee that it is not a competitor of Gaussian, Inc. and that
 it will not use this program in any manner prohibited above.
 ---------------------------------------------------------------
  

 Cite this work as:
 Gaussian 16, Revision B.01,
 M. J. Frisch, G. W. Trucks, H. B. Schlegel, G. E. Scuseria, 
 M. A. Robb, J. R. Cheeseman, G. Scalmani, V. Barone, 
 G. A. Petersson, H. Nakatsuji, X. Li, M. Caricato, A. V. Marenich, 
 J. Bloino, B. G. Janesko, R. Gomperts, B. Mennucci, H. P. Hratchian, 
 J. V. Ortiz, A. F. Izmaylov, J. L. Sonnenberg, D. Williams-Young, 
 F. Ding, F. Lipparini, F. Egidi, J. Goings, B. Peng, A. Petrone, 
 T. Henderson, D. Ranasinghe, V. G. Zakrzewski, J. Gao, N. Rega, 
 G. Zheng, W. Liang, M. Hada, M. Ehara, K. Toyota, R. Fukuda, 
 J. Hasegawa, M. Ishida, T. Nakajima, Y. Honda, O. Kitao, H. Nakai, 
 T. Vreven, K. Throssell, J. A. Montgomery, Jr., J. E. Peralta, 
 F. Ogliaro, M. J. Bearpark, J. J. Heyd, E. N. Brothers, K. N. Kudin, 
 V. N. Staroverov, T. A. Keith, R. Kobayashi, J. Normand, 
 K. Raghavachari, A. P. Rendell, J. C. Burant, S. S. Iyengar, 
 J. Tomasi, M. Cossi, J. M. Millam, M. Klene, C. Adamo, R. Cammi, 
 J. W. Ochterski, R. L. Martin, K. Morokuma, O. Farkas, 
 J. B. Foresman, and D. J. Fox, Gaussian, Inc., Wallingford CT, 2016.
 
 ******************************************
 Gaussian 16:  ES64L-G16RevB.01 20-Dec-2017
                13-Oct-2024 
 ******************************************
 %NProcShared=26
 Will use up to   26 processors via shared memory.
 %MEM=20GB
 %chk=CHKfiles/0075.chk
 ---------------------------------------------------------------------
 #p b3lyp 6-31++g(d,p) scf=verytight NoSymm freq=noraman int=ultrafine
 ---------------------------------------------------------------------
 1/10=4,30=1,38=1/1,3;
 2/12=2,15=1,17=6,18=5,40=1/2;
 3/5=1,6=6,7=1111,11=2,25=1,30=1,71=2,74=-5,75=-5,140=1/1,2,3;
 4//1;
 5/5=2,17=3,38=5,98=1/2;
 8/6=4,10=90,11=11/1;
 11/6=1,8=1,9=11,15=111,16=1,31=1/1,2,10;
 10/6=1,31=1/2;
 6/7=2,8=2,9=2,10=2,28=1/1;
 7/8=1,10=1,25=1,30=1/1,2,3,16;
 1/10=4,30=1/3;
 99//99;
 Leave Link    1 at Sun Oct 13 09:49:37 2024, MaxMem=  2684354560 cpu:               1.8 elap:               0.1
 (Enter /usr/local/g16_AVX//g16/l101.exe)
 -------------------------
 RxCoord=-2.59940 DE=32.70
 -------------------------
 Symbolic Z-matrix:
 Charge = -1 Multiplicity = 1
 C                     0.36761   0.00001  -0.00024 
 Cl                   -2.24898  0.         0.00011 
 H                     0.13255   0.00246  -1.05598 
 H                     0.1326    0.91309   0.52973 
 H                     0.13258  -0.91552   0.52547 
 C                     2.20393   0.       -0.0002 
 N                     3.38389  -0.00001   0.00016 
 
 ITRead=  0  0  0  0  0  0  0
 MicOpt= -1 -1 -1 -1 -1 -1 -1
 NAtoms=      7 NQM=        7 NQMF=       0 NMMI=      0 NMMIF=      0
                NMic=       0 NMicF=      0.
                    Isotopes and Nuclear Properties:
 (Nuclear quadrupole moments (NQMom) in fm**2, nuclear magnetic moments (NMagM)
  in nuclear magnetons)

  Atom         1           2           3           4           5           6           7
 IAtWgt=          12          35           1           1           1          12          14
 AtmWgt=  12.0000000  34.9688527   1.0078250   1.0078250   1.0078250  12.0000000  14.0030740
 NucSpn=           0           3           1           1           1           0           2
 AtZEff=  -0.0000000  -0.0000000  -0.0000000  -0.0000000  -0.0000000  -0.0000000  -0.0000000
 NQMom=    0.0000000  -8.1650000   0.0000000   0.0000000   0.0000000   0.0000000   2.0440000
 NMagM=    0.0000000   0.8218740   2.7928460   2.7928460   2.7928460   0.0000000   0.4037610
 AtZNuc=   6.0000000  17.0000000   1.0000000   1.0000000   1.0000000   6.0000000   7.0000000
 Leave Link  101 at Sun Oct 13 09:49:37 2024, MaxMem=  2684354560 cpu:               3.3 elap:               0.2
 (Enter /usr/local/g16_AVX//g16/l103.exe)

 GradGradGradGradGradGradGradGradGradGradGradGradGradGradGradGradGradGrad
 Berny optimization.
 Initialization pass.
 Trust Radius=3.00D-01 FncErr=1.00D-07 GrdErr=1.00D-07 EigMax=2.50D+02 EigMin=1.00D-04
 Number of steps in this run=      2 maximum allowed number of steps=      2.
 GradGradGradGradGradGradGradGradGradGradGradGradGradGradGradGradGradGrad

 Leave Link  103 at Sun Oct 13 09:49:37 2024, MaxMem=  2684354560 cpu:               1.5 elap:               0.1
 (Enter /usr/local/g16_AVX//g16/l202.exe)
                          Input orientation:                          
 ---------------------------------------------------------------------
 Center     Atomic      Atomic             Coordinates (Angstroms)
 Number     Number       Type             X           Y           Z
 ---------------------------------------------------------------------
      1          6           0        0.367611    0.000007   -0.000240
      2         17           0       -2.248979   -0.000002    0.000110
      3          1           0        0.132553    0.002457   -1.055975
      4          1           0        0.132596    0.913085    0.529726
      5          1           0        0.132582   -0.915524    0.525471
      6          6           0        2.203933    0.000003   -0.000197
      7          7           0        3.383889   -0.000006    0.000157
 ---------------------------------------------------------------------
                    Distance matrix (angstroms):
                    1          2          3          4          5
     1  C    0.000000
     2  Cl   2.616590   0.000000
     3  H    1.081589   2.605190   0.000000
     4  H    1.081576   2.605018   1.828576   0.000000
     5  H    1.081576   2.604999   1.828568   1.828614   0.000000
     6  C    1.836322   4.452912   2.324928   2.324860   2.324868
     7  N    3.016278   5.632868   3.418568   3.418345   3.418351
                    6          7
     6  C    0.000000
     7  N    1.179956   0.000000
 Symmetry turned off by external request.
 This structure is nearly, but not quite of a higher symmetry.
 Consider Symm=Loose if the higher symmetry is desired.
 Stoichiometry    C2H3ClN(1-)
 Framework group  C1[X(C2H3ClN)]
 Deg. of freedom    15
 Full point group                 C1      NOp   1
 Rotational constants (GHZ):         149.9688314           1.2670529           1.2670526
 Leave Link  202 at Sun Oct 13 09:49:37 2024, MaxMem=  2684354560 cpu:               2.2 elap:               0.2
 (Enter /usr/local/g16_AVX//g16/l301.exe)
 Standard basis: 6-31++G(d,p) (6D, 7F)
 Ernie: Thresh=  0.10000D-02 Tol=  0.10000D-05 Strict=F.
    98 basis functions,   176 primitive gaussians,    98 cartesian basis functions
    20 alpha electrons       20 beta electrons
       nuclear repulsion energy       107.8904684678 Hartrees.
 IExCor=  402 DFT=T Ex+Corr=B3LYP ExCW=0 ScaHFX=  0.200000
 ScaDFX=  0.800000  0.720000  1.000000  0.810000 ScalE2=  1.000000  1.000000
 IRadAn=      5 IRanWt=     -1 IRanGd=            0 ICorTp=0 IEmpDi=  4
 NAtoms=    7 NActive=    7 NUniq=    7 SFac= 1.00D+00 NAtFMM=   60 NAOKFM=F Big=F
 Integral buffers will be    131072 words long.
 Raffenetti 2 integral format.
 Two-electron integral symmetry is turned off.
 Leave Link  301 at Sun Oct 13 09:49:37 2024, MaxMem=  2684354560 cpu:               2.5 elap:               0.2
 (Enter /usr/local/g16_AVX//g16/l302.exe)
 NPDir=0 NMtPBC=     1 NCelOv=     1 NCel=       1 NClECP=     1 NCelD=      1
         NCelK=      1 NCelE2=     1 NClLst=     1 CellRange=     0.0.
 One-electron integrals computed using PRISM.
 NBasis=    98 RedAO= T EigKep=  3.91D-05  NBF=    98
 NBsUse=    98 1.00D-06 EigRej= -1.00D+00 NBFU=    98
 Precomputing XC quadrature grid using
 IXCGrd= 4 IRadAn=           5 IRanWt=          -1 IRanGd=           0 AccXCQ= 0.00D+00.
 Generated NRdTot=       0 NPtTot=           0 NUsed=           0 NTot=          32
 NSgBfM=    98    98    98    98    98 MxSgAt=     7 MxSgA2=     7.
 Leave Link  302 at Sun Oct 13 09:49:38 2024, MaxMem=  2684354560 cpu:              10.2 elap:               0.5
 (Enter /usr/local/g16_AVX//g16/l303.exe)
 DipDrv:  MaxL=1.
 Leave Link  303 at Sun Oct 13 09:49:38 2024, MaxMem=  2684354560 cpu:               2.1 elap:               0.1
 (Enter /usr/local/g16_AVX//g16/l401.exe)
 ExpMin= 3.60D-02 ExpMax= 2.52D+04 ExpMxC= 3.78D+03 IAcc=3 IRadAn=         5 AccDes= 0.00D+00
 Harris functional with IExCor=  402 and IRadAn=       5 diagonalized for initial guess.
 HarFok:  IExCor=  402 AccDes= 0.00D+00 IRadAn=         5 IDoV= 1 UseB2=F ITyADJ=14
 ICtDFT=  3500011 ScaDFX=  1.000000  1.000000  1.000000  1.000000
 FoFCou: FMM=F IPFlag=           0 FMFlag=      100000 FMFlg1=           0
         NFxFlg=           0 DoJE=T BraDBF=F KetDBF=T FulRan=T
         wScrn=  0.000000 ICntrl=       500 IOpCl=  0 I1Cent=   200000004 NGrid=           0
         NMat0=    1 NMatS0=      1 NMatT0=    0 NMatD0=    1 NMtDS0=    0 NMtDT0=    0
 Symmetry not used in FoFCou.
 Harris En= -593.057895708733    
 JPrj=0 DoOrth=F DoCkMO=F.
 Leave Link  401 at Sun Oct 13 09:49:38 2024, MaxMem=  2684354560 cpu:               5.5 elap:               0.3
 (Enter /usr/local/g16_AVX//g16/l502.exe)
 Keep R1 ints in memory in canonical form, NReq=35752921.
 FoFCou: FMM=F IPFlag=           0 FMFlag=           0 FMFlg1=           0
         NFxFlg=           0 DoJE=F BraDBF=F KetDBF=F FulRan=T
         wScrn=  0.000000 ICntrl=       600 IOpCl=  0 I1Cent=           0 NGrid=           0
         NMat0=    1 NMatS0=   4851 NMatT0=    0 NMatD0=    1 NMtDS0=    0 NMtDT0=    0
 Symmetry not used in FoFCou.
 Two-electron integral symmetry not used.
 Closed shell SCF:
 Using DIIS extrapolation, IDIIS=  1040.
 NGot=  2684354560 LenX=  2672563419 LenY=  2672553374
 Requested convergence on RMS density matrix=1.00D-08 within 128 cycles.
 Requested convergence on MAX density matrix=1.00D-06.
 Requested convergence on             energy=1.00D-06.
 No special actions if energy rises.

 Cycle   1  Pass 1  IDiag  1:
 E= -592.915784238933    
 DIIS: error= 2.91D-02 at cycle   1 NSaved=   1.
 NSaved= 1 IEnMin= 1 EnMin= -592.915784238933     IErMin= 1 ErrMin= 2.91D-02
 ErrMax= 2.91D-02  0.00D+00 EMaxC= 1.00D-01 BMatC= 9.79D-02 BMatP= 9.79D-02
 IDIUse=3 WtCom= 7.09D-01 WtEn= 2.91D-01
 Coeff-Com:  0.100D+01
 Coeff-En:   0.100D+01
 Coeff:      0.100D+01
 Gap=     0.216 Goal=   None    Shift=    0.000
 GapD=    0.216 DampG=1.000 DampE=0.500 DampFc=0.5000 IDamp=-1.
 Damping current iteration by 5.00D-01
 RMSDP=9.61D-03 MaxDP=1.91D-01              OVMax= 2.05D-01

 Cycle   2  Pass 1  IDiag  1:
 E= -592.938518883072     Delta-E=       -0.022734644139 Rises=F Damp=T
 DIIS: error= 2.00D-02 at cycle   2 NSaved=   2.
 NSaved= 2 IEnMin= 2 EnMin= -592.938518883072     IErMin= 2 ErrMin= 2.00D-02
 ErrMax= 2.00D-02  0.00D+00 EMaxC= 1.00D-01 BMatC= 2.51D-02 BMatP= 9.79D-02
 IDIUse=3 WtCom= 8.00D-01 WtEn= 2.00D-01
 Coeff-Com:  0.267D+00 0.733D+00
 Coeff-En:   0.380D+00 0.620D+00
 Coeff:      0.290D+00 0.710D+00
 Gap=     0.161 Goal=   None    Shift=    0.000
 RMSDP=3.25D-03 MaxDP=5.54D-02 DE=-2.27D-02 OVMax= 1.86D-01

 Cycle   3  Pass 1  IDiag  1:
 E= -592.997250276056     Delta-E=       -0.058731392984 Rises=F Damp=F
 DIIS: error= 1.84D-02 at cycle   3 NSaved=   3.
 NSaved= 3 IEnMin= 3 EnMin= -592.997250276056     IErMin= 3 ErrMin= 1.84D-02
 ErrMax= 1.84D-02  0.00D+00 EMaxC= 1.00D-01 BMatC= 2.01D-02 BMatP= 2.51D-02
 IDIUse=3 WtCom= 8.16D-01 WtEn= 1.84D-01
 Coeff-Com:  0.671D-01 0.457D+00 0.476D+00
 Coeff-En:   0.000D+00 0.000D+00 0.100D+01
 Coeff:      0.547D-01 0.373D+00 0.572D+00
 Gap=     0.183 Goal=   None    Shift=    0.000
 RMSDP=2.88D-03 MaxDP=4.80D-02 DE=-5.87D-02 OVMax= 7.64D-02

 Cycle   4  Pass 1  IDiag  1:
 E= -593.009006126019     Delta-E=       -0.011755849963 Rises=F Damp=F
 DIIS: error= 1.30D-02 at cycle   4 NSaved=   4.
 NSaved= 4 IEnMin= 4 EnMin= -593.009006126019     IErMin= 4 ErrMin= 1.30D-02
 ErrMax= 1.30D-02  0.00D+00 EMaxC= 1.00D-01 BMatC= 8.73D-03 BMatP= 2.01D-02
 IDIUse=3 WtCom= 8.70D-01 WtEn= 1.30D-01
 Coeff-Com:  0.334D-01 0.321D-01 0.376D+00 0.558D+00
 Coeff-En:   0.000D+00 0.000D+00 0.336D+00 0.664D+00
 Coeff:      0.290D-01 0.279D-01 0.371D+00 0.572D+00
 Gap=     0.175 Goal=   None    Shift=    0.000
 RMSDP=1.08D-03 MaxDP=1.74D-02 DE=-1.18D-02 OVMax= 3.14D-02

 Cycle   5  Pass 1  IDiag  1:
 E= -593.016862094707     Delta-E=       -0.007855968688 Rises=F Damp=F
 DIIS: error= 1.19D-03 at cycle   5 NSaved=   5.
 NSaved= 5 IEnMin= 5 EnMin= -593.016862094707     IErMin= 5 ErrMin= 1.19D-03
 ErrMax= 1.19D-03  0.00D+00 EMaxC= 1.00D-01 BMatC= 1.36D-04 BMatP= 8.73D-03
 IDIUse=3 WtCom= 9.88D-01 WtEn= 1.19D-02
 Coeff-Com:  0.108D-01-0.102D-01 0.159D+00 0.294D+00 0.546D+00
 Coeff-En:   0.000D+00 0.000D+00 0.000D+00 0.000D+00 0.100D+01
 Coeff:      0.107D-01-0.101D-01 0.157D+00 0.291D+00 0.551D+00
 Gap=     0.177 Goal=   None    Shift=    0.000
 RMSDP=2.20D-04 MaxDP=3.98D-03 DE=-7.86D-03 OVMax= 4.22D-03

 Cycle   6  Pass 1  IDiag  1:
 E= -593.017010379214     Delta-E=       -0.000148284508 Rises=F Damp=F
 DIIS: error= 1.73D-04 at cycle   6 NSaved=   6.
 NSaved= 6 IEnMin= 6 EnMin= -593.017010379214     IErMin= 6 ErrMin= 1.73D-04
 ErrMax= 1.73D-04  0.00D+00 EMaxC= 1.00D-01 BMatC= 3.25D-06 BMatP= 1.36D-04
 IDIUse=3 WtCom= 9.98D-01 WtEn= 1.73D-03
 Coeff-Com:  0.197D-02-0.417D-02 0.294D-01 0.573D-01 0.198D+00 0.718D+00
 Coeff-En:   0.000D+00 0.000D+00 0.000D+00 0.000D+00 0.000D+00 0.100D+01
 Coeff:      0.197D-02-0.416D-02 0.293D-01 0.572D-01 0.197D+00 0.718D+00
 Gap=     0.177 Goal=   None    Shift=    0.000
 RMSDP=9.42D-05 MaxDP=2.84D-03 DE=-1.48D-04 OVMax= 7.63D-04

 Cycle   7  Pass 1  IDiag  1:
 E= -593.017014353608     Delta-E=       -0.000003974394 Rises=F Damp=F
 DIIS: error= 1.92D-05 at cycle   7 NSaved=   7.
 NSaved= 7 IEnMin= 7 EnMin= -593.017014353608     IErMin= 7 ErrMin= 1.92D-05
 ErrMax= 1.92D-05  0.00D+00 EMaxC= 1.00D-01 BMatC= 4.27D-08 BMatP= 3.25D-06
 IDIUse=1 WtCom= 1.00D+00 WtEn= 0.00D+00
 Coeff-Com:  0.153D-03-0.717D-03 0.153D-02 0.304D-02 0.286D-01 0.168D+00
 Coeff-Com:  0.799D+00
 Coeff:      0.153D-03-0.717D-03 0.153D-02 0.304D-02 0.286D-01 0.168D+00
 Coeff:      0.799D+00
 Gap=     0.177 Goal=   None    Shift=    0.000
 RMSDP=8.04D-06 MaxDP=2.13D-04 DE=-3.97D-06 OVMax= 1.47D-04

 Cycle   8  Pass 1  IDiag  1:
 E= -593.017014389082     Delta-E=       -0.000000035474 Rises=F Damp=F
 DIIS: error= 8.59D-06 at cycle   8 NSaved=   8.
 NSaved= 8 IEnMin= 8 EnMin= -593.017014389082     IErMin= 8 ErrMin= 8.59D-06
 ErrMax= 8.59D-06  0.00D+00 EMaxC= 1.00D-01 BMatC= 1.29D-08 BMatP= 4.27D-08
 IDIUse=1 WtCom= 1.00D+00 WtEn= 0.00D+00
 Coeff-Com: -0.474D-05-0.154D-03-0.871D-03-0.160D-02 0.428D-02 0.527D-01
 Coeff-Com:  0.436D+00 0.509D+00
 Coeff:     -0.474D-05-0.154D-03-0.871D-03-0.160D-02 0.428D-02 0.527D-01
 Coeff:      0.436D+00 0.509D+00
 Gap=     0.177 Goal=   None    Shift=    0.000
 RMSDP=2.27D-06 MaxDP=5.25D-05 DE=-3.55D-08 OVMax= 4.42D-05

 Cycle   9  Pass 1  IDiag  1:
 E= -593.017014404149     Delta-E=       -0.000000015067 Rises=F Damp=F
 DIIS: error= 1.07D-06 at cycle   9 NSaved=   9.
 NSaved= 9 IEnMin= 9 EnMin= -593.017014404149     IErMin= 9 ErrMin= 1.07D-06
 ErrMax= 1.07D-06  0.00D+00 EMaxC= 1.00D-01 BMatC= 1.75D-10 BMatP= 1.29D-08
 IDIUse=1 WtCom= 1.00D+00 WtEn= 0.00D+00
 Coeff-Com: -0.380D-05-0.431D-06-0.281D-03-0.447D-03-0.111D-02 0.309D-03
 Coeff-Com:  0.372D-01 0.104D+00 0.860D+00
 Coeff:     -0.380D-05-0.431D-06-0.281D-03-0.447D-03-0.111D-02 0.309D-03
 Coeff:      0.372D-01 0.104D+00 0.860D+00
 Gap=     0.177 Goal=   None    Shift=    0.000
 RMSDP=1.02D-06 MaxDP=2.78D-05 DE=-1.51D-08 OVMax= 7.59D-06

 Cycle  10  Pass 1  IDiag  1:
 E= -593.017014404378     Delta-E=       -0.000000000229 Rises=F Damp=F
 DIIS: error= 4.44D-07 at cycle  10 NSaved=  10.
 NSaved=10 IEnMin=10 EnMin= -593.017014404378     IErMin=10 ErrMin= 4.44D-07
 ErrMax= 4.44D-07  0.00D+00 EMaxC= 1.00D-01 BMatC= 7.23D-12 BMatP= 1.75D-10
 IDIUse=1 WtCom= 1.00D+00 WtEn= 0.00D+00
 Coeff-Com: -0.678D-06 0.315D-05-0.583D-04-0.843D-04-0.502D-03-0.181D-02
 Coeff-Com: -0.370D-02 0.158D-01 0.272D+00 0.718D+00
 Coeff:     -0.678D-06 0.315D-05-0.583D-04-0.843D-04-0.502D-03-0.181D-02
 Coeff:     -0.370D-02 0.158D-01 0.272D+00 0.718D+00
 Gap=     0.177 Goal=   None    Shift=    0.000
 RMSDP=1.08D-07 MaxDP=2.31D-06 DE=-2.29D-10 OVMax= 1.13D-06

 Cycle  11  Pass 1  IDiag  1:
 E= -593.017014404387     Delta-E=       -0.000000000009 Rises=F Damp=F
 DIIS: error= 3.84D-08 at cycle  11 NSaved=  11.
 NSaved=11 IEnMin=11 EnMin= -593.017014404387     IErMin=11 ErrMin= 3.84D-08
 ErrMax= 3.84D-08  0.00D+00 EMaxC= 1.00D-01 BMatC= 1.52D-13 BMatP= 7.23D-12
 IDIUse=1 WtCom= 1.00D+00 WtEn= 0.00D+00
 Coeff-Com: -0.347D-06 0.861D-06 0.625D-07-0.223D-05-0.333D-04-0.314D-03
 Coeff-Com: -0.175D-02-0.190D-02 0.104D-02 0.884D-01 0.915D+00
 Coeff:     -0.347D-06 0.861D-06 0.625D-07-0.223D-05-0.333D-04-0.314D-03
 Coeff:     -0.175D-02-0.190D-02 0.104D-02 0.884D-01 0.915D+00
 Gap=     0.177 Goal=   None    Shift=    0.000
 RMSDP=3.28D-08 MaxDP=9.42D-07 DE=-9.21D-12 OVMax= 2.12D-07

 Cycle  12  Pass 1  IDiag  1:
 E= -593.017014404389     Delta-E=       -0.000000000001 Rises=F Damp=F
 DIIS: error= 8.24D-09 at cycle  12 NSaved=  12.
 NSaved=12 IEnMin=12 EnMin= -593.017014404389     IErMin=12 ErrMin= 8.24D-09
 ErrMax= 8.24D-09  0.00D+00 EMaxC= 1.00D-01 BMatC= 3.47D-15 BMatP= 1.52D-13
 IDIUse=1 WtCom= 1.00D+00 WtEn= 0.00D+00
 Coeff-Com: -0.627D-07 0.752D-07 0.643D-06 0.982D-06 0.462D-05 0.156D-04
 Coeff-Com:  0.319D-04-0.403D-03-0.341D-02-0.293D-02 0.494D-01 0.957D+00
 Coeff:     -0.627D-07 0.752D-07 0.643D-06 0.982D-06 0.462D-05 0.156D-04
 Coeff:      0.319D-04-0.403D-03-0.341D-02-0.293D-02 0.494D-01 0.957D+00
 Gap=     0.177 Goal=   None    Shift=    0.000
 RMSDP=3.01D-09 MaxDP=7.74D-08 DE=-1.48D-12 OVMax= 2.44D-08

 SCF Done:  E(RB3LYP) =  -593.017014404     A.U. after   12 cycles
            NFock= 12  Conv=0.30D-08     -V/T= 2.0050
 KE= 5.900752929147D+02 PE=-1.626081149464D+03 EE= 3.350983736770D+02
 Leave Link  502 at Sun Oct 13 09:49:40 2024, MaxMem=  2684354560 cpu:              32.1 elap:               1.4
 (Enter /usr/local/g16_AVX//g16/l801.exe)
 DoSCS=F DFT=T ScalE2(SS,OS)=  1.000000  1.000000
 Range of M.O.s used for correlation:     1    98
 NBasis=    98 NAE=    20 NBE=    20 NFC=     0 NFV=     0
 NROrb=     98 NOA=    20 NOB=    20 NVA=    78 NVB=    78

 **** Warning!!: The largest alpha MO coefficient is  0.82643652D+02

 Leave Link  801 at Sun Oct 13 09:49:40 2024, MaxMem=  2684354560 cpu:               1.7 elap:               0.1
 (Enter /usr/local/g16_AVX//g16/l1101.exe)
 Using compressed storage, NAtomX=     7.
 Will process      8 centers per pass.
 Leave Link 1101 at Sun Oct 13 09:49:41 2024, MaxMem=  2684354560 cpu:              18.6 elap:               1.0
 (Enter /usr/local/g16_AVX//g16/l1102.exe)
 Symmetrizing basis deriv contribution to polar:
 IMax=3 JMax=2 DiffMx= 0.00D+00
 Leave Link 1102 at Sun Oct 13 09:49:41 2024, MaxMem=  2684354560 cpu:               2.9 elap:               0.2
 (Enter /usr/local/g16_AVX//g16/l1110.exe)
 Forming Gx(P) for the SCF density, NAtomX=     7.
 Integral derivatives from FoFJK, PRISM(SPDF).
 Do as many integral derivatives as possible in FoFJK.
 G2DrvN: MDV=    2684353878.
 G2DrvN: will do     8 centers at a time, making    1 passes.
 Calling FoFCou, ICntrl=  3107 FMM=F I1Cent=   0 AccDes= 0.00D+00.
 FoFJK:  IHMeth= 1 ICntrl=    3107 DoSepK=F KAlg= 0 I1Cent=           0 FoldK=F
 IRaf=         0 NMat=       1 IRICut=       1 DoRegI=T DoRafI=F ISym2E= 0 IDoP0=0 IntGTp=1.
 FoFCou: FMM=F IPFlag=           0 FMFlag=      100000 FMFlg1=           0
         NFxFlg=           0 DoJE=F BraDBF=F KetDBF=F FulRan=T
         wScrn=  0.000000 ICntrl=      3107 IOpCl=  0 I1Cent=           0 NGrid=           0
         NMat0=    1 NMatS0=      1 NMatT0=    0 NMatD0=    1 NMtDS0=    0 NMtDT0=    0
 Symmetry not used in FoFCou.
 End of G2Drv F.D. properties file   721 does not exist.
 End of G2Drv F.D. properties file   722 does not exist.
 End of G2Drv F.D. properties file   788 does not exist.
 Leave Link 1110 at Sun Oct 13 09:49:43 2024, MaxMem=  2684354560 cpu:              37.6 elap:               1.5
 (Enter /usr/local/g16_AVX//g16/l1002.exe)
 Minotr:  Closed shell wavefunction.
          IDoAtm=1111111
          Direct CPHF calculation.
          Differentiating once with respect to electric field.
                with respect to dipole field.
          Differentiating once with respect to nuclear coordinates.
          Requested convergence is 1.0D-08 RMS, and 1.0D-07 maximum.
          Secondary convergence is 1.0D-12 RMS, and 1.0D-12 maximum.
          NewPWx=T KeepS1=F KeepF1=F KeepIn=T MapXYZ=F SortEE=F KeepMc=T.
         2129 words used for storage of precomputed grid.
 Keep R1 ints in memory in canonical form, NReq=35668376.
 FoFCou: FMM=F IPFlag=           0 FMFlag=           0 FMFlg1=           0
         NFxFlg=           0 DoJE=F BraDBF=F KetDBF=F FulRan=T
         wScrn=  0.000000 ICntrl=       600 IOpCl=  0 I1Cent=           0 NGrid=           0
         NMat0=    1 NMatS0=   4851 NMatT0=    0 NMatD0=    1 NMtDS0=    0 NMtDT0=    0
 Symmetry not used in FoFCou.
 Two-electron integral symmetry not used.
          MDV=    2684354560 using IRadAn=       1.
          Solving linear equations simultaneously, MaxMat=       0.
          There are    24 degrees of freedom in the 1st order CPHF.  IDoFFX=6 NUNeed=     3.
     21 vectors produced by pass  0 Test12= 6.50D-15 4.17D-09 XBig12= 1.03D+02 6.57D+00.
 AX will form    21 AO Fock derivatives at one time.
     21 vectors produced by pass  1 Test12= 6.50D-15 4.17D-09 XBig12= 5.03D+01 2.88D+00.
     21 vectors produced by pass  2 Test12= 6.50D-15 4.17D-09 XBig12= 3.22D+00 5.23D-01.
     21 vectors produced by pass  3 Test12= 6.50D-15 4.17D-09 XBig12= 2.68D-02 3.40D-02.
     21 vectors produced by pass  4 Test12= 6.50D-15 4.17D-09 XBig12= 7.29D-05 2.26D-03.
     20 vectors produced by pass  5 Test12= 6.50D-15 4.17D-09 XBig12= 1.18D-07 7.32D-05.
      5 vectors produced by pass  6 Test12= 6.50D-15 4.17D-09 XBig12= 1.82D-10 3.64D-06.
      1 vectors produced by pass  7 Test12= 6.50D-15 4.17D-09 XBig12= 2.56D-13 1.59D-07.
      1 vectors produced by pass  8 Test12= 6.50D-15 4.17D-09 XBig12= 3.86D-16 6.15D-09.
 InvSVY:  IOpt=1 It=  1 EMax= 6.73D-15
 Solved reduced A of dimension   132 with    24 vectors.
 FullF1:  Do perturbations      1 to       3.
 Isotropic polarizability for W=    0.000000       61.53 Bohr**3.
 End of Minotr F.D. properties file   721 does not exist.
 End of Minotr F.D. properties file   722 does not exist.
 End of Minotr F.D. properties file   788 does not exist.
 Leave Link 1002 at Sun Oct 13 09:49:45 2024, MaxMem=  2684354560 cpu:              55.1 elap:               2.2
 (Enter /usr/local/g16_AVX//g16/l601.exe)
 Copying SCF densities to generalized density rwf, IOpCl= 0 IROHF=0.

 **********************************************************************

            Population analysis using the SCF Density.

 **********************************************************************

 Alpha  occ. eigenvalues -- -101.27104 -14.20571 -10.10824 -10.09690  -9.18559
 Alpha  occ. eigenvalues --   -6.94367  -6.94306  -6.94306  -0.75833  -0.58748
 Alpha  occ. eigenvalues --   -0.52337  -0.31470  -0.30489  -0.30488  -0.22358
 Alpha  occ. eigenvalues --   -0.19828  -0.19828  -0.07053  -0.07053  -0.06900
 Alpha virt. eigenvalues --    0.10768   0.14677   0.14678   0.14773   0.16291
 Alpha virt. eigenvalues --    0.16291   0.17557   0.20539   0.21289   0.21290
 Alpha virt. eigenvalues --    0.23666   0.23951   0.23951   0.25899   0.25899
 Alpha virt. eigenvalues --    0.26007   0.31171   0.34125   0.34125   0.34765
 Alpha virt. eigenvalues --    0.34766   0.35239   0.39078   0.43052   0.47317
 Alpha virt. eigenvalues --    0.73346   0.78949   0.78949   0.82484   0.82485
 Alpha virt. eigenvalues --    0.83120   0.85842   0.85842   0.88810   0.97171
 Alpha virt. eigenvalues --    0.99166   1.04806   1.04806   1.12247   1.12248
 Alpha virt. eigenvalues --    1.12889   1.13645   1.13646   1.16279   1.16282
 Alpha virt. eigenvalues --    1.24571   1.25019   1.37784   1.51584   1.54435
 Alpha virt. eigenvalues --    1.54436   1.67025   1.67025   1.76065   1.76065
 Alpha virt. eigenvalues --    1.83461   2.08283   2.08987   2.08987   2.13614
 Alpha virt. eigenvalues --    2.18482   2.18482   2.51175   2.51177   2.71960
 Alpha virt. eigenvalues --    2.77684   2.77686   2.90010   2.95510   2.95514
 Alpha virt. eigenvalues --    3.19286   3.45427   3.55990   3.55991   4.19299
 Alpha virt. eigenvalues --    4.38378   4.56557   4.63698
          Condensed to atoms (all electrons):
               1          2          3          4          5          6
     1  C    5.474319  -0.133033   0.430471   0.430417   0.430417  -0.451451
     2  Cl  -0.133033  17.950869  -0.031380  -0.031406  -0.031406   0.089008
     3  H    0.430471  -0.031380   0.483318  -0.019893  -0.019894  -0.056663
     4  H    0.430417  -0.031406  -0.019893   0.483279  -0.019886  -0.056552
     5  H    0.430417  -0.031406  -0.019894  -0.019886   0.483275  -0.056549
     6  C   -0.451451   0.089008  -0.056663  -0.056552  -0.056549   6.084218
     7  N   -0.073324   0.001406  -0.004386  -0.004397  -0.004397   0.637406
               7
     1  C   -0.073324
     2  Cl   0.001406
     3  H   -0.004386
     4  H   -0.004397
     5  H   -0.004397
     6  C    0.637406
     7  N    6.991707
 Mulliken charges:
               1
     1  C   -0.107815
     2  Cl  -0.814057
     3  H    0.218427
     4  H    0.218438
     5  H    0.218440
     6  C   -0.189418
     7  N   -0.544015
 Sum of Mulliken charges =  -1.00000
 Mulliken charges with hydrogens summed into heavy atoms:
               1
     1  C    0.547490
     2  Cl  -0.814057
     6  C   -0.189418
     7  N   -0.544015
 APT charges:
               1
     1  C    0.834124
     2  Cl  -1.046094
     3  H    0.025203
     4  H    0.025216
     5  H    0.025219
     6  C   -0.342327
     7  N   -0.521341
 Sum of APT charges =  -1.00000
 APT charges with hydrogens summed into heavy atoms:
               1
     1  C    0.909762
     2  Cl  -1.046094
     6  C   -0.342327
     7  N   -0.521341
 Electronic spatial extent (au):  <R**2>=            828.5170
 Charge=             -1.0000 electrons
 Dipole moment (field-independent basis, Debye):
    X=              2.8701    Y=              0.0000    Z=             -0.0010  Tot=              2.8701
 Quadrupole moment (field-independent basis, Debye-Ang):
   XX=            -85.3256   YY=            -35.4320   ZZ=            -35.4323
   XY=              0.0000   XZ=             -0.0000   YZ=              0.0000
 Traceless Quadrupole moment (field-independent basis, Debye-Ang):
   XX=            -33.2623   YY=             16.6313   ZZ=             16.6310
   XY=              0.0000   XZ=             -0.0000   YZ=              0.0000
 Octapole moment (field-independent basis, Debye-Ang**2):
  XXX=            -41.4971  YYY=             -0.0068  ZZZ=             -0.9856  XYY=              0.9915
  XXY=              0.0002  XXZ=             -0.0067  XZZ=              0.9915  YZZ=              0.0069
  YYZ=              0.9853  XYZ=              0.0000
 Hexadecapole moment (field-independent basis, Debye-Ang**3):
 XXXX=          -1646.3941 YYYY=            -56.9366 ZZZZ=            -56.9361 XXXY=              0.0005
 XXXZ=             -0.0018 YYYX=             -0.0004 YYYZ=              0.0000 ZZZX=             -0.0389
 ZZZY=             -0.0000 XXYY=           -209.9404 XXZZ=           -209.9404 YYZZ=            -18.9795
 XXYZ=             -0.0000 YYXZ=              0.0550 ZZXY=              0.0003
 N-N= 1.078904684678D+02 E-N=-1.626081149164D+03  KE= 5.900752929147D+02
  Exact polarizability: 103.787  -0.000  40.400   0.001   0.000  40.401
 Approx polarizability: 126.176  -0.000  49.965   0.005   0.000  49.964
 No NMR shielding tensors so no spin-rotation constants.
 Leave Link  601 at Sun Oct 13 09:49:46 2024, MaxMem=  2684354560 cpu:              14.5 elap:               0.8
 (Enter /usr/local/g16_AVX//g16/l701.exe)
 ... and contract with generalized density number  0.
 Compute integral second derivatives.
 Leave Link  701 at Sun Oct 13 09:49:46 2024, MaxMem=  2684354560 cpu:               5.5 elap:               0.3
 (Enter /usr/local/g16_AVX//g16/l702.exe)
 L702 exits ... SP integral derivatives will be done elsewhere.
 Leave Link  702 at Sun Oct 13 09:49:46 2024, MaxMem=  2684354560 cpu:               1.3 elap:               0.1
 (Enter /usr/local/g16_AVX//g16/l703.exe)
 Integral derivatives from FoFJK, PRISM(SPDF).
 Compute integral second derivatives, UseDBF=F ICtDFT=           0.
 Calling FoFJK, ICntrl=    100127 FMM=F ISym2X=0 I1Cent= 0 IOpClX= 0 NMat=1 NMatS=1 NMatT=0.
 FoFJK:  IHMeth= 1 ICntrl=  100127 DoSepK=F KAlg= 0 I1Cent=           0 FoldK=F
 IRaf=         0 NMat=       1 IRICut=       1 DoRegI=T DoRafI=F ISym2E= 0 IDoP0=0 IntGTp=1.
 FoFCou: FMM=F IPFlag=           0 FMFlag=      100000 FMFlg1=         800
         NFxFlg=           0 DoJE=F BraDBF=F KetDBF=F FulRan=T
         wScrn=  0.000000 ICntrl=    100127 IOpCl=  0 I1Cent=           0 NGrid=           0
         NMat0=    1 NMatS0=      1 NMatT0=    0 NMatD0=    1 NMtDS0=    0 NMtDT0=    0
 Symmetry not used in FoFCou.
 Leave Link  703 at Sun Oct 13 09:49:48 2024, MaxMem=  2684354560 cpu:              61.8 elap:               2.4
 (Enter /usr/local/g16_AVX//g16/l716.exe)
 Dipole        = 1.12920212D+00 9.78015737D-06-4.02821418D-04
 Polarizability= 1.03787120D+02-2.97510854D-05 4.04003375D+01
                 1.08411231D-03 7.43940628D-06 4.04007687D+01
 Full mass-weighted force constant matrix:
 Low frequencies --- -373.5720  -46.7541  -46.6644    0.0020    0.0032    0.0039
 Low frequencies ---  152.4639  179.7757  179.8022
 ******    1 imaginary frequencies (negative Signs) ****** 
 Diagonal vibrational polarizability:
      119.5997911      20.4595476      20.4709901
 Harmonic frequencies (cm**-1), IR intensities (KM/Mole), Raman scattering
 activities (A**4/AMU), depolarization ratios for plane and unpolarized
 incident light, reduced masses (AMU), force constants (mDyne/A),
 and normal coordinates:
                      1                      2                      3
                      A                      A                      A
 Frequencies --   -373.5720               166.5211               166.5659
 Red. masses --     10.8370                 5.0906                 5.0913
 Frc consts  --      0.8911                 0.0832                 0.0832
 IR Inten    --    549.5011                20.9542                20.9535
  Atom  AN      X      Y      Z        X      Y      Z        X      Y      Z
     1   6     0.80   0.00  -0.00     0.00   0.02   0.44     0.00   0.44  -0.02
     2  17    -0.04  -0.00   0.00    -0.00  -0.00  -0.12    -0.00  -0.12   0.00
     3   1     0.18  -0.00   0.11    -0.11   0.02   0.47     0.00   0.46  -0.02
     4   1     0.18  -0.09  -0.06     0.06   0.02   0.47     0.09   0.47  -0.02
     5   1     0.18   0.10  -0.05     0.05   0.02   0.47    -0.09   0.47  -0.02
     6   6    -0.34  -0.00   0.00    -0.00   0.01   0.14     0.00   0.14  -0.01
     7   7    -0.34   0.00  -0.00     0.00  -0.01  -0.31    -0.00  -0.31   0.01
                      4                      5                      6
                      A                      A                      A
 Frequencies --    236.1988               416.8352               416.8577
 Red. masses --     15.8875                 4.2628                 4.2626
 Frc consts  --      0.5222                 0.4364                 0.4364
 IR Inten    --     27.4240                 0.2768                 0.2772
  Atom  AN      X      Y      Z        X      Y      Z        X      Y      Z
     1   6    -0.35   0.00   0.00    -0.00   0.00  -0.20     0.00  -0.20  -0.00
     2  17     0.49  -0.00  -0.00     0.00  -0.00   0.02    -0.00   0.02   0.00
     3   1    -0.25   0.00  -0.01     0.51   0.01  -0.33     0.01  -0.33  -0.01
     4   1    -0.25   0.01   0.01    -0.25   0.01  -0.33    -0.45  -0.33  -0.01
     5   1    -0.25  -0.01   0.01    -0.26   0.00  -0.33     0.44  -0.33  -0.01
     6   6    -0.47   0.00  -0.00    -0.00  -0.01   0.45     0.00   0.45   0.01
     7   7    -0.48  -0.00  -0.00     0.00   0.00  -0.21     0.00  -0.21  -0.00
                      7                      8                      9
                      A                      A                      A
 Frequencies --   1002.8286              1002.8384              1173.7801
 Red. masses --      1.1985                 1.1985                 1.0648
 Frc consts  --      0.7102                 0.7102                 0.8644
 IR Inten    --      0.0030                 0.0030                20.2575
  Atom  AN      X      Y      Z        X      Y      Z        X      Y      Z
     1   6     0.00   0.07  -0.07     0.00  -0.07  -0.07    -0.05  -0.00  -0.00
     2  17    -0.00   0.00  -0.00    -0.00  -0.00  -0.00    -0.01   0.00   0.00
     3   1    -0.53  -0.14   0.05    -0.57   0.13   0.05     0.56   0.00  -0.12
     4   1    -0.23  -0.11   0.15     0.75   0.03   0.08     0.56   0.11   0.06
     5   1     0.76  -0.04   0.07    -0.18   0.11   0.16     0.56  -0.11   0.06
     6   6    -0.00  -0.06   0.06    -0.00   0.06   0.06    -0.02  -0.00   0.00
     7   7     0.00   0.01  -0.01     0.00  -0.01  -0.01    -0.04   0.00  -0.00
                     10                     11                     12
                      A                      A                      A
 Frequencies --   1427.5768              1427.5895              2149.5652
 Red. masses --      1.0718                 1.0718                12.4918
 Frc consts  --      1.2870                 1.2870                34.0077
 IR Inten    --      6.7298                 6.7317                 1.2989
  Atom  AN      X      Y      Z        X      Y      Z        X      Y      Z
     1   6    -0.00   0.01  -0.08    -0.00  -0.08  -0.01     0.01   0.00  -0.00
     2  17     0.00  -0.00   0.00     0.00   0.00   0.00    -0.00  -0.00   0.00
     3   1     0.25  -0.06  -0.11     0.02   0.76  -0.01    -0.09  -0.00   0.04
     4   1    -0.11  -0.39   0.58    -0.22   0.08  -0.33    -0.09  -0.03  -0.02
     5   1    -0.14   0.37   0.51     0.20   0.14   0.43    -0.09   0.03  -0.02
     6   6     0.00   0.00  -0.01     0.00  -0.01  -0.00     0.75  -0.00   0.00
     7   7    -0.00  -0.00   0.00    -0.00   0.00   0.00    -0.63   0.00  -0.00
                     13                     14                     15
                      A                      A                      A
 Frequencies --   3153.8458              3313.5279              3313.6080
 Red. masses --      1.0156                 1.1177                 1.1177
 Frc consts  --      5.9518                 7.2303                 7.2307
 IR Inten    --      2.0041                 1.3077                 1.3105
  Atom  AN      X      Y      Z        X      Y      Z        X      Y      Z
     1   6    -0.03   0.00  -0.00     0.00   0.00  -0.10    -0.00  -0.10  -0.00
     2  17    -0.00  -0.00  -0.00     0.00  -0.00   0.00     0.00   0.00   0.00
     3   1     0.11  -0.00   0.57     0.17  -0.00   0.79     0.00  -0.02   0.02
     4   1     0.11  -0.49  -0.28    -0.08   0.34   0.18    -0.15   0.60   0.36
     5   1     0.11   0.49  -0.28    -0.09  -0.36   0.19     0.15   0.58  -0.35
     6   6    -0.00   0.00   0.00     0.00  -0.00   0.00     0.00   0.00   0.00
     7   7     0.00  -0.00  -0.00    -0.00   0.00  -0.00    -0.00  -0.00  -0.00

 -------------------
 - Thermochemistry -
 -------------------
 Temperature   298.150 Kelvin.  Pressure   1.00000 Atm.
 Atom     1 has atomic number  6 and mass  12.00000
 Atom     2 has atomic number 17 and mass  34.96885
 Atom     3 has atomic number  1 and mass   1.00783
 Atom     4 has atomic number  1 and mass   1.00783
 Atom     5 has atomic number  1 and mass   1.00783
 Atom     6 has atomic number  6 and mass  12.00000
 Atom     7 has atomic number  7 and mass  14.00307
 Molecular mass:    75.99540 amu.
 Principal axes and moments of inertia in atomic units:
                           1         2         3
     Eigenvalues --    12.034111424.361331424.36170
           X            1.00000   0.00000   0.00002
           Y           -0.00000   0.99607  -0.08862
           Z           -0.00002   0.08862   0.99607
 This molecule is an asymmetric top.
 Rotational symmetry number  1.
 Rotational temperatures (Kelvin)      7.19737     0.06081     0.06081
 Rotational constants (GHZ):         149.96883     1.26705     1.26705
    1 imaginary frequencies ignored.
 Zero-point vibrational energy     115847.2 (Joules/Mol)
                                   27.68814 (Kcal/Mol)
 Warning -- explicit consideration of   5 degrees of freedom as
           vibrations may cause significant error
 Vibrational temperatures:    239.59   239.65   339.84   599.73   599.77
          (Kelvin)           1442.85  1442.86  1688.81  2053.96  2053.98
                             3092.74  4537.68  4767.43  4767.54
 
 Zero-point correction=                           0.044124 (Hartree/Particle)
 Thermal correction to Energy=                    0.049384
 Thermal correction to Enthalpy=                  0.050329
 Thermal correction to Gibbs Free Energy=         0.015904
 Sum of electronic and zero-point Energies=           -592.972891
 Sum of electronic and thermal Energies=              -592.967630
 Sum of electronic and thermal Enthalpies=            -592.966686
 Sum of electronic and thermal Free Energies=         -593.001111
 
                     E (Thermal)             CV                S
                      KCal/Mol        Cal/Mol-Kelvin    Cal/Mol-Kelvin
 Total                   30.989             15.552             72.453
 Electronic               0.000              0.000              0.000
 Translational            0.889              2.981             38.900
 Rotational               0.889              2.981             24.705
 Vibrational             29.212              9.590              8.849
 Vibration     1          0.624              1.884              2.474
 Vibration     2          0.624              1.884              2.474
 Vibration     3          0.655              1.785              1.831
 Vibration     4          0.780              1.434              0.903
 Vibration     5          0.780              1.434              0.903
                       Q            Log10(Q)             Ln(Q)
 Total Bot       0.483982D-07         -7.315171        -16.843803
 Total V=0       0.955832D+13         12.980382         29.888433
 Vib (Bot)       0.332293D-19        -19.478478        -44.850854
 Vib (Bot)    1  0.121157D+01          0.083349          0.191919
 Vib (Bot)    2  0.121123D+01          0.083226          0.191636
 Vib (Bot)    3  0.831579D+00         -0.080097         -0.184429
 Vib (Bot)    4  0.422260D+00         -0.374420         -0.862134
 Vib (Bot)    5  0.422230D+00         -0.374451         -0.862205
 Vib (V=0)       0.656257D+01          0.817074          1.881382
 Vib (V=0)    1  0.181069D+01          0.257844          0.593708
 Vib (V=0)    2  0.181037D+01          0.257768          0.593533
 Vib (V=0)    3  0.147032D+01          0.167412          0.385481
 Vib (V=0)    4  0.115445D+01          0.062375          0.143623
 Vib (V=0)    5  0.115443D+01          0.062368          0.143606
 Electronic      0.100000D+01          0.000000          0.000000
 Translational   0.260396D+08          7.415635         17.075130
 Rotational      0.559336D+05          4.747673         10.931921
 
                                                      RxCoord=-2.59940 DE=32.70
                                                             IR Spectrum
 
      3     3                                     2                           1         1     1                                      
      3     1                                     1                           4         1     0                      4     2  1      
      1     5                                     5                           2         7     0                      1     3  6      
      4     4                                     0                           8         4     3                      7     6  7      
 
      X     X                                     X                           X         X                            X     X  X      
                                                                              X         X                                  X  X      
                                                                              X         X                                  X  X      
                                                                              X         X                                  X  X      
                                                                              X         X                                  X  X      
                                                                              X         X                                  X  X      
                                                                                        X                                  X  X      
                                                                                        X                                  X  X      
                                                                                        X                                  X  X      
                                                                                        X                                  X  X      
                                                                                                                           X  X      
                                                                                                                           X  X      
                                                                                                                           X  X      
                                                                                                                              X      
                                                                                                                              X      
                                                                                                                              X      
                                                                                                                              X      
                                                                                                                              X      
                                                                                                                              X      
                                                                                                                              X      
 
 -------------------------------------------------------------------
 Center     Atomic                   Forces (Hartrees/Bohr)
 Number     Number              X              Y              Z
 -------------------------------------------------------------------
      1        6           0.067043150   -0.000000513   -0.000014631
      2       17          -0.018662320   -0.000000017    0.000004272
      3        1           0.000125896   -0.000003418    0.001763868
      4        1           0.000121934   -0.001524198   -0.000880549
      5        1           0.000122990    0.001528417   -0.000872691
      6        6          -0.021175011   -0.000000627    0.000012507
      7        7          -0.027576639    0.000000356   -0.000012775
 -------------------------------------------------------------------
 Cartesian Forces:  Max     0.067043150 RMS     0.016989173
 Z-matrix is all fixed cartesians, so copy forces.
 Force constants in Cartesian coordinates: 
                1             2             3             4             5 
      1  0.157498D-01
      2  0.300071D-05  0.653141D+00
      3  0.128207D-04  0.243989D-05  0.653085D+00
      4  0.823979D-02  0.000000D+00  0.000000D+00  0.431818D-01
      5  0.000000D+00 -0.343983D-02  0.000000D+00  0.000000D+00 -0.934728D-03
      6 -0.381586D-05  0.000000D+00 -0.343855D-02  0.000000D+00  0.000000D+00
      7 -0.324972D-01  0.153975D-03 -0.662528D-01 -0.960371D-02 -0.505256D-05
      8  0.147375D-03 -0.485272D-01  0.700148D-03  0.278664D-05 -0.611155D-03
      9 -0.634924D-01  0.700313D-03 -0.350273D+00 -0.129108D-02 -0.489179D-05
     10 -0.324868D-01  0.573008D-01  0.332562D-01 -0.960980D-02 -0.179317D-02
     11  0.549121D-01 -0.274256D+00 -0.131022D+00  0.111500D-02  0.103516D-02
     12  0.318707D-01 -0.131023D+00 -0.124570D+00  0.647836D-03  0.960878D-03
     13 -0.324880D-01 -0.574578D-01  0.329918D-01 -0.961037D-02  0.179839D-02
     14 -0.550629D-01 -0.275469D+00  0.130320D+00 -0.111730D-02  0.104338D-02
     15  0.316172D-01  0.130320D+00 -0.123354D+00  0.642728D-03 -0.955676D-03
     16  0.489233D-01  0.000000D+00  0.000000D+00 -0.166044D-01  0.000000D+00
     17  0.000000D+00 -0.635835D-01  0.000000D+00  0.000000D+00  0.364082D-02
     18 -0.194292D-04  0.000000D+00 -0.635834D-01  0.536822D-05  0.000000D+00
     19  0.245590D-01  0.000000D+00 -0.839934D-05 -0.599334D-02  0.000000D+00
     20  0.000000D+00  0.121345D-01  0.000000D+00  0.000000D+00 -0.733640D-03
     21  0.148884D-04  0.000000D+00  0.121349D-01 -0.376274D-05  0.000000D+00
                6             7             8             9            10 
      6 -0.942150D-03
      7  0.207313D-02  0.566981D-01
      8 -0.487769D-05 -0.158565D-03  0.448360D-01
      9  0.158941D-02  0.684035D-01 -0.732930D-03  0.360401D+00
     10 -0.104059D-02  0.279098D-02 -0.660294D-02 -0.299612D-02  0.566974D-01
     11  0.960853D-03 -0.740384D-03  0.289226D-02  0.326908D-02 -0.591603D-01
     12 -0.533546D-04  0.721344D-02 -0.237022D-01 -0.903272D-02 -0.343374D-01
     13 -0.103208D-02  0.279133D-02  0.661669D-02 -0.296562D-02  0.279127D-02
     14 -0.955666D-03  0.706626D-03  0.279678D-02 -0.321385D-02 -0.587753D-02
     15 -0.622669D-04  0.721696D-02  0.237574D-01 -0.893794D-02 -0.424690D-02
     16  0.287053D-05 -0.180286D-01 -0.134382D-05  0.605240D-03 -0.180345D-01
     17  0.000000D+00  0.496400D-04 -0.195586D-02 -0.234728D-04  0.184640D-01
     18  0.364050D-02 -0.213482D-01 -0.233540D-04  0.816660D-02  0.107191D-01
     19  0.000000D+00 -0.215092D-02 -0.400059D-05  0.173641D-02 -0.214856D-02
     20  0.000000D+00 -0.623849D-05  0.569145D-03  0.574708D-05 -0.233095D-02
     21 -0.733592D-03  0.269386D-02  0.574247D-05 -0.191316D-02 -0.135429D-02
               11            12            13            14            15 
     11  0.280898D+00
     12  0.137017D+00  0.124358D+00
     13  0.589709D-02 -0.421944D-02  0.566984D-01
     14 -0.148972D-01  0.134306D-01  0.593217D-01  0.282168D+00
     15 -0.135405D-01  0.875938D-02 -0.340642D-01 -0.136282D+00  0.123087D+00
     16 -0.522428D-03 -0.303596D-03 -0.180343D-01  0.524190D-03 -0.301294D-03
     17  0.561551D-02  0.439457D-02 -0.185132D-01  0.565659D-02 -0.437114D-02
     18  0.439491D-02  0.596170D-03  0.106329D-01 -0.437162D-02  0.555335D-03
     19 -0.150112D-02 -0.871504D-03 -0.214837D-02  0.150520D-02 -0.864503D-03
     20 -0.128786D-02 -0.107783D-02  0.233720D-02 -0.129793D-02  0.107208D-02
     21 -0.107843D-02 -0.570821D-04 -0.134340D-02  0.107268D-02 -0.470703D-04
               16            17            18            19            20 
     16  0.114616D+01
     17 -0.846247D-05  0.813355D-01
     18  0.322506D-03  0.000000D+00  0.813336D-01
     19 -0.112438D+01  0.790075D-05 -0.312302D-03  0.111226D+01
     20  0.830590D-05 -0.307090D-01  0.000000D+00 -0.810008D-05  0.213248D-01
     21 -0.326657D-03  0.000000D+00 -0.307088D-01  0.319361D-03  0.000000D+00
               21 
     21  0.213248D-01
 Leave Link  716 at Sun Oct 13 09:49:49 2024, MaxMem=  2684354560 cpu:               5.0 elap:               0.2
 (Enter /usr/local/g16_AVX//g16/l103.exe)

 GradGradGradGradGradGradGradGradGradGradGradGradGradGradGradGradGradGrad
 Berny optimization.
 Search for a local minimum.
 Step number   1 out of a maximum of    2
 All quantities printed in internal units (Hartrees-Bohrs-Radians)
 Second derivative matrix not updated -- analytic derivatives used.
 ITU=  0
     Eigenvalues ---   -0.06065   0.00587   0.00587   0.02785   0.02785
     Eigenvalues ---    0.04571   0.07777   0.09511   0.09511   0.12479
     Eigenvalues ---    0.12479   0.40951   0.94715   0.94722   2.25325
 Eigenvalue     1 is  -6.07D-02 should be greater than     0.000000 Eigenvector:
                          X1        X6        X7        Z3        X3
   1                    0.80016  -0.38233  -0.38123   0.10728   0.09704
                          X4        X5        Y5        Y4        X2
   1                    0.09690   0.09690   0.09307  -0.09282  -0.07414
 Quadratic step=1.251D+00 exceeds max=3.000D-01 adjusted using Lamda=-1.925D-01.
 Angle between NR and scaled steps=   3.94 degrees.
 Angle between quadratic step and forces=   8.54 degrees.
 Linear search not attempted -- first point.
 B after Tr=    -0.009478   -0.000000   -0.000001
         Rot=    1.000000    0.000000   -0.000000    0.000000 Ang=  -0.00 deg.
 Variable       Old X    -DE/DX   Delta X   Delta X   Delta X     New X
                                 (Linear)    (Quad)   (Total)
    X1        0.69468   0.06704   0.00000   0.26405   0.25457   0.94926
    Y1        0.00001  -0.00000   0.00000  -0.00000  -0.00000   0.00001
    Z1       -0.00045  -0.00001   0.00000  -0.00002  -0.00002  -0.00047
    X2       -4.24995  -0.01866   0.00000  -0.05775  -0.06723  -4.31719
    Y2       -0.00000  -0.00000   0.00000   0.00000   0.00000  -0.00000
    Z2        0.00021   0.00000   0.00000   0.00001   0.00001   0.00022
    X3        0.25049   0.00013   0.00000   0.01121   0.00173   0.25222
    Y3        0.00464  -0.00000   0.00000  -0.00006  -0.00006   0.00459
    Z3       -1.99550   0.00176   0.00000   0.02541   0.02541  -1.97009
    X4        0.25057   0.00012   0.00000   0.01120   0.00172   0.25229
    Y4        1.72548  -0.00152   0.00000  -0.02199  -0.02199   1.70349
    Z4        1.00104  -0.00088   0.00000  -0.01275  -0.01275   0.98829
    X5        0.25054   0.00012   0.00000   0.01120   0.00172   0.25227
    Y5       -1.73009   0.00153   0.00000   0.02205   0.02205  -1.70804
    Z5        0.99300  -0.00087   0.00000  -0.01264  -0.01265   0.98035
    X6        4.16483  -0.02118   0.00000  -0.08623  -0.09571   4.06912
    Y6        0.00001  -0.00000   0.00000  -0.00000  -0.00000   0.00000
    Z6       -0.00037   0.00001   0.00000   0.00005   0.00004  -0.00033
    X7        6.39462  -0.02758   0.00000  -0.08732  -0.09680   6.29782
    Y7       -0.00001   0.00000   0.00000   0.00000   0.00000  -0.00001
    Z7        0.00030  -0.00001   0.00000  -0.00004  -0.00004   0.00025
         Item               Value     Threshold  Converged?
 Maximum Force            0.067043     0.000450     NO 
 RMS     Force            0.016989     0.000300     NO 
 Maximum Displacement     0.254571     0.001800     NO 
 RMS     Displacement     0.065394     0.001200     NO 
 Predicted change in Energy=-2.549717D-02
 GradGradGradGradGradGradGradGradGradGradGradGradGradGradGradGradGradGrad

 Leave Link  103 at Sun Oct 13 09:49:49 2024, MaxMem=  2684354560 cpu:               7.0 elap:               0.4
 (Enter /usr/local/g16_AVX//g16/l9999.exe)

 ----------------------------------------------------------------------

 Electric dipole moment (input orientation):
 (Debye = 10**-18 statcoulomb cm , SI units = C m)
                  (au)            (Debye)         (10**-30 SI)
   Tot        0.112920D+01      0.287015D+01      0.957378D+01
   x          0.112920D+01      0.287015D+01      0.957377D+01
   y          0.000000D+00      0.000000D+00      0.000000D+00
   z         -0.402821D-03     -0.102387D-02     -0.341526D-02

 Dipole polarizability, Alpha (input orientation).
 (esu units = cm**3 , SI units = C**2 m**2 J**-1)
 Alpha(0;0):
               (au)            (10**-24 esu)      (10**-40 SI)
   iso        0.615294D+02      0.911772D+01      0.101448D+02
   aniso      0.633866D+02      0.939292D+01      0.104510D+02
   xx         0.103787D+03      0.153797D+02      0.171122D+02
   yx        -0.297511D-04     -0.440866D-05     -0.490529D-05
   yy         0.404003D+02      0.598671D+01      0.666112D+01
   zx         0.108411D-02      0.160649D-03      0.178746D-03
   zy         0.000000D+00      0.000000D+00      0.000000D+00
   zz         0.404008D+02      0.598678D+01      0.666119D+01

 ----------------------------------------------------------------------

 Dipole orientation:
     6          0.00020572          0.00000721          0.69468423
    17          0.00130822          0.00003304         -4.24995417
     1          1.99541402          0.00465817          0.25120075
     1         -1.00114133          1.72546974          0.25022795
     1         -0.99307060         -1.73010039          0.25017444
     6         -0.00111345         -0.00003041          4.16482963
     7         -0.00257785         -0.00006675          6.39462293

 Electric dipole moment (dipole orientation):
 (Debye = 10**-18 statcoulomb cm , SI units = C m)
                  (au)            (Debye)         (10**-30 SI)
   Tot        0.112920D+01      0.287015D+01      0.957378D+01
   x          0.000000D+00      0.000000D+00      0.000000D+00
   y          0.000000D+00      0.000000D+00      0.000000D+00
   z          0.112920D+01      0.287015D+01      0.957378D+01

 Dipole polarizability, Alpha (dipole orientation).
 (esu units = cm**3 , SI units = C**2 m**2 J**-1)
 Alpha(0;0):
               (au)            (10**-24 esu)      (10**-40 SI)
   iso        0.615294D+02      0.911772D+01      0.101448D+02
   aniso      0.633866D+02      0.939292D+01      0.104510D+02
   xx         0.404008D+02      0.598678D+01      0.666119D+01
   yx         0.000000D+00      0.000000D+00      0.000000D+00
   yy         0.404003D+02      0.598671D+01      0.666112D+01
   zx        -0.236960D-01     -0.351138D-02     -0.390694D-02
   zy        -0.578960D-03     -0.857930D-04     -0.954575D-04
   zz         0.103787D+03      0.153797D+02      0.171122D+02

 ----------------------------------------------------------------------
 1\1\GINC-NODO8\Freq\RB3LYP\6-31++G(d,p)\C2H3Cl1N1(1-)\ALANQF\13-Oct-20
 24\0\\#p b3lyp 6-31++g(d,p) scf=verytight NoSymm freq=noraman int=ultr
 afine\\RxCoord=-2.59940 DE=32.70\\-1,1\C,0.367611,0.000007,-0.00024\Cl
 ,-2.248979,-0.000002,0.00011\H,0.132553,0.002457,-1.055975\H,0.132596,
 0.913085,0.529726\H,0.132582,-0.915524,0.525471\C,2.203933,0.000003,-0
 .000197\N,3.383889,-0.000006,0.000157\\Version=ES64L-G16RevB.01\HF=-59
 3.0170144\RMSD=3.005e-09\RMSF=1.699e-02\ZeroPoint=0.0441239\Thermal=0.
 0493844\Dipole=1.1913002,0.0000099,-0.0004237\DipoleDeriv=2.3115159,0.
 0000007,-0.000103,-0.0000069,0.0953973,0.0000004,-0.0000504,0.0000003,
 0.0954581,-1.4454728,0.0000002,0.0000287,-0.0000003,-0.8464027,0.,0.00
 00535,0.,-0.8464072,-0.0453919,-0.0000352,0.0153037,-0.0000378,0.08191
 76,0.0000991,0.0171082,0.0001,0.0390842,-0.0453776,-0.0132408,-0.00768
 89,-0.0148408,0.0499044,-0.0185776,-0.008615,-0.0185761,0.0711211,-0.0
 453673,0.0132759,-0.0076261,0.0148866,0.0497315,0.0184786,-0.0085472,0
 .0184764,0.0712932,-0.9125151,0.0000009,-0.0000025,-0.0000078,-0.05722
 92,-0.0000006,0.0003389,-0.0000005,-0.057236,-0.8173911,-0.0000018,0.0
 000881,0.0000071,-0.3733188,0.0000001,-0.000288,0.0000001,-0.3733135\P
 olar=103.7871196,-0.0000298,40.4003375,0.0010841,0.0000074,40.4007687\
 Quadrupole=-24.7296822,12.3649471,12.3647351,0.0000286,-0.0000148,0.00
 00107\PG=C01 [X(C2H3Cl1N1)]\NImag=1\\0.01574982,0.00000300,0.65314127,
 0.00001282,0.00000244,0.65308466,0.00823979,0.,-0.00000064,0.04318178,
 0.00000037,-0.00343983,0.,-0.00000041,-0.00093473,-0.00000382,0.,-0.00
 343855,-0.00000045,-0.00000030,-0.00094215,-0.03249718,0.00015397,-0.0
 6625276,-0.00960371,-0.00000505,0.00207313,0.05669811,0.00014737,-0.04
 852716,0.00070015,0.00000279,-0.00061115,-0.00000488,-0.00015856,0.044
 83599,-0.06349236,0.00070031,-0.35027335,-0.00129108,-0.00000489,0.001
 58941,0.06840353,-0.00073293,0.36040116,-0.03248677,0.05730085,0.03325
 622,-0.00960980,-0.00179317,-0.00104059,0.00279098,-0.00660294,-0.0029
 9612,0.05669740,0.05491212,-0.27425591,-0.13102245,0.00111500,0.001035
 16,0.00096085,-0.00074038,0.00289226,0.00326908,-0.05916027,0.28089805
 ,0.03187068,-0.13102258,-0.12457032,0.00064784,0.00096088,-0.00005335,
 0.00721344,-0.02370216,-0.00903272,-0.03433741,0.13701655,0.12435792,-
 0.03248796,-0.05745782,0.03299182,-0.00961037,0.00179839,-0.00103208,0
 .00279133,0.00661669,-0.00296562,0.00279127,0.00589709,-0.00421944,0.0
 5669841,-0.05506286,-0.27546935,0.13031988,-0.00111730,0.00104338,-0.0
 0095567,0.00070663,0.00279678,-0.00321385,-0.00587753,-0.01489720,0.01
 343057,0.05932167,0.28216774,0.03161722,0.13031982,-0.12335404,0.00064
 273,-0.00095568,-0.00006227,0.00721696,0.02375743,-0.00893794,-0.00424
 690,-0.01354051,0.00875938,-0.03406421,-0.13628199,0.12308660,0.048923
 30,-0.00000015,0.00000093,-0.01660436,-0.00000011,0.00000287,-0.018028
 61,-0.00000134,0.00060524,-0.01803453,-0.00052243,-0.00030360,-0.01803
 430,0.00052419,-0.00030129,1.14616025,0.00000031,-0.06358351,-0.000000
 03,-0.00000018,0.00364082,-0.00000002,0.00004964,-0.00195586,-0.000023
 47,0.01846402,0.00561551,0.00439457,-0.01851322,0.00565659,-0.00437114
 ,-0.00000846,0.08133545,-0.00001943,0.,-0.06358335,0.00000537,-0.00000
 002,0.00364050,-0.02134816,-0.00002335,0.00816660,0.01071909,0.0043949
 1,0.00059617,0.01063293,-0.00437162,0.00055534,0.00032251,0.00000010,0
 .08133359,0.02455900,0.00000015,-0.00000840,-0.00599334,-0.00000003,0.
 00000093,-0.00215092,-0.00000400,0.00173641,-0.00214856,-0.00150112,-0
 .00087150,-0.00214837,0.00150520,-0.00086450,-1.12438175,0.00000790,-0
 .00031230,1.11226394,-0.00000032,0.01213449,0.00000002,0.00000011,-0.0
 0073364,0.,-0.00000624,0.00056915,0.00000575,-0.00233095,-0.00128786,-
 0.00107783,0.00233720,-0.00129793,0.00107208,0.00000831,-0.03070901,0.
 ,-0.00000810,0.02132480,0.00001489,0.00000002,0.01213495,-0.00000376,0
 .,-0.00073359,0.00269386,0.00000574,-0.00191316,-0.00135429,-0.0010784
 3,-0.00005708,-0.00134340,0.00107268,-0.00004707,-0.00032666,0.,-0.030
 70884,0.00031936,0.,0.02132480\\-0.06704315,0.00000051,0.00001463,0.01
 866232,0.00000002,-0.00000427,-0.00012590,0.00000342,-0.00176387,-0.00
 012193,0.00152420,0.00088055,-0.00012299,-0.00152842,0.00087269,0.0211
 7501,0.00000063,-0.00001251,0.02757664,-0.00000036,0.00001278\\\@


 ALL SCIENCE IS EITHER PHYSICS, OR STAMP COLLECTING.
   --ERNEST RUTHERFORD, 1871-1937.
 Job cpu time:       0 days  0 hours  4 minutes 34.0 seconds.
 Elapsed time:       0 days  0 hours  0 minutes 12.4 seconds.
 File lengths (MBytes):  RWF=     88 Int=      0 D2E=      0 Chk=      2 Scr=      2
 Normal termination of Gaussian 16 at Sun Oct 13 09:49:49 2024.
