RxCoord=-2.59940 DE=32.70                                               
Freq      RB3LYP                                                      6-31++G(d,p)        
Number of atoms                            I                7
Info1-9                                    I   N=           9
          16          16           0           0           0         100
           6          18        -502
Full Title                                 C   N=           3
RxCoord=-2.59940 DE=32.70           
Route                                      C   N=           6
#p b3lyp 6-31++g(d,p) scf=verytight NoSymm freq=noraman int=
ultrafine   
Charge                                     I               -1
Multiplicity                               I                1
Number of electrons                        I               40
Number of alpha electrons                  I               20
Number of beta electrons                   I               20
Number of basis functions                  I               98
Number of independent functions            I               98
Number of point charges in /Mol/           I                0
Number of translation vectors              I                0
Atomic numbers                             I   N=           7
           6          17           1           1           1           6
           7
Nuclear charges                            R   N=           7
  6.00000000E+00  1.70000000E+01  1.00000000E+00  1.00000000E+00  1.00000000E+00
  6.00000000E+00  7.00000000E+00
Current cartesian coordinates              R   N=          21
  6.94684110E-01  1.32280829E-05 -4.53534270E-04 -4.24995437E+00 -3.77945225E-06
  2.07869874E-04  2.50488867E-01  4.64305709E-03 -1.99550354E+00  2.50570125E-01
  1.72548058E+00  1.00103706E+00  2.50543669E-01 -1.73008962E+00  9.92996276E-01
  4.16482977E+00  5.66917837E-06 -3.72276047E-04  6.39462345E+00 -1.13383567E-05
  2.96687002E-04
Number of symbols in /Mol/                 I                0
Force Field                                I                0
Atom Types                                 C   N=           7
                                                            
                        
Int Atom Types                             I   N=           7
           0           0           0           0           0           0
           0
MM charges                                 R   N=           7
  0.00000000E+00  0.00000000E+00  0.00000000E+00  0.00000000E+00  0.00000000E+00
  0.00000000E+00  0.00000000E+00
Integer atomic weights                     I   N=           7
          12          35           1           1           1          12
          14
Real atomic weights                        R   N=           7
  1.20000000E+01  3.49688527E+01  1.00782504E+00  1.00782504E+00  1.00782504E+00
  1.20000000E+01  1.40030740E+01
Atom fragment info                         I   N=           7
           0           0           0           0           0           0
           0
Atom residue num                           I   N=           7
           0           0           0           0           0           0
           0
Nuclear spins                              I   N=           7
           0           3           1           1           1           0
           2
Nuclear ZEff                               R   N=           7
 -3.60000000E+00 -1.42400000E+01 -1.00000000E+00 -1.00000000E+00 -1.00000000E+00
 -3.60000000E+00 -4.55000000E+00
Nuclear ZNuc                               R   N=           7
  6.00000000E+00  1.70000000E+01  1.00000000E+00  1.00000000E+00  1.00000000E+00
  6.00000000E+00  7.00000000E+00
Nuclear QMom                               R   N=           7
  0.00000000E+00 -8.16500000E+00  0.00000000E+00  0.00000000E+00  0.00000000E+00
  0.00000000E+00  2.04400000E+00
Nuclear GFac                               R   N=           7
  0.00000000E+00  8.21874000E-01  2.79284600E+00  2.79284600E+00  2.79284600E+00
  0.00000000E+00  4.03761000E-01
MicOpt                                     I   N=           7
          -1          -1          -1          -1          -1          -1
          -1
Number of residues                         I                0
Number of secondary structures             I                0
Number of contracted shells                I               33
Number of primitive shells                 I               72
Pure/Cartesian d shells                    I                1
Pure/Cartesian f shells                    I                0
Highest angular momentum                   I                2
Largest degree of contraction              I                6
Shell types                                I   N=          33
           0          -1          -1          -1           2           0
          -1          -1          -1          -1           2           0
           0           0           1           0           0           0
           1           0           0           0           1           0
          -1          -1          -1           2           0          -1
          -1          -1           2
Number of primitives per shell             I   N=          33
           6           3           1           1           1           6
           6           3           1           1           1           3
           1           1           1           3           1           1
           1           3           1           1           1           6
           3           1           1           1           6           3
           1           1           1
Shell to atom map                          I   N=          33
           1           1           1           1           1           2
           2           2           2           2           2           3
           3           3           3           4           4           4
           4           5           5           5           5           6
           6           6           6           6           7           7
           7           7           7
Primitive exponents                        R   N=          72
  3.04752488E+03  4.57369518E+02  1.03948685E+02  2.92101553E+01  9.28666296E+00
  3.16392696E+00  7.86827235E+00  1.88128854E+00  5.44249258E-01  1.68714478E-01
  4.38000000E-02  8.00000000E-01  2.51801000E+04  3.78035000E+03  8.60474000E+02
  2.42145000E+02  7.73349000E+01  2.62470000E+01  4.91765000E+02  1.16984000E+02
  3.74153000E+01  1.37834000E+01  5.45215000E+00  2.22588000E+00  3.18649000E+00
  1.14427000E+00  4.20377000E-01  1.42657000E-01  4.83000000E-02  7.50000000E-01
  1.87311370E+01  2.82539436E+00  6.40121692E-01  1.61277759E-01  3.60000000E-02
  1.10000000E+00  1.87311370E+01  2.82539436E+00  6.40121692E-01  1.61277759E-01
  3.60000000E-02  1.10000000E+00  1.87311370E+01  2.82539436E+00  6.40121692E-01
  1.61277759E-01  3.60000000E-02  1.10000000E+00  3.04752488E+03  4.57369518E+02
  1.03948685E+02  2.92101553E+01  9.28666296E+00  3.16392696E+00  7.86827235E+00
  1.88128854E+00  5.44249258E-01  1.68714478E-01  4.38000000E-02  8.00000000E-01
  4.17351146E+03  6.27457911E+02  1.42902093E+02  4.02343293E+01  1.28202129E+01
  4.39043701E+00  1.16263619E+01  2.71627981E+00  7.72218397E-01  2.12031498E-01
  6.39000000E-02  8.00000000E-01
Contraction coefficients                   R   N=          72
  1.83473713E-03  1.40373228E-02  6.88426223E-02  2.32184443E-01  4.67941348E-01
  3.62311985E-01 -1.19332420E-01 -1.60854152E-01  1.14345644E+00  1.00000000E+00
  1.00000000E+00  1.00000000E+00  1.83295985E-03  1.40341988E-02  6.90973943E-02
  2.37451980E-01  4.83033960E-01  3.39855972E-01 -2.29739142E-03 -3.07137189E-02
 -1.12528069E-01  4.50163278E-02  5.89353363E-01  4.65206287E-01 -2.51828028E-01
  6.15892514E-02  1.06018433E+00  1.00000000E+00  1.00000000E+00  1.00000000E+00
  3.34946043E-02  2.34726953E-01  8.13757326E-01  1.00000000E+00  1.00000000E+00
  1.00000000E+00  3.34946043E-02  2.34726953E-01  8.13757326E-01  1.00000000E+00
  1.00000000E+00  1.00000000E+00  3.34946043E-02  2.34726953E-01  8.13757326E-01
  1.00000000E+00  1.00000000E+00  1.00000000E+00  1.83473713E-03  1.40373228E-02
  6.88426223E-02  2.32184443E-01  4.67941348E-01  3.62311985E-01 -1.19332420E-01
 -1.60854152E-01  1.14345644E+00  1.00000000E+00  1.00000000E+00  1.00000000E+00
  1.83477216E-03  1.39946270E-02  6.85865518E-02  2.32240873E-01  4.69069948E-01
  3.60455199E-01 -1.14961182E-01 -1.69117479E-01  1.14585195E+00  1.00000000E+00
  1.00000000E+00  1.00000000E+00
P(S=P) Contraction coefficients            R   N=          72
  0.00000000E+00  0.00000000E+00  0.00000000E+00  0.00000000E+00  0.00000000E+00
  0.00000000E+00  6.89990666E-02  3.16423961E-01  7.44308291E-01  1.00000000E+00
  1.00000000E+00  0.00000000E+00  0.00000000E+00  0.00000000E+00  0.00000000E+00
  0.00000000E+00  0.00000000E+00  0.00000000E+00  3.98940088E-03  3.03177067E-02
  1.29880029E-01  3.27951072E-01  4.53527100E-01  2.52154056E-01 -1.42993147E-02
  3.23572333E-01  7.43507765E-01  1.00000000E+00  1.00000000E+00  0.00000000E+00
  0.00000000E+00  0.00000000E+00  0.00000000E+00  0.00000000E+00  0.00000000E+00
  0.00000000E+00  0.00000000E+00  0.00000000E+00  0.00000000E+00  0.00000000E+00
  0.00000000E+00  0.00000000E+00  0.00000000E+00  0.00000000E+00  0.00000000E+00
  0.00000000E+00  0.00000000E+00  0.00000000E+00  0.00000000E+00  0.00000000E+00
  0.00000000E+00  0.00000000E+00  0.00000000E+00  0.00000000E+00  6.89990666E-02
  3.16423961E-01  7.44308291E-01  1.00000000E+00  1.00000000E+00  0.00000000E+00
  0.00000000E+00  0.00000000E+00  0.00000000E+00  0.00000000E+00  0.00000000E+00
  0.00000000E+00  6.75797439E-02  3.23907296E-01  7.40895140E-01  1.00000000E+00
  1.00000000E+00  0.00000000E+00
Coordinates of each shell                  R   N=          99
  6.94684110E-01  1.32280829E-05 -4.53534270E-04  6.94684110E-01  1.32280829E-05
 -4.53534270E-04  6.94684110E-01  1.32280829E-05 -4.53534270E-04  6.94684110E-01
  1.32280829E-05 -4.53534270E-04  6.94684110E-01  1.32280829E-05 -4.53534270E-04
 -4.24995437E+00 -3.77945225E-06  2.07869874E-04 -4.24995437E+00 -3.77945225E-06
  2.07869874E-04 -4.24995437E+00 -3.77945225E-06  2.07869874E-04 -4.24995437E+00
 -3.77945225E-06  2.07869874E-04 -4.24995437E+00 -3.77945225E-06  2.07869874E-04
 -4.24995437E+00 -3.77945225E-06  2.07869874E-04  2.50488867E-01  4.64305709E-03
 -1.99550354E+00  2.50488867E-01  4.64305709E-03 -1.99550354E+00  2.50488867E-01
  4.64305709E-03 -1.99550354E+00  2.50488867E-01  4.64305709E-03 -1.99550354E+00
  2.50570125E-01  1.72548058E+00  1.00103706E+00  2.50570125E-01  1.72548058E+00
  1.00103706E+00  2.50570125E-01  1.72548058E+00  1.00103706E+00  2.50570125E-01
  1.72548058E+00  1.00103706E+00  2.50543669E-01 -1.73008962E+00  9.92996276E-01
  2.50543669E-01 -1.73008962E+00  9.92996276E-01  2.50543669E-01 -1.73008962E+00
  9.92996276E-01  2.50543669E-01 -1.73008962E+00  9.92996276E-01  4.16482977E+00
  5.66917837E-06 -3.72276047E-04  4.16482977E+00  5.66917837E-06 -3.72276047E-04
  4.16482977E+00  5.66917837E-06 -3.72276047E-04  4.16482977E+00  5.66917837E-06
 -3.72276047E-04  4.16482977E+00  5.66917837E-06 -3.72276047E-04  6.39462345E+00
 -1.13383567E-05  2.96687002E-04  6.39462345E+00 -1.13383567E-05  2.96687002E-04
  6.39462345E+00 -1.13383567E-05  2.96687002E-04  6.39462345E+00 -1.13383567E-05
  2.96687002E-04  6.39462345E+00 -1.13383567E-05  2.96687002E-04
Num ILSW                                   I              100
ILSW                                       I   N=         100
           0           1           0           0           2           0
           0           0           0           0         402          -1
           5           0           0           0           2           0
           0           0           0           0           1           0
           1           1           0           0           0           0
           0           0      100000           0          -1           0
           0           0           0           0           0           0
           0           0           0           1           0           0
           0 -2000000000           1           0           0           0
           0           0           4          52           0           0
           0           0           5           0           0           0
           0           0           0           7           0           1
           0           0           0           0           0           0
           0           0           0           0           0           0
           0           0           0           0           0           0
           0           0           0           0           0           0
           0           0           0           0
Num RLSW                                   I               52
RLSW                                       R   N=          52
  8.00000000E-01  7.20000000E-01  1.00000000E+00  8.10000000E-01  2.00000000E-01
  0.00000000E+00  0.00000000E+00  1.00000000E+00  0.00000000E+00  0.00000000E+00
  0.00000000E+00  0.00000000E+00  1.00000000E+00  0.00000000E+00  0.00000000E+00
  0.00000000E+00  0.00000000E+00  1.00000000E+00  0.00000000E+00  0.00000000E+00
  0.00000000E+00  0.00000000E+00  1.00000000E+00  0.00000000E+00  0.00000000E+00
  0.00000000E+00  0.00000000E+00  1.00000000E+00  0.00000000E+00  0.00000000E+00
  0.00000000E+00  0.00000000E+00  1.00000000E+00  0.00000000E+00  0.00000000E+00
  0.00000000E+00  0.00000000E+00  0.00000000E+00  1.00000000E+00  1.00000000E+00
  0.00000000E+00  1.00000000E+00  0.00000000E+00  0.00000000E+00  0.00000000E+00
  0.00000000E+00  0.00000000E+00  0.00000000E+00  0.00000000E+00  0.00000000E+00
  0.00000000E+00  0.00000000E+00
MxBond                                     I                3
NBond                                      I   N=           7
           3           0           1           1           1           1
           1
IBond                                      I   N=          21
           3           4           5           0           0           0
           1           0           0           1           0           0
           1           0           0           7           0           0
           6           0           0
RBond                                      R   N=          21
  1.00000000E+00  1.00000000E+00  1.00000000E+00  0.00000000E+00  0.00000000E+00
  0.00000000E+00  1.00000000E+00  0.00000000E+00  0.00000000E+00  1.00000000E+00
  0.00000000E+00  0.00000000E+00  1.00000000E+00  0.00000000E+00  0.00000000E+00
  2.00000000E+00  0.00000000E+00  0.00000000E+00  2.00000000E+00  0.00000000E+00
  0.00000000E+00
Virial Ratio                               R      2.004985332422857E+00
SCF Energy                                 R     -5.930170144043886E+02
Total Energy                               R     -5.930170144043886E+02
RMS Force                                  R      1.698917307202871E-02
RMS Density                                R      3.005011681971318E-09
NImag                                      I                1
Job Status                                 I                1
Nuclear derivative order                   I                2
External E-field                           R   N=          35
  0.00000000E+00  0.00000000E+00  0.00000000E+00  0.00000000E+00  0.00000000E+00
  0.00000000E+00  0.00000000E+00  0.00000000E+00  0.00000000E+00  0.00000000E+00
  0.00000000E+00  0.00000000E+00  0.00000000E+00  0.00000000E+00  0.00000000E+00
  0.00000000E+00  0.00000000E+00  0.00000000E+00  0.00000000E+00  0.00000000E+00
  0.00000000E+00  0.00000000E+00  0.00000000E+00  0.00000000E+00  0.00000000E+00
  0.00000000E+00  0.00000000E+00  0.00000000E+00  0.00000000E+00  0.00000000E+00
  0.00000000E+00  0.00000000E+00  0.00000000E+00  0.00000000E+00  0.00000000E+00
IOpCl                                      I                0
IROHF                                      I                0
Alpha Orbital Energies                     R   N=          98
 -1.01271042E+02 -1.42057109E+01 -1.01082403E+01 -1.00969023E+01 -9.18559305E+00
 -6.94367003E+00 -6.94306411E+00 -6.94306408E+00 -7.58327742E-01 -5.87484941E-01
 -5.23369328E-01 -3.14697625E-01 -3.04890008E-01 -3.04878942E-01 -2.23581422E-01
 -1.98278782E-01 -1.98278564E-01 -7.05325271E-02 -7.05321788E-02 -6.90029394E-02
  1.07677927E-01  1.46771593E-01  1.46776149E-01  1.47725361E-01  1.62905750E-01
  1.62907622E-01  1.75569011E-01  2.05385450E-01  2.12893419E-01  2.12895563E-01
  2.36655758E-01  2.39511631E-01  2.39514137E-01  2.58989645E-01  2.58990272E-01
  2.60069399E-01  3.11711655E-01  3.41247151E-01  3.41250019E-01  3.47652622E-01
  3.47661737E-01  3.52394083E-01  3.90780275E-01  4.30522573E-01  4.73171413E-01
  7.33464775E-01  7.89491994E-01  7.89494172E-01  8.24837579E-01  8.24851376E-01
  8.31203382E-01  8.58415686E-01  8.58423256E-01  8.88102607E-01  9.71705781E-01
  9.91658268E-01  1.04805907E+00  1.04806276E+00  1.12247483E+00  1.12247985E+00
  1.12888752E+00  1.13645342E+00  1.13645653E+00  1.16279462E+00  1.16281684E+00
  1.24570987E+00  1.25019491E+00  1.37784089E+00  1.51584494E+00  1.54434663E+00
  1.54435550E+00  1.67024621E+00  1.67024688E+00  1.76064888E+00  1.76064928E+00
  1.83460876E+00  2.08282820E+00  2.08986753E+00  2.08987411E+00  2.13614473E+00
  2.18481813E+00  2.18482313E+00  2.51175255E+00  2.51177075E+00  2.71960325E+00
  2.77683710E+00  2.77685694E+00  2.90009916E+00  2.95510009E+00  2.95513840E+00
  3.19286297E+00  3.45427461E+00  3.55989616E+00  3.55991245E+00  4.19298818E+00
  4.38377516E+00  4.56557381E+00  4.63698281E+00
Alpha MO coefficients                      R   N=        9604
 -3.87857749E-06 -6.87189287E-06  3.11938894E-05  2.36231884E-10 -6.09282468E-09
  6.85421144E-06 -2.00892479E-04 -1.27051552E-09  2.18593998E-08  4.37689737E-04
  4.28508490E-04  6.34809867E-10 -1.80029733E-08 -2.12731495E-05 -8.91458680E-06
 -8.91803183E-06  3.38143832E-10 -7.20608818E-10 -4.43540884E-11  9.95997649E-01
  1.51468461E-02  4.09859156E-06 -2.24943166E-11 -6.26414372E-10 -2.10599522E-02
 -3.63906475E-06  1.39923490E-10 -5.13502241E-10  1.90945409E-03 -2.77968843E-05
 -4.79068923E-10  7.37054316E-09 -1.75445721E-04  4.12097254E-05  7.26413292E-10
 -1.80677130E-08  7.50288672E-03  7.51940642E-03  7.51940631E-03 -8.64809221E-11
  2.55641778E-09 -5.22357378E-12 -1.24140271E-05 -5.74875512E-05  7.81183604E-05
  2.66643271E-05  2.14915161E-08 -9.17889829E-06 -1.24286498E-05 -5.74849919E-05
  7.81550923E-05  2.66646890E-05  7.93620110E-06  4.60169725E-06 -1.24304648E-05
 -5.74848797E-05  7.81574589E-05  2.66647029E-05 -7.95737953E-06  4.56486424E-06
 -2.81563271E-06 -1.11537915E-05  5.34396313E-06 -4.15941951E-11 -7.35215802E-10
 -1.62030838E-04 -3.17952453E-04  2.06765215E-09 -5.76825849E-08 -9.04009316E-04
  1.91946422E-04 -5.87198315E-10 -1.85545992E-10 -8.62858267E-06 -3.49433315E-06
 -3.49435555E-06  9.63103329E-11 -6.57212090E-09  1.54582033E-11 -4.49216170E-06
 -2.00586727E-05 -7.35943902E-07 -1.03183768E-11  2.50385955E-09  2.99383699E-04
 -1.31508244E-04  1.12405839E-09 -5.56483809E-08  2.37680343E-04 -6.31008084E-05
  5.27598909E-10 -1.84168192E-08  1.76451828E-06 -1.04491273E-05 -1.04490807E-05
 -1.26646690E-10  6.61300810E-09 -1.08392780E-12 -1.38324850E-05 -1.43107524E-04
  7.79666082E-06  2.69512227E-11  4.78224885E-09  4.80405893E-04  3.12313172E-04
  6.91756751E-11 -6.40197363E-08  4.92240218E-03  2.04969155E-03 -7.93632255E-10
 -1.59965393E-07  1.06308145E-04 -2.96919776E-05 -2.96774739E-05 -1.53212308E-10
 -3.99066104E-09  2.32744130E-10 -2.09782934E-08 -1.58685629E-06  1.80843906E-06
  8.25384795E-12 -6.70910331E-10 -3.78796693E-06 -1.32417370E-05 -4.86296836E-11
  4.08855714E-09 -1.63986616E-05  6.75710664E-05  2.19033494E-10 -1.58317553E-08
  6.03804215E-04  1.55298115E-04  5.99467383E-10 -5.65561251E-09  9.63964360E-06
 -7.01444282E-06 -7.01466815E-06  1.84890067E-11 -2.13279884E-09 -1.84267004E-11
  5.58814017E-06 -1.24409907E-04 -1.17959675E-04 -1.34219415E-05 -1.93086025E-08
  8.29348913E-06  5.60094393E-06 -1.24330963E-04 -1.18071025E-04 -1.34125176E-05
 -7.18136982E-06 -4.16259582E-06  5.60188449E-06 -1.24330891E-04 -1.18075637E-04
 -1.34120827E-05  7.20082794E-06 -4.12931187E-06  8.36158623E-05  2.64216750E-04
 -4.34582894E-04  2.93719436E-09 -1.15083733E-07  2.09963185E-04  4.26739261E-04
 -3.38137063E-11 -1.15785843E-08 -3.16301658E-03  3.03653946E-03 -1.44542438E-08
  4.53155908E-07 -9.33895436E-04  4.72367024E-06  4.72388633E-06  7.84231027E-09
 -3.05886594E-07  3.09272575E-11  9.92748023E-01  3.44686005E-02 -1.77277523E-03
  1.45052061E-08 -5.61329081E-07  4.23706390E-03  6.23025332E-04 -6.14698074E-09
  2.35280402E-07 -3.17766395E-03 -3.56947793E-04  9.23540936E-10 -4.68937018E-10
 -7.54204917E-03 -8.34603165E-03 -8.34603194E-03 -6.91359142E-09  2.72192446E-07
 -3.56942921E-12  9.93155843E-01  4.97012424E-02  5.26000490E-04  1.18167787E-09
 -1.28842049E-07 -1.97696685E-02 -3.32425289E-03  1.83348610E-08  4.71365059E-07
  1.59065712E-02  1.25581527E-02  2.98497831E-08 -1.47627370E-07 -9.35170452E-03
 -8.44104275E-03 -8.44112238E-03  3.36754837E-09  3.96883111E-08  5.01267913E-09
 -2.68115978E-07  9.35562244E-06 -7.11986501E-06  3.89816076E-10 -1.45810291E-09
 -1.34062129E-05  2.82673115E-06 -2.57603715E-09  1.56089726E-08 -2.23159300E-04
  2.48957148E-04  9.03870137E-09 -9.63296938E-08  5.30873443E-03  1.59855804E-03
  1.19515468E-08 -4.77541693E-07  1.01302021E-04  6.88045396E-06  6.89058988E-06
  2.36352353E-09 -3.66761649E-08  4.89636007E-10 -1.19074300E-04  3.11334694E-03
  2.33101510E-05  2.48988856E-05  4.52850233E-07 -1.94609252E-04 -1.19150194E-04
  3.11300738E-03  2.32281609E-05  2.48968181E-05  1.68313542E-04  9.76740950E-05
 -1.19149829E-04  3.11303481E-03  2.32752147E-05  2.49012064E-05 -1.68761511E-04
  9.68887843E-05  1.80503146E-03 -2.77915627E-05 -2.52408515E-05  2.24573840E-09
  2.13335396E-09 -1.84136604E-03 -8.07109784E-03  2.51035695E-08 -1.25969423E-06
 -2.36727068E-02  6.82198015E-03 -4.40266501E-08  2.93655469E-08 -3.58215999E-04
 -7.77980292E-05 -7.77928585E-05  3.97605161E-09 -1.15928892E-07 -5.25835361E-10
 -7.20294637E-05 -3.18917738E-04 -1.21449795E-04 -7.61605560E-10  2.44713914E-08
  6.50756208E-03 -2.49214787E-03  3.34883403E-08 -1.30991869E-06  4.08434533E-03
 -1.82622003E-03  2.30678966E-08 -1.84375908E-07  5.53483302E-05 -1.50427874E-04
 -1.50427175E-04 -4.89106836E-09  1.83711778E-07  5.51054906E-11 -1.94930837E-03
 -1.87004199E-04  3.35240507E-06 -4.87279045E-10 -2.84311325E-09  2.73569926E-03
  1.49020190E-03 -1.13221155E-08  4.24624873E-08  3.61637623E-02  2.51820566E-02
 -2.34679090E-09 -9.60886271E-07 -2.22590912E-04 -5.20591194E-05 -5.20621878E-05
  6.32597805E-10  3.96562194E-09 -6.29747600E-10  8.07366441E-08 -3.84695584E-06
  2.40625407E-05  1.47470775E-10 -7.11316621E-09  1.55928523E-06 -1.56110294E-04
 -8.61754002E-10  4.27156463E-08 -3.09130159E-04  7.13332615E-04  2.62253656E-09
 -1.41564859E-07  9.95559504E-03  3.15010868E-03  2.67085385E-08 -8.34717261E-07
  4.66106676E-05 -3.49462883E-05 -3.49471559E-05  6.97656523E-10 -2.88748525E-08
 -9.65028476E-11 -8.66298315E-05 -5.81819726E-04  5.52940396E-04 -1.31412746E-05
  1.90599084E-08 -8.06422897E-06 -8.66120256E-05 -5.81854749E-04  5.53641935E-04
 -1.30953021E-05  6.98213560E-06  4.05512362E-06 -8.66130756E-05 -5.81865742E-04
  5.53654899E-04 -1.30997243E-05 -7.00241001E-06  4.02384871E-06  9.92866083E-01
  4.95237983E-02  7.52367661E-04 -7.76695197E-09  3.77253472E-07 -1.02547016E-02
  3.22583517E-03 -5.69109867E-09  6.58550434E-08 -5.19596748E-02  1.56873357E-02
 -5.12073278E-08  3.00214406E-07 -8.54740454E-03 -9.63485205E-03 -9.63485289E-03
 -1.02004593E-08  3.91308353E-07  1.29890035E-10 -4.03277032E-04  3.52151212E-04
  1.85908192E-04 -8.24914945E-10  4.33592695E-08 -4.68996628E-03  1.82235008E-03
 -2.05401367E-08  7.73390184E-07  9.84965683E-03 -5.97609834E-03  3.81478293E-08
 -9.57389065E-07  9.05909091E-05  2.89395194E-04  2.89395820E-04  2.95494011E-09
 -1.23793180E-07 -9.39076581E-12  2.51378313E-05  1.50735210E-05  2.75120010E-04
 -9.13598007E-10 -2.86875165E-08 -1.50164576E-03 -3.01417259E-03  7.67084961E-09
  1.23365912E-07  9.41857518E-03  1.36616366E-02  7.96625331E-10 -1.31486405E-06
  1.57554415E-04  5.45696544E-05  5.45632107E-05 -4.18574020E-10 -1.37563805E-08
  5.18918145E-11 -2.84629554E-01  1.02270590E+00  3.50308332E-04  5.01319313E-10
 -1.17754584E-07  7.54268317E-02  5.14431924E-04  5.13779284E-10 -6.27292676E-08
 -2.25656863E-02 -1.68399407E-03 -1.97181534E-09  1.87502642E-07  1.89177235E-02
  6.39246130E-03  1.20553862E-08 -7.63643347E-07 -1.56151468E-02 -1.55277140E-02
 -1.55277193E-02 -4.63249414E-10  1.52644107E-08  3.41435089E-11 -5.34640244E-05
 -2.23546675E-04 -2.16267099E-03  2.53676008E-05 -5.02457576E-08  2.12939963E-05
 -5.35090733E-05 -2.23199242E-04 -2.16392281E-03  2.52800807E-05 -1.84443177E-05
 -1.06963546E-05 -5.35110333E-05 -2.23177671E-04 -2.16404763E-03  2.52708190E-05
  1.84951789E-05 -1.06121353E-05 -1.82351685E-05 -1.22886193E-04 -4.53611388E-06
 -2.49082811E-10 -7.53573182E-09 -1.26931088E-03 -3.30437940E-03  1.71252465E-08
 -4.86464988E-07 -1.31606813E-02  4.59119054E-03 -5.36736387E-08  1.46396270E-06
  6.41701112E-05 -1.21702427E-05 -1.21698641E-05  5.49129948E-10 -3.01075320E-08
  9.94842999E-11 -8.86499567E-05 -3.40923927E-04  6.01934447E-06 -4.18676952E-10
  3.52593718E-08  3.94390129E-03 -1.14129209E-03  1.12223742E-08 -5.59997833E-07
 -1.69796914E-03  1.27759240E-04  1.37469488E-08 -3.24892629E-07 -1.44104786E-04
 -1.86477326E-04 -1.86479189E-04 -9.16776648E-10  4.88065339E-08 -3.70734163E-11
 -1.80470988E-05 -3.19806498E-04 -1.78388916E-04 -2.73693474E-09  6.06984339E-08
 -2.90803665E-04 -1.53159833E-03  1.81032911E-08 -2.49494355E-07 -7.72874017E-02
 -5.78253159E-02 -6.50376201E-09  1.99655403E-06  3.89467267E-04 -6.57631901E-05
 -6.57127850E-05 -2.54243443E-09 -6.02325537E-08  4.32928317E-10  1.46752512E-04
 -4.06383417E-04  9.90644217E-01  7.49417664E-06 -1.97522136E-04  4.17729164E-04
  3.05308719E-02  2.27068761E-07 -6.05581956E-06 -1.01401679E-03 -1.39705943E-02
 -9.36107762E-08  2.66897381E-06 -2.11316734E-02 -2.22359135E-03 -2.55842453E-08
  9.78258793E-07  1.42444569E-04  2.45348653E-04  2.45355443E-04 -1.37354298E-09
  4.32952226E-08  8.97564467E-11 -9.08989014E-05  9.85077704E-04 -3.24941397E-03
 -1.17576328E-04 -3.27368531E-07  1.40095943E-04 -9.07357238E-05  9.85418454E-04
 -3.24996812E-03 -1.17746134E-04 -1.21207847E-04 -7.02928262E-05 -9.07183367E-05
  9.85426439E-04 -3.24996251E-03 -1.17760399E-04  1.21534569E-04 -6.97313715E-05
 -1.03931567E-04 -4.15675683E-04 -2.32036429E-05  2.01642519E-09 -1.12941911E-07
  2.54868947E-03 -1.35747312E-03 -6.08966804E-09  3.46254218E-07  1.10944031E-01
 -3.70089936E-02  1.65256209E-07 -2.08544039E-06 -1.80067379E-04 -1.63549277E-04
 -1.63544704E-04 -8.45662966E-11  6.56001054E-09 -9.12336607E-11 -2.50350015E-05
 -1.18927444E-04  1.42992278E-05 -6.09528783E-10 -2.07286059E-08  1.31921224E-03
 -5.11758773E-04  1.00861749E-08 -1.96264131E-07 -7.71219365E-03  7.14447891E-03
 -6.03038142E-08  9.65210735E-07  1.87426455E-05 -4.46497571E-05 -4.46510440E-05
 -1.02630558E-09  4.33817514E-08  4.29086380E-11 -1.94734021E-09 -7.22237570E-09
  3.19701828E-09 -3.24534398E-05  1.58107352E-07  6.59280857E-08 -2.48345564E-08
 -3.77745830E-04  1.85602556E-06  8.97223110E-08 -1.51107046E-08  3.59025300E-04
 -1.75552283E-06 -5.00816356E-09  3.53457482E-07 -3.58660573E-07 -4.73439176E-05
  2.31016970E-07 -3.45648568E-05 -8.91316490E-10  2.76134518E-09 -8.46141526E-06
  9.90793808E-01 -4.85235943E-03 -2.98312820E-09 -2.56106133E-07  2.97100892E-02
 -1.45504202E-04  7.41068495E-09  9.70149759E-08 -1.15807104E-02  5.67184097E-05
 -5.32995067E-08 -5.62215539E-08  5.16151640E-03 -2.52828912E-05 -2.59300627E-09
 -1.98480081E-08  2.03994838E-08  6.25227012E-05 -3.06059069E-07  1.94890648E-06
 -1.09963049E-06  8.24880488E-06 -3.31110328E-05 -1.00459606E-06  2.39372762E-05
  8.71643505E-07 -1.31365006E-04  9.89203724E-04 -3.95137052E-03 -1.20350094E-04
 -7.83862842E-05 -5.95071292E-05  1.32461328E-04 -9.97584839E-04  3.98445782E-03
  1.21368003E-04 -7.95247857E-05  5.92925544E-05  2.32864706E-12  2.37597990E-10
  7.64526535E-10  5.52740501E-05 -2.70362334E-07 -1.30242381E-08 -1.16346997E-08
 -2.09307254E-04  1.02256814E-06  1.73348455E-08 -1.21995169E-08  1.08178598E-03
 -5.29867543E-06 -7.26954013E-10  3.42375568E-08 -3.41578199E-08 -9.70004470E-06
  4.77047362E-08 -3.31989793E-06 -3.78320307E-10 -1.50570169E-09 -2.60686785E-10
 -1.91853511E-05  9.38200897E-08  1.69171048E-08 -4.96207835E-09  1.25831079E-04
 -6.15334036E-07 -1.27294310E-09  7.97954627E-09 -3.72603738E-04  1.82580821E-06
 -6.33558248E-10 -3.80782124E-08  3.67547802E-08 -1.72775312E-05  8.44730073E-08
  3.64141514E-06  9.55660689E-09  1.72277361E-08 -3.70410430E-08 -1.60002355E-07
 -3.25008366E-05 -3.68915505E-07  2.20528513E-07 -1.84172495E-06 -3.77291081E-04
  6.42660627E-06  4.87667846E-06  1.75757853E-06  3.58304051E-04  4.60185372E-08
 -2.99007675E-05  2.99358237E-05 -2.32931350E-07 -4.73886509E-05 -4.09266095E-07
 -8.87068098E-09  4.41405281E-08  1.97504528E-04  4.85236125E-03  9.90793798E-01
  8.09725351E-08  5.93604977E-06  1.45502733E-04  2.97100379E-02 -2.31898461E-07
 -2.24059835E-06 -5.67126840E-05 -1.15805587E-02  2.31647121E-06  1.71921258E-06
  2.52722732E-05  5.16124064E-03  4.09824495E-08  1.70437612E-06 -1.73647183E-06
  3.06395369E-07  6.25331792E-05  2.36518851E-08  1.52411564E-04 -1.14642616E-03
  4.58038081E-03  1.39453122E-04  4.35588525E-07 -1.13222190E-04 -7.71510085E-05
  5.80844783E-04 -2.31855737E-03 -7.06696411E-05 -5.99620496E-05 -1.09165907E-05
 -7.52420428E-05  5.66516317E-04 -2.26129094E-03 -6.89267446E-05  5.88715352E-05
 -9.78137193E-06  1.27461404E-08  4.91149902E-08 -2.14268308E-08  2.70976626E-07
  5.52607914E-05 -2.21390479E-07  2.16294927E-07 -1.02753700E-06 -2.09299574E-04
 -9.40819945E-06  3.84732570E-06  5.29732288E-06  1.08179326E-03  2.39257248E-08