 Entering Gaussian System, Link 0=g16
 Initial command:
 /usr/local/g16_AVX//g16/l1.exe "/scratch/alanqf/0076-54518.ixchel.mda.cinvestav.mx/Gau-27018.inp" -scrdir="/scratch/alanqf/0076-54518.ixchel.mda.cinvestav.mx/"
 Entering Link 1 = /usr/local/g16_AVX//g16/l1.exe PID=     27019.
  
 Copyright (c) 1988-2017, Gaussian, Inc.  All Rights Reserved.
  
 This is part of the Gaussian(R) 16 program.  It is based on
 the Gaussian(R) 09 system (copyright 2009, Gaussian, Inc.),
 the Gaussian(R) 03 system (copyright 2003, Gaussian, Inc.),
 the Gaussian(R) 98 system (copyright 1998, Gaussian, Inc.),
 the Gaussian(R) 94 system (copyright 1995, Gaussian, Inc.),
 the Gaussian 92(TM) system (copyright 1992, Gaussian, Inc.),
 the Gaussian 90(TM) system (copyright 1990, Gaussian, Inc.),
 the Gaussian 88(TM) system (copyright 1988, Gaussian, Inc.),
 the Gaussian 86(TM) system (copyright 1986, Carnegie Mellon
 University), and the Gaussian 82(TM) system (copyright 1983,
 Carnegie Mellon University). Gaussian is a federally registered
 trademark of Gaussian, Inc.
  
 This software contains proprietary and confidential information,
 including trade secrets, belonging to Gaussian, Inc.
  
 This software is provided under written license and may be
 used, copied, transmitted, or stored only in accord with that
 written license.
  
 The following legend is applicable only to US Government
 contracts under FAR:
  
                    RESTRICTED RIGHTS LEGEND
  
 Use, reproduction and disclosure by the US Government is
 subject to restrictions as set forth in subparagraphs (a)
 and (c) of the Commercial Computer Software - Restricted
 Rights clause in FAR 52.227-19.
  
 Gaussian, Inc.
 340 Quinnipiac St., Bldg. 40, Wallingford CT 06492
  
  
 ---------------------------------------------------------------
 Warning -- This program may not be used in any manner that
 competes with the business of Gaussian, Inc. or will provide
 assistance to any competitor of Gaussian, Inc.  The licensee
 of this program is prohibited from giving any competitor of
 Gaussian, Inc. access to this program.  By using this program,
 the user acknowledges that Gaussian, Inc. is engaged in the
 business of creating and licensing software in the field of
 computational chemistry and represents and warrants to the
 licensee that it is not a competitor of Gaussian, Inc. and that
 it will not use this program in any manner prohibited above.
 ---------------------------------------------------------------
  

 Cite this work as:
 Gaussian 16, Revision B.01,
 M. J. Frisch, G. W. Trucks, H. B. Schlegel, G. E. Scuseria, 
 M. A. Robb, J. R. Cheeseman, G. Scalmani, V. Barone, 
 G. A. Petersson, H. Nakatsuji, X. Li, M. Caricato, A. V. Marenich, 
 J. Bloino, B. G. Janesko, R. Gomperts, B. Mennucci, H. P. Hratchian, 
 J. V. Ortiz, A. F. Izmaylov, J. L. Sonnenberg, D. Williams-Young, 
 F. Ding, F. Lipparini, F. Egidi, J. Goings, B. Peng, A. Petrone, 
 T. Henderson, D. Ranasinghe, V. G. Zakrzewski, J. Gao, N. Rega, 
 G. Zheng, W. Liang, M. Hada, M. Ehara, K. Toyota, R. Fukuda, 
 J. Hasegawa, M. Ishida, T. Nakajima, Y. Honda, O. Kitao, H. Nakai, 
 T. Vreven, K. Throssell, J. A. Montgomery, Jr., J. E. Peralta, 
 F. Ogliaro, M. J. Bearpark, J. J. Heyd, E. N. Brothers, K. N. Kudin, 
 V. N. Staroverov, T. A. Keith, R. Kobayashi, J. Normand, 
 K. Raghavachari, A. P. Rendell, J. C. Burant, S. S. Iyengar, 
 J. Tomasi, M. Cossi, J. M. Millam, M. Klene, C. Adamo, R. Cammi, 
 J. W. Ochterski, R. L. Martin, K. Morokuma, O. Farkas, 
 J. B. Foresman, and D. J. Fox, Gaussian, Inc., Wallingford CT, 2016.
 
 ******************************************
 Gaussian 16:  ES64L-G16RevB.01 20-Dec-2017
                13-Oct-2024 
 ******************************************
 %NProcShared=26
 Will use up to   26 processors via shared memory.
 %MEM=20GB
 %chk=CHKfiles/0076.chk
 ---------------------------------------------------------------------
 #p b3lyp 6-31++g(d,p) scf=verytight NoSymm freq=noraman int=ultrafine
 ---------------------------------------------------------------------
 1/10=4,30=1,38=1/1,3;
 2/12=2,15=1,17=6,18=5,40=1/2;
 3/5=1,6=6,7=1111,11=2,25=1,30=1,71=2,74=-5,75=-5,140=1/1,2,3;
 4//1;
 5/5=2,17=3,38=5,98=1/2;
 8/6=4,10=90,11=11/1;
 11/6=1,8=1,9=11,15=111,16=1,31=1/1,2,10;
 10/6=1,31=1/2;
 6/7=2,8=2,9=2,10=2,28=1/1;
 7/8=1,10=1,25=1,30=1/1,2,3,16;
 1/10=4,30=1/3;
 99//99;
 Leave Link    1 at Sun Oct 13 09:49:37 2024, MaxMem=  2684354560 cpu:               1.4 elap:               0.1
 (Enter /usr/local/g16_AVX//g16/l101.exe)
 -------------------------
 RxCoord=-2.49942 DE=34.27
 -------------------------
 Symbolic Z-matrix:
 Charge = -1 Multiplicity = 1
 C                     0.35426   0.00001  -0.00024 
 Cl                   -2.24757  0.         0.00011 
 H                     0.12956   0.00246  -1.05774 
 H                     0.12959   0.91462   0.5306 
 H                     0.12957  -0.91706   0.52634 
 C                     2.20858   0.       -0.0002 
 N                     3.38847  -0.00001   0.00016 
 
 ITRead=  0  0  0  0  0  0  0
 MicOpt= -1 -1 -1 -1 -1 -1 -1
 NAtoms=      7 NQM=        7 NQMF=       0 NMMI=      0 NMMIF=      0
                NMic=       0 NMicF=      0.
                    Isotopes and Nuclear Properties:
 (Nuclear quadrupole moments (NQMom) in fm**2, nuclear magnetic moments (NMagM)
  in nuclear magnetons)

  Atom         1           2           3           4           5           6           7
 IAtWgt=          12          35           1           1           1          12          14
 AtmWgt=  12.0000000  34.9688527   1.0078250   1.0078250   1.0078250  12.0000000  14.0030740
 NucSpn=           0           3           1           1           1           0           2
 AtZEff=  -0.0000000  -0.0000000  -0.0000000  -0.0000000  -0.0000000  -0.0000000  -0.0000000
 NQMom=    0.0000000  -8.1650000   0.0000000   0.0000000   0.0000000   0.0000000   2.0440000
 NMagM=    0.0000000   0.8218740   2.7928460   2.7928460   2.7928460   0.0000000   0.4037610
 AtZNuc=   6.0000000  17.0000000   1.0000000   1.0000000   1.0000000   6.0000000   7.0000000
 Leave Link  101 at Sun Oct 13 09:49:37 2024, MaxMem=  2684354560 cpu:               2.8 elap:               0.2
 (Enter /usr/local/g16_AVX//g16/l103.exe)

 GradGradGradGradGradGradGradGradGradGradGradGradGradGradGradGradGradGrad
 Berny optimization.
 Initialization pass.
 Trust Radius=3.00D-01 FncErr=1.00D-07 GrdErr=1.00D-07 EigMax=2.50D+02 EigMin=1.00D-04
 Number of steps in this run=      2 maximum allowed number of steps=      2.
 GradGradGradGradGradGradGradGradGradGradGradGradGradGradGradGradGradGrad

 Leave Link  103 at Sun Oct 13 09:49:37 2024, MaxMem=  2684354560 cpu:               0.5 elap:               0.1
 (Enter /usr/local/g16_AVX//g16/l202.exe)
                          Input orientation:                          
 ---------------------------------------------------------------------
 Center     Atomic      Atomic             Coordinates (Angstroms)
 Number     Number       Type             X           Y           Z
 ---------------------------------------------------------------------
      1          6           0        0.354258    0.000007   -0.000240
      2         17           0       -2.247567   -0.000002    0.000110
      3          1           0        0.129555    0.002462   -1.057739
      4          1           0        0.129587    0.914615    0.530604
      5          1           0        0.129572   -0.917058    0.526342
      6          6           0        2.208580    0.000003   -0.000199
      7          7           0        3.388471   -0.000006    0.000159
 ---------------------------------------------------------------------
                    Distance matrix (angstroms):
                    1          2          3          4          5
     1  C    0.000000
     2  Cl   2.601825   0.000000
     3  H    1.081111   2.601876   0.000000
     4  H    1.081101   2.601694   1.831627   0.000000
     5  H    1.081102   2.601673   1.831619   1.831678   0.000000
     6  C    1.854322   4.456147   2.332540   2.332483   2.332492
     7  N    3.034213   5.636038   3.426323   3.426110   3.426117
                    6          7
     6  C    0.000000
     7  N    1.179891   0.000000
 Symmetry turned off by external request.
 This structure is nearly, but not quite of a higher symmetry.
 Consider Symm=Loose if the higher symmetry is desired.
 Stoichiometry    C2H3ClN(1-)
 Framework group  C1[X(C2H3ClN)]
 Deg. of freedom    15
 Full point group                 C1      NOp   1
 Rotational constants (GHZ):         149.4689238           1.2659543           1.2659539
 Leave Link  202 at Sun Oct 13 09:49:37 2024, MaxMem=  2684354560 cpu:               0.2 elap:               0.0
 (Enter /usr/local/g16_AVX//g16/l301.exe)
 Standard basis: 6-31++G(d,p) (6D, 7F)
 Ernie: Thresh=  0.10000D-02 Tol=  0.10000D-05 Strict=F.
    98 basis functions,   176 primitive gaussians,    98 cartesian basis functions
    20 alpha electrons       20 beta electrons
       nuclear repulsion energy       107.8441293978 Hartrees.
 IExCor=  402 DFT=T Ex+Corr=B3LYP ExCW=0 ScaHFX=  0.200000
 ScaDFX=  0.800000  0.720000  1.000000  0.810000 ScalE2=  1.000000  1.000000
 IRadAn=      5 IRanWt=     -1 IRanGd=            0 ICorTp=0 IEmpDi=  4
 NAtoms=    7 NActive=    7 NUniq=    7 SFac= 1.00D+00 NAtFMM=   60 NAOKFM=F Big=F
 Integral buffers will be    131072 words long.
 Raffenetti 2 integral format.
 Two-electron integral symmetry is turned off.
 Leave Link  301 at Sun Oct 13 09:49:37 2024, MaxMem=  2684354560 cpu:               1.4 elap:               0.1
 (Enter /usr/local/g16_AVX//g16/l302.exe)
 NPDir=0 NMtPBC=     1 NCelOv=     1 NCel=       1 NClECP=     1 NCelD=      1
         NCelK=      1 NCelE2=     1 NClLst=     1 CellRange=     0.0.
 One-electron integrals computed using PRISM.
 NBasis=    98 RedAO= T EigKep=  4.11D-05  NBF=    98
 NBsUse=    98 1.00D-06 EigRej= -1.00D+00 NBFU=    98
 Precomputing XC quadrature grid using
 IXCGrd= 4 IRadAn=           5 IRanWt=          -1 IRanGd=           0 AccXCQ= 0.00D+00.
 Generated NRdTot=       0 NPtTot=           0 NUsed=           0 NTot=          32
 NSgBfM=    98    98    98    98    98 MxSgAt=     7 MxSgA2=     7.
 Leave Link  302 at Sun Oct 13 09:49:37 2024, MaxMem=  2684354560 cpu:               4.7 elap:               0.2
 (Enter /usr/local/g16_AVX//g16/l303.exe)
 DipDrv:  MaxL=1.
 Leave Link  303 at Sun Oct 13 09:49:38 2024, MaxMem=  2684354560 cpu:               0.8 elap:               0.1
 (Enter /usr/local/g16_AVX//g16/l401.exe)
 ExpMin= 3.60D-02 ExpMax= 2.52D+04 ExpMxC= 3.78D+03 IAcc=3 IRadAn=         5 AccDes= 0.00D+00
 Harris functional with IExCor=  402 and IRadAn=       5 diagonalized for initial guess.
 HarFok:  IExCor=  402 AccDes= 0.00D+00 IRadAn=         5 IDoV= 1 UseB2=F ITyADJ=14
 ICtDFT=  3500011 ScaDFX=  1.000000  1.000000  1.000000  1.000000
 FoFCou: FMM=F IPFlag=           0 FMFlag=      100000 FMFlg1=           0
         NFxFlg=           0 DoJE=T BraDBF=F KetDBF=T FulRan=T
         wScrn=  0.000000 ICntrl=       500 IOpCl=  0 I1Cent=   200000004 NGrid=           0
         NMat0=    1 NMatS0=      1 NMatT0=    0 NMatD0=    1 NMtDS0=    0 NMtDT0=    0
 Symmetry not used in FoFCou.
 Harris En= -593.055256012058    
 JPrj=0 DoOrth=F DoCkMO=F.
 Leave Link  401 at Sun Oct 13 09:49:38 2024, MaxMem=  2684354560 cpu:               5.8 elap:               0.3
 (Enter /usr/local/g16_AVX//g16/l502.exe)
 Keep R1 ints in memory in canonical form, NReq=35752921.
 FoFCou: FMM=F IPFlag=           0 FMFlag=           0 FMFlg1=           0
         NFxFlg=           0 DoJE=F BraDBF=F KetDBF=F FulRan=T
         wScrn=  0.000000 ICntrl=       600 IOpCl=  0 I1Cent=           0 NGrid=           0
         NMat0=    1 NMatS0=   4851 NMatT0=    0 NMatD0=    1 NMtDS0=    0 NMtDT0=    0
 Symmetry not used in FoFCou.
 Two-electron integral symmetry not used.
 Closed shell SCF:
 Using DIIS extrapolation, IDIIS=  1040.
 NGot=  2684354560 LenX=  2672563419 LenY=  2672553374
 Requested convergence on RMS density matrix=1.00D-08 within 128 cycles.
 Requested convergence on MAX density matrix=1.00D-06.
 Requested convergence on             energy=1.00D-06.
 No special actions if energy rises.

 Cycle   1  Pass 1  IDiag  1:
 E= -592.914591200892    
 DIIS: error= 2.87D-02 at cycle   1 NSaved=   1.
 NSaved= 1 IEnMin= 1 EnMin= -592.914591200892     IErMin= 1 ErrMin= 2.87D-02
 ErrMax= 2.87D-02  0.00D+00 EMaxC= 1.00D-01 BMatC= 9.70D-02 BMatP= 9.70D-02
 IDIUse=3 WtCom= 7.13D-01 WtEn= 2.87D-01
 Coeff-Com:  0.100D+01
 Coeff-En:   0.100D+01
 Coeff:      0.100D+01
 Gap=     0.218 Goal=   None    Shift=    0.000
 GapD=    0.218 DampG=1.000 DampE=0.500 DampFc=0.5000 IDamp=-1.
 Damping current iteration by 5.00D-01
 RMSDP=9.53D-03 MaxDP=1.91D-01              OVMax= 2.07D-01

 Cycle   2  Pass 1  IDiag  1:
 E= -592.937095861006     Delta-E=       -0.022504660115 Rises=F Damp=T
 DIIS: error= 2.01D-02 at cycle   2 NSaved=   2.
 NSaved= 2 IEnMin= 2 EnMin= -592.937095861006     IErMin= 2 ErrMin= 2.01D-02
 ErrMax= 2.01D-02  0.00D+00 EMaxC= 1.00D-01 BMatC= 2.50D-02 BMatP= 9.70D-02
 IDIUse=3 WtCom= 7.99D-01 WtEn= 2.01D-01
 Coeff-Com:  0.268D+00 0.732D+00
 Coeff-En:   0.380D+00 0.620D+00
 Coeff:      0.290D+00 0.710D+00
 Gap=     0.163 Goal=   None    Shift=    0.000
 RMSDP=3.19D-03 MaxDP=5.51D-02 DE=-2.25D-02 OVMax= 1.86D-01

 Cycle   3  Pass 1  IDiag  1:
 E= -592.995113422386     Delta-E=       -0.058017561380 Rises=F Damp=F
 DIIS: error= 1.86D-02 at cycle   3 NSaved=   3.
 NSaved= 3 IEnMin= 3 EnMin= -592.995113422386     IErMin= 3 ErrMin= 1.86D-02
 ErrMax= 1.86D-02  0.00D+00 EMaxC= 1.00D-01 BMatC= 2.00D-02 BMatP= 2.50D-02
 IDIUse=3 WtCom= 8.14D-01 WtEn= 1.86D-01
 Coeff-Com:  0.663D-01 0.457D+00 0.476D+00
 Coeff-En:   0.000D+00 0.000D+00 0.100D+01
 Coeff:      0.540D-01 0.373D+00 0.573D+00
 Gap=     0.185 Goal=   None    Shift=    0.000
 RMSDP=2.86D-03 MaxDP=4.59D-02 DE=-5.80D-02 OVMax= 7.64D-02

 Cycle   4  Pass 1  IDiag  1:
 E= -593.006846624652     Delta-E=       -0.011733202266 Rises=F Damp=F
 DIIS: error= 1.31D-02 at cycle   4 NSaved=   4.
 NSaved= 4 IEnMin= 4 EnMin= -593.006846624652     IErMin= 4 ErrMin= 1.31D-02
 ErrMax= 1.31D-02  0.00D+00 EMaxC= 1.00D-01 BMatC= 8.73D-03 BMatP= 2.00D-02
 IDIUse=3 WtCom= 8.69D-01 WtEn= 1.31D-01
 Coeff-Com:  0.336D-01 0.287D-01 0.376D+00 0.562D+00
 Coeff-En:   0.000D+00 0.000D+00 0.336D+00 0.664D+00
 Coeff:      0.291D-01 0.249D-01 0.371D+00 0.575D+00
 Gap=     0.177 Goal=   None    Shift=    0.000
 RMSDP=1.09D-03 MaxDP=1.73D-02 DE=-1.17D-02 OVMax= 3.14D-02

 Cycle   5  Pass 1  IDiag  1:
 E= -593.014706320130     Delta-E=       -0.007859695478 Rises=F Damp=F
 DIIS: error= 1.19D-03 at cycle   5 NSaved=   5.
 NSaved= 5 IEnMin= 5 EnMin= -593.014706320130     IErMin= 5 ErrMin= 1.19D-03
 ErrMax= 1.19D-03  0.00D+00 EMaxC= 1.00D-01 BMatC= 1.33D-04 BMatP= 8.73D-03
 IDIUse=3 WtCom= 9.88D-01 WtEn= 1.19D-02
 Coeff-Com:  0.111D-01-0.109D-01 0.161D+00 0.297D+00 0.541D+00
 Coeff-En:   0.000D+00 0.000D+00 0.000D+00 0.000D+00 0.100D+01
 Coeff:      0.110D-01-0.107D-01 0.159D+00 0.294D+00 0.547D+00
 Gap=     0.179 Goal=   None    Shift=    0.000
 RMSDP=2.12D-04 MaxDP=3.65D-03 DE=-7.86D-03 OVMax= 4.07D-03

 Cycle   6  Pass 1  IDiag  1:
 E= -593.014851204780     Delta-E=       -0.000144884649 Rises=F Damp=F
 DIIS: error= 1.82D-04 at cycle   6 NSaved=   6.
 NSaved= 6 IEnMin= 6 EnMin= -593.014851204780     IErMin= 6 ErrMin= 1.82D-04
 ErrMax= 1.82D-04  0.00D+00 EMaxC= 1.00D-01 BMatC= 3.34D-06 BMatP= 1.33D-04
 IDIUse=3 WtCom= 9.98D-01 WtEn= 1.82D-03
 Coeff-Com:  0.201D-02-0.425D-02 0.294D-01 0.574D-01 0.198D+00 0.717D+00
 Coeff-En:   0.000D+00 0.000D+00 0.000D+00 0.000D+00 0.000D+00 0.100D+01
 Coeff:      0.201D-02-0.424D-02 0.293D-01 0.572D-01 0.198D+00 0.718D+00
 Gap=     0.178 Goal=   None    Shift=    0.000
 RMSDP=9.39D-05 MaxDP=2.78D-03 DE=-1.45D-04 OVMax= 7.70D-04

 Cycle   7  Pass 1  IDiag  1:
 E= -593.014855305361     Delta-E=       -0.000004100582 Rises=F Damp=F
 DIIS: error= 2.01D-05 at cycle   7 NSaved=   7.
 NSaved= 7 IEnMin= 7 EnMin= -593.014855305361     IErMin= 7 ErrMin= 2.01D-05
 ErrMax= 2.01D-05  0.00D+00 EMaxC= 1.00D-01 BMatC= 4.28D-08 BMatP= 3.34D-06
 IDIUse=1 WtCom= 1.00D+00 WtEn= 0.00D+00
 Coeff-Com:  0.153D-03-0.722D-03 0.142D-02 0.284D-02 0.284D-01 0.168D+00
 Coeff-Com:  0.800D+00
 Coeff:      0.153D-03-0.722D-03 0.142D-02 0.284D-02 0.284D-01 0.168D+00
 Coeff:      0.800D+00
 Gap=     0.178 Goal=   None    Shift=    0.000
 RMSDP=8.72D-06 MaxDP=2.32D-04 DE=-4.10D-06 OVMax= 1.56D-04

 Cycle   8  Pass 1  IDiag  1:
 E= -593.014855342333     Delta-E=       -0.000000036972 Rises=F Damp=F
 DIIS: error= 8.45D-06 at cycle   8 NSaved=   8.
 NSaved= 8 IEnMin= 8 EnMin= -593.014855342333     IErMin= 8 ErrMin= 8.45D-06
 ErrMax= 8.45D-06  0.00D+00 EMaxC= 1.00D-01 BMatC= 1.23D-08 BMatP= 4.28D-08
 IDIUse=1 WtCom= 1.00D+00 WtEn= 0.00D+00
 Coeff-Com: -0.274D-05-0.159D-03-0.869D-03-0.159D-02 0.459D-02 0.546D-01
 Coeff-Com:  0.435D+00 0.509D+00
 Coeff:     -0.274D-05-0.159D-03-0.869D-03-0.159D-02 0.459D-02 0.546D-01
 Coeff:      0.435D+00 0.509D+00
 Gap=     0.178 Goal=   None    Shift=    0.000
 RMSDP=2.41D-06 MaxDP=5.83D-05 DE=-3.70D-08 OVMax= 4.60D-05

 Cycle   9  Pass 1  IDiag  1:
 E= -593.014855356666     Delta-E=       -0.000000014333 Rises=F Damp=F
 DIIS: error= 1.16D-06 at cycle   9 NSaved=   9.
 NSaved= 9 IEnMin= 9 EnMin= -593.014855356666     IErMin= 9 ErrMin= 1.16D-06
 ErrMax= 1.16D-06  0.00D+00 EMaxC= 1.00D-01 BMatC= 2.12D-10 BMatP= 1.23D-08
 IDIUse=1 WtCom= 1.00D+00 WtEn= 0.00D+00
 Coeff-Com: -0.471D-05-0.135D-05-0.306D-03-0.492D-03-0.111D-02 0.124D-02
 Coeff-Com:  0.442D-01 0.119D+00 0.837D+00
 Coeff:     -0.471D-05-0.135D-05-0.306D-03-0.492D-03-0.111D-02 0.124D-02
 Coeff:      0.442D-01 0.119D+00 0.837D+00
 Gap=     0.178 Goal=   None    Shift=    0.000
 RMSDP=9.99D-07 MaxDP=2.63D-05 DE=-1.43D-08 OVMax= 8.37D-06

 Cycle  10  Pass 1  IDiag  1:
 E= -593.014855356940     Delta-E=       -0.000000000274 Rises=F Damp=F
 DIIS: error= 4.59D-07 at cycle  10 NSaved=  10.
 NSaved=10 IEnMin=10 EnMin= -593.014855356940     IErMin=10 ErrMin= 4.59D-07
 ErrMax= 4.59D-07  0.00D+00 EMaxC= 1.00D-01 BMatC= 8.50D-12 BMatP= 2.12D-10
 IDIUse=1 WtCom= 1.00D+00 WtEn= 0.00D+00
 Coeff-Com: -0.895D-06 0.367D-05-0.620D-04-0.891D-04-0.537D-03-0.188D-02
 Coeff-Com: -0.375D-02 0.179D-01 0.265D+00 0.723D+00
 Coeff:     -0.895D-06 0.367D-05-0.620D-04-0.891D-04-0.537D-03-0.188D-02
 Coeff:     -0.375D-02 0.179D-01 0.265D+00 0.723D+00
 Gap=     0.178 Goal=   None    Shift=    0.000
 RMSDP=1.04D-07 MaxDP=2.06D-06 DE=-2.74D-10 OVMax= 1.20D-06

 Cycle  11  Pass 1  IDiag  1:
 E= -593.014855356950     Delta-E=       -0.000000000010 Rises=F Damp=F
 DIIS: error= 4.13D-08 at cycle  11 NSaved=  11.
 NSaved=11 IEnMin=11 EnMin= -593.014855356950     IErMin=11 ErrMin= 4.13D-08
 ErrMax= 4.13D-08  0.00D+00 EMaxC= 1.00D-01 BMatC= 1.60D-13 BMatP= 8.50D-12
 IDIUse=1 WtCom= 1.00D+00 WtEn= 0.00D+00
 Coeff-Com: -0.366D-06 0.896D-06 0.618D-07-0.224D-05-0.334D-04-0.323D-03
 Coeff-Com: -0.172D-02-0.199D-02 0.782D-03 0.781D-01 0.925D+00
 Coeff:     -0.366D-06 0.896D-06 0.618D-07-0.224D-05-0.334D-04-0.323D-03
 Coeff:     -0.172D-02-0.199D-02 0.782D-03 0.781D-01 0.925D+00
 Gap=     0.178 Goal=   None    Shift=    0.000
 RMSDP=3.26D-08 MaxDP=9.22D-07 DE=-9.78D-12 OVMax= 2.29D-07

 Cycle  12  Pass 1  IDiag  1:
 E= -593.014855356952     Delta-E=       -0.000000000002 Rises=F Damp=F
 DIIS: error= 8.91D-09 at cycle  12 NSaved=  12.
 NSaved=12 IEnMin=12 EnMin= -593.014855356952     IErMin=12 ErrMin= 8.91D-09
 ErrMax= 8.91D-09  0.00D+00 EMaxC= 1.00D-01 BMatC= 3.87D-15 BMatP= 1.60D-13
 IDIUse=1 WtCom= 1.00D+00 WtEn= 0.00D+00
 Coeff-Com: -0.640D-07 0.776D-07 0.649D-06 0.100D-05 0.462D-05 0.153D-04
 Coeff-Com:  0.342D-04-0.434D-03-0.323D-02-0.394D-02 0.456D-01 0.962D+00
 Coeff:     -0.640D-07 0.776D-07 0.649D-06 0.100D-05 0.462D-05 0.153D-04
 Coeff:      0.342D-04-0.434D-03-0.323D-02-0.394D-02 0.456D-01 0.962D+00
 Gap=     0.178 Goal=   None    Shift=    0.000
 RMSDP=3.27D-09 MaxDP=8.55D-08 DE=-2.27D-12 OVMax= 2.55D-08

 SCF Done:  E(RB3LYP) =  -593.014855357     A.U. after   12 cycles
            NFock= 12  Conv=0.33D-08     -V/T= 2.0050
 KE= 5.900781843295D+02 PE=-1.625989425729D+03 EE= 3.350522566443D+02
 Leave Link  502 at Sun Oct 13 09:49:40 2024, MaxMem=  2684354560 cpu:              37.3 elap:               1.7
 (Enter /usr/local/g16_AVX//g16/l801.exe)
 DoSCS=F DFT=T ScalE2(SS,OS)=  1.000000  1.000000
 Range of M.O.s used for correlation:     1    98
 NBasis=    98 NAE=    20 NBE=    20 NFC=     0 NFV=     0
 NROrb=     98 NOA=    20 NOB=    20 NVA=    78 NVB=    78

 **** Warning!!: The largest alpha MO coefficient is  0.80472487D+02

 Leave Link  801 at Sun Oct 13 09:49:40 2024, MaxMem=  2684354560 cpu:               0.7 elap:               0.1
 (Enter /usr/local/g16_AVX//g16/l1101.exe)
 Using compressed storage, NAtomX=     7.
 Will process      8 centers per pass.
 Leave Link 1101 at Sun Oct 13 09:49:40 2024, MaxMem=  2684354560 cpu:               3.6 elap:               0.2
 (Enter /usr/local/g16_AVX//g16/l1102.exe)
 Symmetrizing basis deriv contribution to polar:
 IMax=3 JMax=2 DiffMx= 0.00D+00
 Leave Link 1102 at Sun Oct 13 09:49:40 2024, MaxMem=  2684354560 cpu:               0.7 elap:               0.1
 (Enter /usr/local/g16_AVX//g16/l1110.exe)
 Forming Gx(P) for the SCF density, NAtomX=     7.
 Integral derivatives from FoFJK, PRISM(SPDF).
 Do as many integral derivatives as possible in FoFJK.
 G2DrvN: MDV=    2684353878.
 G2DrvN: will do     8 centers at a time, making    1 passes.
 Calling FoFCou, ICntrl=  3107 FMM=F I1Cent=   0 AccDes= 0.00D+00.
 FoFJK:  IHMeth= 1 ICntrl=    3107 DoSepK=F KAlg= 0 I1Cent=           0 FoldK=F
 IRaf=         0 NMat=       1 IRICut=       1 DoRegI=T DoRafI=F ISym2E= 0 IDoP0=0 IntGTp=1.
 FoFCou: FMM=F IPFlag=           0 FMFlag=      100000 FMFlg1=           0
         NFxFlg=           0 DoJE=F BraDBF=F KetDBF=F FulRan=T
         wScrn=  0.000000 ICntrl=      3107 IOpCl=  0 I1Cent=           0 NGrid=           0
         NMat0=    1 NMatS0=      1 NMatT0=    0 NMatD0=    1 NMtDS0=    0 NMtDT0=    0
 Symmetry not used in FoFCou.
 End of G2Drv F.D. properties file   721 does not exist.
 End of G2Drv F.D. properties file   722 does not exist.
 End of G2Drv F.D. properties file   788 does not exist.
 Leave Link 1110 at Sun Oct 13 09:49:42 2024, MaxMem=  2684354560 cpu:              39.7 elap:               1.6
 (Enter /usr/local/g16_AVX//g16/l1002.exe)
 Minotr:  Closed shell wavefunction.
          IDoAtm=1111111
          Direct CPHF calculation.
          Differentiating once with respect to electric field.
                with respect to dipole field.
          Differentiating once with respect to nuclear coordinates.
          Requested convergence is 1.0D-08 RMS, and 1.0D-07 maximum.
          Secondary convergence is 1.0D-12 RMS, and 1.0D-12 maximum.
          NewPWx=T KeepS1=F KeepF1=F KeepIn=T MapXYZ=F SortEE=F KeepMc=T.
         2129 words used for storage of precomputed grid.
 Keep R1 ints in memory in canonical form, NReq=35668376.
 FoFCou: FMM=F IPFlag=           0 FMFlag=           0 FMFlg1=           0
         NFxFlg=           0 DoJE=F BraDBF=F KetDBF=F FulRan=T
         wScrn=  0.000000 ICntrl=       600 IOpCl=  0 I1Cent=           0 NGrid=           0
         NMat0=    1 NMatS0=   4851 NMatT0=    0 NMatD0=    1 NMtDS0=    0 NMtDT0=    0
 Symmetry not used in FoFCou.
 Two-electron integral symmetry not used.
          MDV=    2684354560 using IRadAn=       1.
          Solving linear equations simultaneously, MaxMat=       0.
          There are    24 degrees of freedom in the 1st order CPHF.  IDoFFX=6 NUNeed=     3.
     21 vectors produced by pass  0 Test12= 6.50D-15 4.17D-09 XBig12= 1.06D+02 6.72D+00.
 AX will form    21 AO Fock derivatives at one time.
     21 vectors produced by pass  1 Test12= 6.50D-15 4.17D-09 XBig12= 4.98D+01 2.85D+00.
     21 vectors produced by pass  2 Test12= 6.50D-15 4.17D-09 XBig12= 3.30D+00 5.31D-01.
     21 vectors produced by pass  3 Test12= 6.50D-15 4.17D-09 XBig12= 2.72D-02 3.32D-02.
     21 vectors produced by pass  4 Test12= 6.50D-15 4.17D-09 XBig12= 7.78D-05 2.32D-03.
     20 vectors produced by pass  5 Test12= 6.50D-15 4.17D-09 XBig12= 1.26D-07 7.56D-05.
      5 vectors produced by pass  6 Test12= 6.50D-15 4.17D-09 XBig12= 1.88D-10 3.74D-06.
      1 vectors produced by pass  7 Test12= 6.50D-15 4.17D-09 XBig12= 2.62D-13 1.58D-07.
      1 vectors produced by pass  8 Test12= 6.50D-15 4.17D-09 XBig12= 4.11D-16 6.32D-09.
 InvSVY:  IOpt=1 It=  1 EMax= 5.39D-15
 Solved reduced A of dimension   132 with    24 vectors.
 FullF1:  Do perturbations      1 to       3.
 Isotropic polarizability for W=    0.000000       62.08 Bohr**3.
 End of Minotr F.D. properties file   721 does not exist.
 End of Minotr F.D. properties file   722 does not exist.
 End of Minotr F.D. properties file   788 does not exist.
 Leave Link 1002 at Sun Oct 13 09:49:44 2024, MaxMem=  2684354560 cpu:              60.5 elap:               2.4
 (Enter /usr/local/g16_AVX//g16/l601.exe)
 Copying SCF densities to generalized density rwf, IOpCl= 0 IROHF=0.

 **********************************************************************

            Population analysis using the SCF Density.

 **********************************************************************

 Alpha  occ. eigenvalues -- -101.27278 -14.20358 -10.10909 -10.09413  -9.18734
 Alpha  occ. eigenvalues --   -6.94549  -6.94477  -6.94477  -0.75617  -0.58689
 Alpha  occ. eigenvalues --   -0.52452  -0.31146  -0.30524  -0.30522  -0.22109
 Alpha  occ. eigenvalues --   -0.19658  -0.19658  -0.07200  -0.07200  -0.07057
 Alpha virt. eigenvalues --    0.10782   0.14685   0.14685   0.14786   0.16450
 Alpha virt. eigenvalues --    0.16450   0.17210   0.20502   0.21339   0.21339
 Alpha virt. eigenvalues --    0.23663   0.23936   0.23937   0.25873   0.25874
 Alpha virt. eigenvalues --    0.25976   0.31141   0.34129   0.34129   0.34797
 Alpha virt. eigenvalues --    0.34798   0.35280   0.39069   0.43154   0.47225
 Alpha virt. eigenvalues --    0.73513   0.78998   0.78998   0.82332   0.82334
 Alpha virt. eigenvalues --    0.82924   0.85818   0.85819   0.88884   0.97016
 Alpha virt. eigenvalues --    0.99037   1.04892   1.04893   1.12266   1.12266
 Alpha virt. eigenvalues --    1.13061   1.13496   1.13496   1.16170   1.16173
 Alpha virt. eigenvalues --    1.24529   1.25165   1.38089   1.51549   1.54943
 Alpha virt. eigenvalues --    1.54944   1.67251   1.67251   1.75725   1.75725
 Alpha virt. eigenvalues --    1.83217   2.08300   2.09227   2.09228   2.13467
 Alpha virt. eigenvalues --    2.18018   2.18019   2.52142   2.52145   2.70774
 Alpha virt. eigenvalues --    2.77667   2.77670   2.89569   2.94997   2.95001
 Alpha virt. eigenvalues --    3.19357   3.45408   3.56156   3.56159   4.19114
 Alpha virt. eigenvalues --    4.38558   4.56330   4.63270
          Condensed to atoms (all electrons):
               1          2          3          4          5          6
     1  C    5.458314  -0.131239   0.430717   0.430670   0.430670  -0.427867
     2  Cl  -0.131239  17.946168  -0.032326  -0.032352  -0.032352   0.087642
     3  H    0.430717  -0.032326   0.483620  -0.019735  -0.019736  -0.056675
     4  H    0.430670  -0.032352  -0.019735   0.483578  -0.019726  -0.056570
     5  H    0.430670  -0.032352  -0.019736  -0.019726   0.483575  -0.056568
     6  C   -0.427867   0.087642  -0.056675  -0.056570  -0.056568   6.051638
     7  N   -0.071039   0.001300  -0.004306  -0.004317  -0.004317   0.641869
               7
     1  C   -0.071039
     2  Cl   0.001300
     3  H   -0.004306
     4  H   -0.004317
     5  H   -0.004317
     6  C    0.641869
     7  N    6.985623
 Mulliken charges:
               1
     1  C   -0.120225
     2  Cl  -0.806840
     3  H    0.218442
     4  H    0.218452
     5  H    0.218453
     6  C   -0.183468
     7  N   -0.544813
 Sum of Mulliken charges =  -1.00000
 Mulliken charges with hydrogens summed into heavy atoms:
               1
     1  C    0.535122
     2  Cl  -0.806840
     6  C   -0.183468
     7  N   -0.544813
 APT charges:
               1
     1  C    0.874536
     2  Cl  -1.050466
     3  H    0.021712
     4  H    0.021727
     5  H    0.021730
     6  C   -0.362807
     7  N   -0.526432
 Sum of APT charges =  -1.00000
 APT charges with hydrogens summed into heavy atoms:
               1
     1  C    0.939704
     2  Cl  -1.050466
     6  C   -0.362807
     7  N   -0.526432
 Electronic spatial extent (au):  <R**2>=            829.2438
 Charge=             -1.0000 electrons
 Dipole moment (field-independent basis, Debye):
    X=              2.6709    Y=              0.0000    Z=             -0.0010  Tot=              2.6709
 Quadrupole moment (field-independent basis, Debye-Ang):
   XX=            -85.4467   YY=            -35.4199   ZZ=            -35.4203
   XY=              0.0000   XZ=             -0.0001   YZ=              0.0000
 Traceless Quadrupole moment (field-independent basis, Debye-Ang):
   XX=            -33.3511   YY=             16.6757   ZZ=             16.6754
   XY=              0.0000   XZ=             -0.0001   YZ=              0.0000
 Octapole moment (field-independent basis, Debye-Ang**2):
  XXX=            -43.7038  YYY=             -0.0069  ZZZ=             -0.9947  XYY=              0.7914
  XXY=              0.0002  XXZ=             -0.0067  XZZ=              0.7914  YZZ=              0.0069
  YYZ=              0.9945  XYZ=              0.0000
 Hexadecapole moment (field-independent basis, Debye-Ang**3):
 XXXX=          -1649.7109 YYYY=            -56.8518 ZZZZ=            -56.8513 XXXY=              0.0005
 XXXZ=             -0.0024 YYYX=             -0.0004 YYYZ=              0.0000 ZZZX=             -0.0391
 ZZZY=             -0.0000 XXYY=           -210.1586 XXZZ=           -210.1586 YYZZ=            -18.9512
 XXYZ=             -0.0000 YYXZ=              0.0550 ZZXY=              0.0003
 N-N= 1.078441293978D+02 E-N=-1.625989425421D+03  KE= 5.900781843295D+02
  Exact polarizability: 105.625  -0.000  40.313   0.001   0.000  40.314
 Approx polarizability: 128.658  -0.000  49.888   0.005   0.000  49.887
 No NMR shielding tensors so no spin-rotation constants.
 Leave Link  601 at Sun Oct 13 09:49:44 2024, MaxMem=  2684354560 cpu:               2.7 elap:               0.1
 (Enter /usr/local/g16_AVX//g16/l701.exe)
 ... and contract with generalized density number  0.
 Compute integral second derivatives.
 Leave Link  701 at Sun Oct 13 09:49:44 2024, MaxMem=  2684354560 cpu:               4.6 elap:               0.2
 (Enter /usr/local/g16_AVX//g16/l702.exe)
 L702 exits ... SP integral derivatives will be done elsewhere.
 Leave Link  702 at Sun Oct 13 09:49:45 2024, MaxMem=  2684354560 cpu:               0.5 elap:               0.0
 (Enter /usr/local/g16_AVX//g16/l703.exe)
 Integral derivatives from FoFJK, PRISM(SPDF).
 Compute integral second derivatives, UseDBF=F ICtDFT=           0.
 Calling FoFJK, ICntrl=    100127 FMM=F ISym2X=0 I1Cent= 0 IOpClX= 0 NMat=1 NMatS=1 NMatT=0.
 FoFJK:  IHMeth= 1 ICntrl=  100127 DoSepK=F KAlg= 0 I1Cent=           0 FoldK=F
 IRaf=         0 NMat=       1 IRICut=       1 DoRegI=T DoRafI=F ISym2E= 0 IDoP0=0 IntGTp=1.
 FoFCou: FMM=F IPFlag=           0 FMFlag=      100000 FMFlg1=         800
         NFxFlg=           0 DoJE=F BraDBF=F KetDBF=F FulRan=T
         wScrn=  0.000000 ICntrl=    100127 IOpCl=  0 I1Cent=           0 NGrid=           0
         NMat0=    1 NMatS0=      1 NMatT0=    0 NMatD0=    1 NMtDS0=    0 NMtDT0=    0
 Symmetry not used in FoFCou.
 Leave Link  703 at Sun Oct 13 09:49:47 2024, MaxMem=  2684354560 cpu:              68.2 elap:               2.7
 (Enter /usr/local/g16_AVX//g16/l716.exe)
 Dipole        = 1.05079933D+00 9.87846043D-06-4.02057694D-04
 Polarizability= 1.05625339D+02-2.55265888D-05 4.03134655D+01
                 9.78885722D-04 5.63380240D-06 4.03138165D+01
 Full mass-weighted force constant matrix:
 Low frequencies --- -395.5675  -45.4460  -45.3665   -0.0036   -0.0029    0.0042
 Low frequencies ---  151.2867  178.3532  178.3770
 ******    1 imaginary frequencies (negative Signs) ****** 
 Diagonal vibrational polarizability:
      117.5052863      20.5150695      20.5251848
 Harmonic frequencies (cm**-1), IR intensities (KM/Mole), Raman scattering
 activities (A**4/AMU), depolarization ratios for plane and unpolarized
 incident light, reduced masses (AMU), force constants (mDyne/A),
 and normal coordinates:
                      1                      2                      3
                      A                      A                      A
 Frequencies --   -395.5675               165.6294               165.6687
 Red. masses --     10.9857                 5.1677                 5.1684
 Frc consts  --      1.0128                 0.0835                 0.0836
 IR Inten    --    604.6468                20.7685                20.7679
  Atom  AN      X      Y      Z        X      Y      Z        X      Y      Z
     1   6     0.81   0.00  -0.00     0.00   0.02   0.44     0.00   0.44  -0.02
     2  17    -0.04  -0.00   0.00    -0.00  -0.01  -0.12    -0.00  -0.12   0.01
     3   1     0.16  -0.00   0.11    -0.10   0.02   0.47     0.00   0.46  -0.02
     4   1     0.16  -0.09  -0.05     0.05   0.02   0.47     0.08   0.47  -0.02
     5   1     0.16   0.09  -0.05     0.04   0.02   0.47    -0.09   0.47  -0.02
     6   6    -0.34  -0.00   0.00    -0.00   0.01   0.15     0.00   0.15  -0.01
     7   7    -0.34   0.00  -0.00     0.00  -0.01  -0.32    -0.00  -0.32   0.01
                      4                      5                      6
                      A                      A                      A
 Frequencies --    236.4452               412.2093               412.2323
 Red. masses --     16.1147                 4.3540                 4.3539
 Frc consts  --      0.5308                 0.4359                 0.4359
 IR Inten    --     27.0064                 0.3912                 0.3917
  Atom  AN      X      Y      Z        X      Y      Z        X      Y      Z
     1   6    -0.34   0.00   0.00    -0.00   0.00  -0.21     0.00  -0.21  -0.00
     2  17     0.49  -0.00  -0.00     0.00  -0.00   0.03    -0.00   0.03   0.00
     3   1    -0.24   0.00  -0.01     0.50   0.00  -0.33     0.00  -0.33  -0.00
     4   1    -0.24   0.01   0.01    -0.25   0.00  -0.33    -0.44  -0.33  -0.00
     5   1    -0.24  -0.01   0.01    -0.25   0.00  -0.33     0.44  -0.33  -0.00
     6   6    -0.47   0.00  -0.00    -0.00  -0.00   0.46     0.00   0.46   0.00
     7   7    -0.48  -0.00  -0.00     0.00   0.00  -0.21    -0.00  -0.21  -0.00
                      7                      8                      9
                      A                      A                      A
 Frequencies --   1001.5313              1001.5402              1164.3230
 Red. masses --      1.1842                 1.1842                 1.0631
 Frc consts  --      0.6999                 0.6999                 0.8491
 IR Inten    --      0.0003                 0.0003                25.1309
  Atom  AN      X      Y      Z        X      Y      Z        X      Y      Z
     1   6     0.00   0.07  -0.06     0.00  -0.06  -0.07    -0.05   0.00  -0.00
     2  17    -0.00   0.00  -0.00    -0.00  -0.00  -0.00    -0.01   0.00   0.00
     3   1    -0.50  -0.14   0.04    -0.61   0.12   0.05     0.56   0.00  -0.12
     4   1    -0.28  -0.11   0.14     0.73   0.02   0.09     0.56   0.10   0.06
     5   1     0.77  -0.04   0.06    -0.13   0.10   0.15     0.56  -0.10   0.06
     6   6    -0.00  -0.06   0.05    -0.00   0.05   0.06    -0.02  -0.00   0.00
     7   7     0.00   0.01  -0.01     0.00  -0.01  -0.01    -0.04   0.00  -0.00
                     10                     11                     12
                      A                      A                      A
 Frequencies --   1426.0345              1426.0465              2149.7631
 Red. masses --      1.0739                 1.0739                12.5057
 Frc consts  --      1.2867                 1.2867                34.0516
 IR Inten    --      6.5259                 6.5273                 1.7094
  Atom  AN      X      Y      Z        X      Y      Z        X      Y      Z
     1   6    -0.00   0.01  -0.08    -0.00  -0.08  -0.01     0.01   0.00  -0.00
     2  17     0.00  -0.00   0.00     0.00   0.00   0.00    -0.00  -0.00   0.00
     3   1     0.24  -0.06  -0.11     0.02   0.77  -0.01    -0.09  -0.00   0.04
     4   1    -0.10  -0.39   0.58    -0.22   0.08  -0.34    -0.09  -0.03  -0.02
     5   1    -0.14   0.37   0.52     0.20   0.14   0.42    -0.09   0.03  -0.02
     6   6     0.00   0.00  -0.01     0.00  -0.01  -0.00     0.75  -0.00   0.00
     7   7    -0.00  -0.00   0.00    -0.00   0.00   0.00    -0.63   0.00  -0.00
                     13                     14                     15
                      A                      A                      A
 Frequencies --   3157.0560              3320.1982              3320.2795
 Red. masses --      1.0149                 1.1183                 1.1183
 Frc consts  --      5.9598                 7.2632                 7.2636
 IR Inten    --      2.2607                 1.4144                 1.4176
  Atom  AN      X      Y      Z        X      Y      Z        X      Y      Z
     1   6    -0.03   0.00  -0.00     0.00   0.00  -0.10    -0.00  -0.10  -0.00
     2  17    -0.00  -0.00  -0.00     0.00  -0.00   0.00     0.00   0.00   0.00
     3   1     0.11  -0.00   0.57     0.17  -0.00   0.79     0.00  -0.02   0.02
     4   1     0.11  -0.49  -0.28    -0.08   0.34   0.18    -0.14   0.60   0.36
     5   1     0.11   0.49  -0.28    -0.09  -0.36   0.19     0.14   0.59  -0.35
     6   6    -0.00   0.00   0.00     0.00  -0.00   0.00     0.00   0.00   0.00
     7   7     0.00  -0.00  -0.00    -0.00   0.00  -0.00    -0.00  -0.00  -0.00

 -------------------
 - Thermochemistry -
 -------------------
 Temperature   298.150 Kelvin.  Pressure   1.00000 Atm.
 Atom     1 has atomic number  6 and mass  12.00000
 Atom     2 has atomic number 17 and mass  34.96885
 Atom     3 has atomic number  1 and mass   1.00783
 Atom     4 has atomic number  1 and mass   1.00783
 Atom     5 has atomic number  1 and mass   1.00783
 Atom     6 has atomic number  6 and mass  12.00000
 Atom     7 has atomic number  7 and mass  14.00307
 Molecular mass:    75.99540 amu.
 Principal axes and moments of inertia in atomic units:
                           1         2         3
     Eigenvalues --    12.074361425.597401425.59788
           X            1.00000   0.00000   0.00002
           Y           -0.00000   0.99817  -0.06055
           Z           -0.00002   0.06055   0.99817
 This molecule is an asymmetric top.
 Rotational symmetry number  1.
 Rotational temperatures (Kelvin)      7.17338     0.06076     0.06076
 Rotational constants (GHZ):         149.46892     1.26595     1.26595
    1 imaginary frequencies ignored.
 Zero-point vibrational energy     115792.3 (Joules/Mol)
                                   27.67502 (Kcal/Mol)
 Warning -- explicit consideration of   5 degrees of freedom as
           vibrations may cause significant error
 Vibrational temperatures:    238.30   238.36   340.19   593.08   593.11
          (Kelvin)           1440.98  1440.99  1675.20  2051.75  2051.76
                             3093.03  4542.30  4777.02  4777.14
 
 Zero-point correction=                           0.044103 (Hartree/Particle)
 Thermal correction to Energy=                    0.049376
 Thermal correction to Enthalpy=                  0.050320
 Thermal correction to Gibbs Free Energy=         0.015867
 Sum of electronic and zero-point Energies=           -592.970752
 Sum of electronic and thermal Energies=              -592.965479
 Sum of electronic and thermal Enthalpies=            -592.964535
 Sum of electronic and thermal Free Energies=         -592.998988
 
                     E (Thermal)             CV                S
                      KCal/Mol        Cal/Mol-Kelvin    Cal/Mol-Kelvin
 Total                   30.984             15.584             72.512
 Electronic               0.000              0.000              0.000
 Translational            0.889              2.981             38.900
 Rotational               0.889              2.981             24.710
 Vibrational             29.206              9.623              8.902
 Vibration     1          0.624              1.885              2.485
 Vibration     2          0.624              1.885              2.484
 Vibration     3          0.655              1.785              1.829
 Vibration     4          0.776              1.444              0.919
 Vibration     5          0.776              1.444              0.919
                       Q            Log10(Q)             Ln(Q)
 Total Bot       0.502939D-07         -7.298485        -16.805383
 Total V=0       0.971506D+13         12.987446         29.904699
 Vib (Bot)       0.344434D-19        -19.462894        -44.814971
 Vib (Bot)    1  0.121844D+01          0.085805          0.197573
 Vib (Bot)    2  0.121814D+01          0.085696          0.197323
 Vib (Bot)    3  0.830620D+00         -0.080597         -0.185582
 Vib (Bot)    4  0.428494D+00         -0.368056         -0.847480
 Vib (Bot)    5  0.428462D+00         -0.368087         -0.847553
 Vib (V=0)       0.665329D+01          0.823036          1.895111
 Vib (V=0)    1  0.181704D+01          0.259365          0.597210
 Vib (V=0)    2  0.181676D+01          0.259298          0.597055
 Vib (V=0)    3  0.146950D+01          0.167170          0.384922
 Vib (V=0)    4  0.115849D+01          0.063892          0.147116
 Vib (V=0)    5  0.115847D+01          0.063884          0.147098
 Electronic      0.100000D+01          0.000000          0.000000
 Translational   0.260396D+08          7.415635         17.075130
 Rotational      0.560757D+05          4.748775         10.934458
 
                                                      RxCoord=-2.49942 DE=34.27
                                                             IR Spectrum
 
      3     3                                     2                           1         1     1                                      
      3     1                                     1                           4         1     0                      4     2  1      
      2     5                                     5                           2         6     0                      1     3  6      
      0     7                                     0                           6         4     2                      2     6  6      
 
      X     X                                     X                           X         X                            X     X  X      
                                                                              X         X                                  X  X      
                                                                              X         X                                  X  X      
                                                                              X         X                                  X  X      
                                                                              X         X                                  X  X      
                                                                              X         X                                  X  X      
                                                                                        X                                  X  X      
                                                                                        X                                  X  X      
                                                                                        X                                  X  X      
                                                                                        X                                  X  X      
                                                                                        X                                  X  X      
                                                                                        X                                  X  X      
                                                                                                                           X  X      
                                                                                                                              X      
                                                                                                                              X      
                                                                                                                              X      
                                                                                                                              X      
                                                                                                                              X      
                                                                                                                              X      
                                                                                                                              X      
 
 -------------------------------------------------------------------
 Center     Atomic                   Forces (Hartrees/Bohr)
 Number     Number              X              Y              Z
 -------------------------------------------------------------------
      1        6           0.065456605   -0.000000468   -0.000014493
      2       17          -0.018528504   -0.000000001    0.000004051
      3        1           0.000086806   -0.000003431    0.001737722
      4        1           0.000084064   -0.001503708   -0.000867559
      5        1           0.000085183    0.001507901   -0.000859895
      6        6          -0.020478499   -0.000000641    0.000012712
      7        7          -0.026705656    0.000000348   -0.000012537
 -------------------------------------------------------------------
 Cartesian Forces:  Max     0.065456605 RMS     0.016575229
 Z-matrix is all fixed cartesians, so copy forces.
 Force constants in Cartesian coordinates: 
                1             2             3             4             5 
      1  0.458840D-02
      2  0.327056D-05  0.656744D+00
      3  0.117180D-04  0.230259D-05  0.656683D+00
      4  0.987950D-02  0.000000D+00  0.000000D+00  0.434711D-01
      5  0.000000D+00 -0.377191D-02  0.000000D+00  0.000000D+00 -0.750056D-03
      6 -0.420614D-05  0.000000D+00 -0.377050D-02  0.000000D+00  0.000000D+00
      7 -0.304662D-01  0.148341D-03 -0.638309D-01 -0.100102D-01 -0.556646D-05
      8  0.141830D-03 -0.489721D-01  0.705702D-03  0.280018D-05 -0.568143D-03
      9 -0.611206D-01  0.705843D-03 -0.353040D+00 -0.129130D-02 -0.489831D-05
     10 -0.304572D-01  0.552083D-01  0.320410D-01 -0.100170D-01 -0.198152D-02
     11  0.528628D-01 -0.276438D+00 -0.132028D+00  0.111504D-02  0.107792D-02
     12  0.306808D-01 -0.132028D+00 -0.125599D+00  0.647832D-03  0.960322D-03
     13 -0.304584D-01 -0.553599D-01  0.317864D-01 -0.100176D-01  0.198724D-02
     14 -0.530083D-01 -0.277661D+00  0.131320D+00 -0.111736D-02  0.108614D-02
     15  0.304370D-01  0.131320D+00 -0.124374D+00  0.642719D-03 -0.955116D-03
     16  0.515440D-01  0.000000D+00  0.000000D+00 -0.171197D-01  0.000000D+00
     17  0.000000D+00 -0.616329D-01  0.000000D+00  0.000000D+00  0.365766D-02
     18 -0.197919D-04  0.000000D+00 -0.616324D-01  0.562275D-05  0.000000D+00
     19  0.253699D-01  0.000000D+00 -0.837178D-05 -0.618617D-02  0.000000D+00
     20  0.000000D+00  0.117322D-01  0.000000D+00  0.000000D+00 -0.731612D-03
     21  0.150904D-04  0.000000D+00  0.117325D-01 -0.390408D-05  0.000000D+00
                6             7             8             9            10 
      6 -0.756582D-03
      7  0.229092D-02  0.551883D-01
      8 -0.488530D-05 -0.152620D-03  0.448791D-01
      9  0.163188D-02  0.658446D-01 -0.738541D-03  0.362811D+00
     10 -0.114994D-02  0.268468D-02 -0.639063D-02 -0.287357D-02  0.551893D-01
     11  0.960309D-03 -0.739102D-03  0.303958D-02  0.334727D-02 -0.569492D-01
     12 -0.108116D-04  0.696862D-02 -0.236506D-01 -0.880959D-02 -0.330535D-01
     13 -0.114057D-02  0.268501D-02  0.640382D-02 -0.284405D-02  0.268519D-02
     14 -0.955119D-03  0.706495D-03  0.294470D-02 -0.329240D-02 -0.566612D-02
     15 -0.197242D-04  0.697216D-02  0.237054D-01 -0.871535D-02 -0.412340D-02
     16  0.296123D-05 -0.178527D-01 -0.132649D-05  0.606091D-03 -0.178584D-01
     17  0.000000D+00  0.485883D-04 -0.186670D-02 -0.228825D-04  0.180719D-01
     18  0.365729D-02 -0.208952D-01 -0.227574D-04  0.799825D-02  0.104915D-01
     19  0.000000D+00 -0.222892D-02 -0.386836D-05  0.167889D-02 -0.222655D-02
     20  0.000000D+00 -0.613598D-05  0.543562D-03  0.560435D-05 -0.229278D-02
     21 -0.731555D-03  0.264980D-02  0.559972D-05 -0.187653D-02 -0.133218D-02
               11            12            13            14            15 
     11  0.282711D+00
     12  0.138042D+00  0.124997D+00
     13  0.568510D-02 -0.409692D-02  0.551904D-01
     14 -0.146360D-01  0.134440D-01  0.571049D-01  0.283991D+00
     15 -0.135533D-01  0.886936D-02 -0.327906D-01 -0.137302D+00  0.123716D+00
     16 -0.523263D-03 -0.304316D-03 -0.178582D-01  0.525049D-03 -0.302006D-03
     17  0.551216D-02  0.428290D-02 -0.181201D-01  0.555221D-02 -0.426007D-02
     18  0.428314D-02  0.620388D-03  0.104072D-01 -0.426045D-02  0.580593D-03
     19 -0.145138D-02 -0.842618D-03 -0.222636D-02  0.145532D-02 -0.835851D-03
     20 -0.126693D-02 -0.105083D-02  0.229892D-02 -0.127674D-02  0.104522D-02
     21 -0.105141D-02 -0.669645D-04 -0.132146D-02  0.104581D-02 -0.572021D-04
               16            17            18            19            20 
     16  0.114462D+01
     17 -0.850425D-05  0.783411D-01
     18  0.327233D-03  0.000000D+00  0.783394D-01
     19 -0.112547D+01  0.791600D-05 -0.316641D-03  0.111297D+01
     20  0.832245D-05 -0.295636D-01  0.000000D+00 -0.811359D-05  0.205631D-01
     21 -0.330963D-03  0.000000D+00 -0.295634D-01  0.323610D-03  0.000000D+00
               21 
     21  0.205631D-01
 Leave Link  716 at Sun Oct 13 09:49:47 2024, MaxMem=  2684354560 cpu:               1.0 elap:               0.1
 (Enter /usr/local/g16_AVX//g16/l103.exe)

 GradGradGradGradGradGradGradGradGradGradGradGradGradGradGradGradGradGrad
 Berny optimization.
 Search for a local minimum.
 Step number   1 out of a maximum of    2
 All quantities printed in internal units (Hartrees-Bohrs-Radians)
 Second derivative matrix not updated -- analytic derivatives used.
 ITU=  0
     Eigenvalues ---   -0.06866   0.00594   0.00594   0.02751   0.02751
     Eigenvalues ---    0.04624   0.07566   0.09409   0.09409   0.12212
     Eigenvalues ---    0.12212   0.40715   0.95220   0.95228   2.25391
 Eigenvalue     1 is  -6.87D-02 should be greater than     0.000000 Eigenvector:
                          X1        X6        X7        Z3        Y5
   1                    0.81072  -0.37628  -0.37367   0.10373   0.09000
                          Y4        X3        X4        X5        X2
   1                   -0.08975   0.08684   0.08671   0.08671  -0.08143
 Quadratic step=1.089D+00 exceeds max=3.000D-01 adjusted using Lamda=-1.799D-01.
 Angle between NR and scaled steps=   3.79 degrees.
 Angle between quadratic step and forces=   8.18 degrees.
 Linear search not attempted -- first point.
 B after Tr=    -0.009333   -0.000000   -0.000001
         Rot=    1.000000    0.000000   -0.000000    0.000000 Ang=  -0.00 deg.
 Variable       Old X    -DE/DX   Delta X   Delta X   Delta X     New X
                                 (Linear)    (Quad)   (Total)
    X1        0.66945   0.06546   0.00000   0.26480   0.25546   0.92491
    Y1        0.00001  -0.00000   0.00000  -0.00000  -0.00000   0.00001
    Z1       -0.00045  -0.00001   0.00000  -0.00002  -0.00002  -0.00048
    X2       -4.24729  -0.01853   0.00000  -0.06013  -0.06946  -4.31675
    Y2       -0.00000  -0.00000   0.00000   0.00000   0.00000  -0.00000
    Z2        0.00021   0.00000   0.00000   0.00001   0.00001   0.00021
    X3        0.24482   0.00009   0.00000   0.00984   0.00050   0.24533
    Y3        0.00465  -0.00000   0.00000  -0.00005  -0.00005   0.00460
    Z3       -1.99884   0.00174   0.00000   0.02431   0.02431  -1.97453
    X4        0.24488   0.00008   0.00000   0.00983   0.00050   0.24538
    Y4        1.72837  -0.00150   0.00000  -0.02105  -0.02105   1.70733
    Z4        1.00270  -0.00087   0.00000  -0.01220  -0.01220   0.99050
    X5        0.24486   0.00009   0.00000   0.00984   0.00050   0.24536
    Y5       -1.73299   0.00151   0.00000   0.02110   0.02110  -1.71189
    Z5        0.99464  -0.00086   0.00000  -0.01210  -0.01210   0.98255
    X6        4.17361  -0.02048   0.00000  -0.08408  -0.09341   4.08020
    Y6        0.00001  -0.00000   0.00000  -0.00000  -0.00000   0.00000
    Z6       -0.00038   0.00001   0.00000   0.00005   0.00005  -0.00033
    X7        6.40328  -0.02671   0.00000  -0.08476  -0.09410   6.30919
    Y7       -0.00001   0.00000   0.00000   0.00000   0.00000  -0.00001
    Z7        0.00030  -0.00001   0.00000  -0.00004  -0.00004   0.00026
         Item               Value     Threshold  Converged?
 Maximum Force            0.065457     0.000450     NO 
 RMS     Force            0.016575     0.000300     NO 
 Maximum Displacement     0.255464     0.001800     NO 
 RMS     Displacement     0.065262     0.001200     NO 
 Predicted change in Energy=-2.527443D-02
 GradGradGradGradGradGradGradGradGradGradGradGradGradGradGradGradGradGrad

 Leave Link  103 at Sun Oct 13 09:49:47 2024, MaxMem=  2684354560 cpu:               0.6 elap:               0.1
 (Enter /usr/local/g16_AVX//g16/l9999.exe)

 ----------------------------------------------------------------------

 Electric dipole moment (input orientation):
 (Debye = 10**-18 statcoulomb cm , SI units = C m)
                  (au)            (Debye)         (10**-30 SI)
   Tot        0.105080D+01      0.267087D+01      0.890905D+01
   x          0.105080D+01      0.267087D+01      0.890905D+01
   y          0.000000D+00      0.000000D+00      0.000000D+00
   z         -0.402058D-03     -0.102193D-02     -0.340879D-02

 Dipole polarizability, Alpha (input orientation).
 (esu units = cm**3 , SI units = C**2 m**2 J**-1)
 Alpha(0;0):
               (au)            (10**-24 esu)      (10**-40 SI)
   iso        0.620842D+02      0.919993D+01      0.102363D+02
   aniso      0.653117D+02      0.967820D+01      0.107684D+02
   xx         0.105625D+03      0.156521D+02      0.174153D+02
   yx        -0.255266D-04     -0.378265D-05     -0.420877D-05
   yy         0.403135D+02      0.597384D+01      0.664679D+01
   zx         0.978886D-03      0.145056D-03      0.161396D-03
   zy         0.000000D+00      0.000000D+00      0.000000D+00
   zz         0.403138D+02      0.597389D+01      0.664685D+01

 ----------------------------------------------------------------------

 Dipole orientation:
     6          0.00019739          0.00000694          0.66945072
    17          0.00141723          0.00003616         -4.24728585
     1          1.99874316          0.00466899          0.24558829
     1         -1.00280612          1.72836013          0.24451652
     1         -0.99471954         -1.73300011          0.24445871
     6         -0.00122085         -0.00003358          4.17361116
     7         -0.00275049         -0.00007156          6.40328159

 Electric dipole moment (dipole orientation):
 (Debye = 10**-18 statcoulomb cm , SI units = C m)
                  (au)            (Debye)         (10**-30 SI)
   Tot        0.105080D+01      0.267087D+01      0.890905D+01
   x          0.000000D+00      0.000000D+00      0.000000D+00
   y          0.000000D+00      0.000000D+00      0.000000D+00
   z          0.105080D+01      0.267087D+01      0.890905D+01

 Dipole polarizability, Alpha (dipole orientation).
 (esu units = cm**3 , SI units = C**2 m**2 J**-1)
 Alpha(0;0):
               (au)            (10**-24 esu)      (10**-40 SI)
   iso        0.620842D+02      0.919993D+01      0.102363D+02
   aniso      0.653117D+02      0.967820D+01      0.107684D+02
   xx         0.403138D+02      0.597389D+01      0.664685D+01
   yx         0.000000D+00      0.000000D+00      0.000000D+00
   yy         0.403135D+02      0.597384D+01      0.664679D+01
   zx        -0.259684D-01     -0.384812D-02     -0.428161D-02
   zy        -0.639763D-03     -0.948031D-04     -0.105483D-03
   zz         0.105625D+03      0.156521D+02      0.174153D+02

 ----------------------------------------------------------------------
 1\1\GINC-NODO6\Freq\RB3LYP\6-31++G(d,p)\C2H3Cl1N1(1-)\ALANQF\13-Oct-20
 24\0\\#p b3lyp 6-31++g(d,p) scf=verytight NoSymm freq=noraman int=ultr
 afine\\RxCoord=-2.49942 DE=34.27\\-1,1\C,0.354258,0.000007,-0.00024\Cl
 ,-2.247567,-0.000002,0.00011\H,0.129555,0.002462,-1.057739\H,0.129587,
 0.914615,0.530604\H,0.129572,-0.917058,0.526342\C,2.20858,0.000003,-0.
 000199\N,3.388471,-0.000006,0.000159\\Version=ES64L-G16RevB.01\HF=-593
 .0148554\RMSD=3.266e-09\RMSF=1.658e-02\ZeroPoint=0.0441029\Thermal=0.0
 49376\Dipole=1.1126467,0.00001,-0.0004236\DipoleDeriv=2.4315828,0.0000
 009,-0.0001114,-0.0000068,0.0959818,0.0000003,-0.0000632,0.0000002,0.0
 960422,-1.4733521,0.0000002,0.0000304,-0.0000006,-0.8390206,0.,0.00005
 84,0.,-0.8390243,-0.0563637,-0.0000349,0.0151348,-0.0000381,0.0809734,
 0.0000936,0.017224,0.0000945,0.0405255,-0.0563477,-0.0130932,-0.007601
 5,-0.014941,0.0507476,-0.0175411,-0.0086723,-0.0175386,0.0707805,-0.05
 63374,0.0131278,-0.0075394,0.0149873,0.0505846,0.0174475,-0.0086043,0.
 0174443,0.070943,-0.9577473,0.0000009,-0.0000001,-0.0000082,-0.0653344
 ,-0.0000005,0.0003563,-0.0000005,-0.0653392,-0.8314346,-0.0000018,0.00
 00873,0.0000073,-0.3739324,0.0000001,-0.000299,0.0000001,-0.3739276\Po
 lar=105.6253391,-0.0000255,40.3134655,0.0009789,0.0000056,40.3138165\Q
 uadrupole=-24.7957187,12.3979858,12.3977329,0.0000297,-0.0000373,0.000
 0094\PG=C01 [X(C2H3Cl1N1)]\NImag=1\\0.00458840,0.00000327,0.65674371,0
 .00001172,0.00000230,0.65668279,0.00987950,0.,-0.00000082,0.04347114,0
 .00000040,-0.00377191,0.,-0.00000042,-0.00075006,-0.00000421,0.,-0.003
 77050,-0.00000015,-0.00000029,-0.00075658,-0.03046618,0.00014834,-0.06
 383089,-0.01001020,-0.00000557,0.00229092,0.05518831,0.00014183,-0.048
 97209,0.00070570,0.00000280,-0.00056814,-0.00000489,-0.00015262,0.0448
 7909,-0.06112062,0.00070584,-0.35303956,-0.00129130,-0.00000490,0.0016
 3188,0.06584456,-0.00073854,0.36281089,-0.03045719,0.05520832,0.032041
 00,-0.01001699,-0.00198152,-0.00114994,0.00268468,-0.00639063,-0.00287
 357,0.05518927,0.05286279,-0.27643812,-0.13202804,0.00111504,0.0010779
 2,0.00096031,-0.00073910,0.00303958,0.00334727,-0.05694920,0.28271139,
 0.03068085,-0.13202784,-0.12559920,0.00064783,0.00096032,-0.00001081,0
 .00696862,-0.02365056,-0.00880959,-0.03305345,0.13804199,0.12499682,-0
 .03045845,-0.05535992,0.03178638,-0.01001761,0.00198724,-0.00114057,0.
 00268501,0.00640382,-0.00284405,0.00268519,0.00568510,-0.00409692,0.05
 519039,-0.05300830,-0.27766088,0.13132004,-0.00111736,0.00108614,-0.00
 095512,0.00070649,0.00294470,-0.00329240,-0.00566612,-0.01463600,0.013
 44401,0.05710491,0.28399056,0.03043696,0.13131968,-0.12437364,0.000642
 72,-0.00095512,-0.00001972,0.00697216,0.02370544,-0.00871535,-0.004123
 40,-0.01355326,0.00886936,-0.03279058,-0.13730190,0.12371596,0.0515440
 0,-0.00000016,0.00000100,-0.01711967,-0.00000011,0.00000296,-0.0178527
 0,-0.00000133,0.00060609,-0.01785841,-0.00052326,-0.00030432,-0.017858
 17,0.00052505,-0.00030201,1.14461994,0.00000032,-0.06163288,-0.0000000
 2,-0.00000019,0.00365766,-0.00000002,0.00004859,-0.00186670,-0.0000228
 8,0.01807193,0.00551216,0.00428290,-0.01812006,0.00555221,-0.00426007,
 -0.00000850,0.07834110,-0.00001979,0.,-0.06163244,0.00000562,-0.000000
 02,0.00365729,-0.02089517,-0.00002276,0.00799825,0.01049154,0.00428314
 ,0.00062039,0.01040720,-0.00426045,0.00058059,0.00032723,0.00000009,0.
 07833935,0.02536993,0.00000015,-0.00000837,-0.00618617,-0.00000003,0.0
 0000098,-0.00222892,-0.00000387,0.00167889,-0.00222655,-0.00145138,-0.
 00084262,-0.00222636,0.00145532,-0.00083585,-1.12547499,0.00000792,-0.
 00031664,1.11297307,-0.00000032,0.01173215,0.00000001,0.00000011,-0.00
 073161,0.,-0.00000614,0.00054356,0.00000560,-0.00229278,-0.00126693,-0
 .00105083,0.00229892,-0.00127674,0.00104522,0.00000832,-0.02956355,-0.
 00000001,-0.00000811,0.02056312,0.00001509,0.00000002,0.01173255,-0.00
 000390,0.,-0.00073155,0.00264980,0.00000560,-0.00187653,-0.00133218,-0
 .00105141,-0.00006696,-0.00132146,0.00104581,-0.00005720,-0.00033096,-
 0.00000001,-0.02956344,0.00032361,0.,0.02056315\\-0.06545660,0.0000004
 7,0.00001449,0.01852850,0.,-0.00000405,-0.00008681,0.00000343,-0.00173
 772,-0.00008406,0.00150371,0.00086756,-0.00008518,-0.00150790,0.000859
 89,0.02047850,0.00000064,-0.00001271,0.02670566,-0.00000035,0.00001254
 \\\@


 LIFE IS SO UNCERTAIN - EAT DESSERT FIRST.
 Job cpu time:       0 days  0 hours  3 minutes 59.0 seconds.
 Elapsed time:       0 days  0 hours  0 minutes 10.3 seconds.
 File lengths (MBytes):  RWF=     88 Int=      0 D2E=      0 Chk=      2 Scr=      2
 Normal termination of Gaussian 16 at Sun Oct 13 09:49:48 2024.
