RxCoord=-2.39944 DE=35.82                                               
Freq      RB3LYP                                                      6-31++G(d,p)        
Number of atoms                            I                7
Info1-9                                    I   N=           9
          16          16           0           0           0         100
           6          18        -502
Full Title                                 C   N=           3
RxCoord=-2.39944 DE=35.82           
Route                                      C   N=           6
#p b3lyp 6-31++g(d,p) scf=verytight NoSymm freq=noraman int=
ultrafine   
Charge                                     I               -1
Multiplicity                               I                1
Number of electrons                        I               40
Number of alpha electrons                  I               20
Number of beta electrons                   I               20
Number of basis functions                  I               98
Number of independent functions            I               98
Number of point charges in /Mol/           I                0
Number of translation vectors              I                0
Atomic numbers                             I   N=           7
           6          17           1           1           1           6
           7
Nuclear charges                            R   N=           7
  6.00000000E+00  1.70000000E+01  1.00000000E+00  1.00000000E+00  1.00000000E+00
  6.00000000E+00  7.00000000E+00
Current cartesian coordinates              R   N=          21
  6.44149054E-01  1.32280829E-05 -4.53534270E-04 -4.24457243E+00 -3.77945225E-06
  2.07869874E-04  2.39579478E-01  4.66195435E-03 -2.00208546E+00  2.39622942E-01
  1.73119322E+00  1.00431385E+00  2.39594596E-01 -1.73581549E+00  9.96248495E-01
  4.18233997E+00  5.66917837E-06 -3.79834951E-04  6.41184452E+00 -1.13383567E-05
  3.04245906E-04
Number of symbols in /Mol/                 I                0
Force Field                                I                0
Atom Types                                 C   N=           7
                                                            
                        
Int Atom Types                             I   N=           7
           0           0           0           0           0           0
           0
MM charges                                 R   N=           7
  0.00000000E+00  0.00000000E+00  0.00000000E+00  0.00000000E+00  0.00000000E+00
  0.00000000E+00  0.00000000E+00
Integer atomic weights                     I   N=           7
          12          35           1           1           1          12
          14
Real atomic weights                        R   N=           7
  1.20000000E+01  3.49688527E+01  1.00782504E+00  1.00782504E+00  1.00782504E+00
  1.20000000E+01  1.40030740E+01
Atom fragment info                         I   N=           7
           0           0           0           0           0           0
           0
Atom residue num                           I   N=           7
           0           0           0           0           0           0
           0
Nuclear spins                              I   N=           7
           0           3           1           1           1           0
           2
Nuclear ZEff                               R   N=           7
 -3.60000000E+00 -1.42400000E+01 -1.00000000E+00 -1.00000000E+00 -1.00000000E+00
 -3.60000000E+00 -4.55000000E+00
Nuclear ZNuc                               R   N=           7
  6.00000000E+00  1.70000000E+01  1.00000000E+00  1.00000000E+00  1.00000000E+00
  6.00000000E+00  7.00000000E+00
Nuclear QMom                               R   N=           7
  0.00000000E+00 -8.16500000E+00  0.00000000E+00  0.00000000E+00  0.00000000E+00
  0.00000000E+00  2.04400000E+00
Nuclear GFac                               R   N=           7
  0.00000000E+00  8.21874000E-01  2.79284600E+00  2.79284600E+00  2.79284600E+00
  0.00000000E+00  4.03761000E-01
MicOpt                                     I   N=           7
          -1          -1          -1          -1          -1          -1
          -1
Number of residues                         I                0
Number of secondary structures             I                0
Number of contracted shells                I               33
Number of primitive shells                 I               72
Pure/Cartesian d shells                    I                1
Pure/Cartesian f shells                    I                0
Highest angular momentum                   I                2
Largest degree of contraction              I                6
Shell types                                I   N=          33
           0          -1          -1          -1           2           0
          -1          -1          -1          -1           2           0
           0           0           1           0           0           0
           1           0           0           0           1           0
          -1          -1          -1           2           0          -1
          -1          -1           2
Number of primitives per shell             I   N=          33
           6           3           1           1           1           6
           6           3           1           1           1           3
           1           1           1           3           1           1
           1           3           1           1           1           6
           3           1           1           1           6           3
           1           1           1
Shell to atom map                          I   N=          33
           1           1           1           1           1           2
           2           2           2           2           2           3
           3           3           3           4           4           4
           4           5           5           5           5           6
           6           6           6           6           7           7
           7           7           7
Primitive exponents                        R   N=          72
  3.04752488E+03  4.57369518E+02  1.03948685E+02  2.92101553E+01  9.28666296E+00
  3.16392696E+00  7.86827235E+00  1.88128854E+00  5.44249258E-01  1.68714478E-01
  4.38000000E-02  8.00000000E-01  2.51801000E+04  3.78035000E+03  8.60474000E+02
  2.42145000E+02  7.73349000E+01  2.62470000E+01  4.91765000E+02  1.16984000E+02
  3.74153000E+01  1.37834000E+01  5.45215000E+00  2.22588000E+00  3.18649000E+00
  1.14427000E+00  4.20377000E-01  1.42657000E-01  4.83000000E-02  7.50000000E-01
  1.87311370E+01  2.82539436E+00  6.40121692E-01  1.61277759E-01  3.60000000E-02
  1.10000000E+00  1.87311370E+01  2.82539436E+00  6.40121692E-01  1.61277759E-01
  3.60000000E-02  1.10000000E+00  1.87311370E+01  2.82539436E+00  6.40121692E-01
  1.61277759E-01  3.60000000E-02  1.10000000E+00  3.04752488E+03  4.57369518E+02
  1.03948685E+02  2.92101553E+01  9.28666296E+00  3.16392696E+00  7.86827235E+00
  1.88128854E+00  5.44249258E-01  1.68714478E-01  4.38000000E-02  8.00000000E-01
  4.17351146E+03  6.27457911E+02  1.42902093E+02  4.02343293E+01  1.28202129E+01
  4.39043701E+00  1.16263619E+01  2.71627981E+00  7.72218397E-01  2.12031498E-01
  6.39000000E-02  8.00000000E-01
Contraction coefficients                   R   N=          72
  1.83473713E-03  1.40373228E-02  6.88426223E-02  2.32184443E-01  4.67941348E-01
  3.62311985E-01 -1.19332420E-01 -1.60854152E-01  1.14345644E+00  1.00000000E+00
  1.00000000E+00  1.00000000E+00  1.83295985E-03  1.40341988E-02  6.90973943E-02
  2.37451980E-01  4.83033960E-01  3.39855972E-01 -2.29739142E-03 -3.07137189E-02
 -1.12528069E-01  4.50163278E-02  5.89353363E-01  4.65206287E-01 -2.51828028E-01
  6.15892514E-02  1.06018433E+00  1.00000000E+00  1.00000000E+00  1.00000000E+00
  3.34946043E-02  2.34726953E-01  8.13757326E-01  1.00000000E+00  1.00000000E+00
  1.00000000E+00  3.34946043E-02  2.34726953E-01  8.13757326E-01  1.00000000E+00
  1.00000000E+00  1.00000000E+00  3.34946043E-02  2.34726953E-01  8.13757326E-01
  1.00000000E+00  1.00000000E+00  1.00000000E+00  1.83473713E-03  1.40373228E-02
  6.88426223E-02  2.32184443E-01  4.67941348E-01  3.62311985E-01 -1.19332420E-01
 -1.60854152E-01  1.14345644E+00  1.00000000E+00  1.00000000E+00  1.00000000E+00
  1.83477216E-03  1.39946270E-02  6.85865518E-02  2.32240873E-01  4.69069948E-01
  3.60455199E-01 -1.14961182E-01 -1.69117479E-01  1.14585195E+00  1.00000000E+00
  1.00000000E+00  1.00000000E+00
P(S=P) Contraction coefficients            R   N=          72
  0.00000000E+00  0.00000000E+00  0.00000000E+00  0.00000000E+00  0.00000000E+00
  0.00000000E+00  6.89990666E-02  3.16423961E-01  7.44308291E-01  1.00000000E+00
  1.00000000E+00  0.00000000E+00  0.00000000E+00  0.00000000E+00  0.00000000E+00
  0.00000000E+00  0.00000000E+00  0.00000000E+00  3.98940088E-03  3.03177067E-02
  1.29880029E-01  3.27951072E-01  4.53527100E-01  2.52154056E-01 -1.42993147E-02
  3.23572333E-01  7.43507765E-01  1.00000000E+00  1.00000000E+00  0.00000000E+00
  0.00000000E+00  0.00000000E+00  0.00000000E+00  0.00000000E+00  0.00000000E+00
  0.00000000E+00  0.00000000E+00  0.00000000E+00  0.00000000E+00  0.00000000E+00
  0.00000000E+00  0.00000000E+00  0.00000000E+00  0.00000000E+00  0.00000000E+00
  0.00000000E+00  0.00000000E+00  0.00000000E+00  0.00000000E+00  0.00000000E+00
  0.00000000E+00  0.00000000E+00  0.00000000E+00  0.00000000E+00  6.89990666E-02
  3.16423961E-01  7.44308291E-01  1.00000000E+00  1.00000000E+00  0.00000000E+00
  0.00000000E+00  0.00000000E+00  0.00000000E+00  0.00000000E+00  0.00000000E+00
  0.00000000E+00  6.75797439E-02  3.23907296E-01  7.40895140E-01  1.00000000E+00
  1.00000000E+00  0.00000000E+00
Coordinates of each shell                  R   N=          99
  6.44149054E-01  1.32280829E-05 -4.53534270E-04  6.44149054E-01  1.32280829E-05
 -4.53534270E-04  6.44149054E-01  1.32280829E-05 -4.53534270E-04  6.44149054E-01
  1.32280829E-05 -4.53534270E-04  6.44149054E-01  1.32280829E-05 -4.53534270E-04
 -4.24457243E+00 -3.77945225E-06  2.07869874E-04 -4.24457243E+00 -3.77945225E-06
  2.07869874E-04 -4.24457243E+00 -3.77945225E-06  2.07869874E-04 -4.24457243E+00
 -3.77945225E-06  2.07869874E-04 -4.24457243E+00 -3.77945225E-06  2.07869874E-04
 -4.24457243E+00 -3.77945225E-06  2.07869874E-04  2.39579478E-01  4.66195435E-03
 -2.00208546E+00  2.39579478E-01  4.66195435E-03 -2.00208546E+00  2.39579478E-01
  4.66195435E-03 -2.00208546E+00  2.39579478E-01  4.66195435E-03 -2.00208546E+00
  2.39622942E-01  1.73119322E+00  1.00431385E+00  2.39622942E-01  1.73119322E+00
  1.00431385E+00  2.39622942E-01  1.73119322E+00  1.00431385E+00  2.39622942E-01
  1.73119322E+00  1.00431385E+00  2.39594596E-01 -1.73581549E+00  9.96248495E-01
  2.39594596E-01 -1.73581549E+00  9.96248495E-01  2.39594596E-01 -1.73581549E+00
  9.96248495E-01  2.39594596E-01 -1.73581549E+00  9.96248495E-01  4.18233997E+00
  5.66917837E-06 -3.79834951E-04  4.18233997E+00  5.66917837E-06 -3.79834951E-04
  4.18233997E+00  5.66917837E-06 -3.79834951E-04  4.18233997E+00  5.66917837E-06
 -3.79834951E-04  4.18233997E+00  5.66917837E-06 -3.79834951E-04  6.41184452E+00
 -1.13383567E-05  3.04245906E-04  6.41184452E+00 -1.13383567E-05  3.04245906E-04
  6.41184452E+00 -1.13383567E-05  3.04245906E-04  6.41184452E+00 -1.13383567E-05
  3.04245906E-04  6.41184452E+00 -1.13383567E-05  3.04245906E-04
Num ILSW                                   I              100
ILSW                                       I   N=         100
           0           1           0           0           2           0
           0           0           0           0         402          -1
           5           0           0           0           2           0
           0           0           0           0           1           0
           1           1           0           0           0           0
           0           0      100000           0          -1           0
           0           0           0           0           0           0
           0           0           0           1           0           0
           0 -2000000000           1           0           0           0
           0           0           4          52           0           0
           0           0           5           0           0           0
           0           0           0           7           0           1
           0           0           0           0           0           0
           0           0           0           0           0           0
           0           0           0           0           0           0
           0           0           0           0           0           0
           0           0           0           0
Num RLSW                                   I               52
RLSW                                       R   N=          52
  8.00000000E-01  7.20000000E-01  1.00000000E+00  8.10000000E-01  2.00000000E-01
  0.00000000E+00  0.00000000E+00  1.00000000E+00  0.00000000E+00  0.00000000E+00
  0.00000000E+00  0.00000000E+00  1.00000000E+00  0.00000000E+00  0.00000000E+00
  0.00000000E+00  0.00000000E+00  1.00000000E+00  0.00000000E+00  0.00000000E+00
  0.00000000E+00  0.00000000E+00  1.00000000E+00  0.00000000E+00  0.00000000E+00
  0.00000000E+00  0.00000000E+00  1.00000000E+00  0.00000000E+00  0.00000000E+00
  0.00000000E+00  0.00000000E+00  1.00000000E+00  0.00000000E+00  0.00000000E+00
  0.00000000E+00  0.00000000E+00  0.00000000E+00  1.00000000E+00  1.00000000E+00
  0.00000000E+00  1.00000000E+00  0.00000000E+00  0.00000000E+00  0.00000000E+00
  0.00000000E+00  0.00000000E+00  0.00000000E+00  0.00000000E+00  0.00000000E+00
  0.00000000E+00  0.00000000E+00
MxBond                                     I                3
NBond                                      I   N=           7
           3           0           1           1           1           1
           1
IBond                                      I   N=          21
           3           4           5           0           0           0
           1           0           0           1           0           0
           1           0           0           7           0           0
           6           0           0
RBond                                      R   N=          21
  1.00000000E+00  1.00000000E+00  1.00000000E+00  0.00000000E+00  0.00000000E+00
  0.00000000E+00  1.00000000E+00  0.00000000E+00  0.00000000E+00  1.00000000E+00
  0.00000000E+00  0.00000000E+00  1.00000000E+00  0.00000000E+00  0.00000000E+00
  2.00000000E+00  0.00000000E+00  0.00000000E+00  2.00000000E+00  0.00000000E+00
  0.00000000E+00
Virial Ratio                               R      2.004967277415361E+00
SCF Energy                                 R     -5.930127532433776E+02
Total Energy                               R     -5.930127532433776E+02
RMS Force                                  R      1.611434803238919E-02
RMS Density                                R      3.501379851487407E-09
NImag                                      I                1
Job Status                                 I                1
Nuclear derivative order                   I                2
External E-field                           R   N=          35
  0.00000000E+00  0.00000000E+00  0.00000000E+00  0.00000000E+00  0.00000000E+00
  0.00000000E+00  0.00000000E+00  0.00000000E+00  0.00000000E+00  0.00000000E+00
  0.00000000E+00  0.00000000E+00  0.00000000E+00  0.00000000E+00  0.00000000E+00
  0.00000000E+00  0.00000000E+00  0.00000000E+00  0.00000000E+00  0.00000000E+00
  0.00000000E+00  0.00000000E+00  0.00000000E+00  0.00000000E+00  0.00000000E+00
  0.00000000E+00  0.00000000E+00  0.00000000E+00  0.00000000E+00  0.00000000E+00
  0.00000000E+00  0.00000000E+00  0.00000000E+00  0.00000000E+00  0.00000000E+00
IOpCl                                      I                0
IROHF                                      I                0
Alpha Orbital Energies                     R   N=          98
 -1.01274624E+02 -1.42013572E+01 -1.01098821E+01 -1.00912240E+01 -9.18919326E+00
 -6.94742042E+00 -6.94658282E+00 -6.94658277E+00 -7.53930176E-01 -5.86424938E-01
 -5.25696981E-01 -3.08196943E-01 -3.05610190E-01 -3.05596060E-01 -2.18537226E-01
 -1.94775571E-01 -1.94775183E-01 -7.35493416E-02 -7.35489579E-02 -7.22175053E-02
  1.07968133E-01  1.46930681E-01  1.46934600E-01  1.47953185E-01  1.66129955E-01
  1.66132362E-01  1.68806918E-01  2.04614355E-01  2.13919733E-01  2.13921652E-01
  2.36738058E-01  2.39195566E-01  2.39200743E-01  2.58473503E-01  2.58474775E-01
  2.59466515E-01  3.11109588E-01  3.41317671E-01  3.41318231E-01  3.48361493E-01
  3.48370275E-01  3.53247381E-01  3.90607088E-01  4.32550772E-01  4.71354792E-01
  7.36743815E-01  7.90536981E-01  7.90539489E-01  8.21768220E-01  8.21787168E-01
  8.27321470E-01  8.57962409E-01  8.57969942E-01  8.89633079E-01  9.68402791E-01
  9.89319711E-01  1.04976318E+00  1.04976798E+00  1.12284756E+00  1.12285208E+00
  1.13216492E+00  1.13338228E+00  1.13338473E+00  1.16057879E+00  1.16060556E+00
  1.24493239E+00  1.25317200E+00  1.38401390E+00  1.51513909E+00  1.55446471E+00
  1.55447648E+00  1.67484196E+00  1.67484279E+00  1.75405957E+00  1.75406189E+00
  1.82990395E+00  2.08434116E+00  2.09474228E+00  2.09475057E+00  2.13323319E+00
  2.17554125E+00  2.17556465E+00  2.53128876E+00  2.53131616E+00  2.69561711E+00
  2.77667875E+00  2.77670623E+00  2.89147183E+00  2.94469775E+00  2.94475889E+00
  3.19468655E+00  3.45394660E+00  3.56336953E+00  3.56341113E+00  4.18936655E+00
  4.38767175E+00  4.56102156E+00  4.62902551E+00
Alpha MO coefficients                      R   N=        9604
 -4.12575076E-06 -1.29705232E-05  3.15151392E-05  2.16515337E-10 -5.98655172E-09
  2.29512341E-05 -1.95409557E-04 -1.15920157E-09  2.07439755E-08  3.75279566E-04
  4.12900440E-04  7.93726167E-10 -2.06619466E-08 -1.64262368E-05 -8.96822088E-06
 -8.97254280E-06  3.52730434E-10 -1.32385079E-09 -7.74759253E-11  9.95997653E-01
  1.51470837E-02  4.67407529E-06 -1.22382676E-11 -7.83041072E-10 -2.10593947E-02
 -3.80912149E-06  1.37617746E-10 -5.47307954E-10  1.90543391E-03 -3.02129778E-05
 -4.93561441E-10  7.97513446E-09 -1.69309375E-04  4.37216057E-05  7.21735385E-10
 -1.83578991E-08  7.50268898E-03  7.51992789E-03  7.51992777E-03 -9.09463486E-11
  2.72045463E-09 -6.01342688E-12 -1.23686486E-05 -5.72457843E-05  7.78006066E-05
  2.70610315E-05  2.05161074E-08 -8.75573092E-06 -1.23850873E-05 -5.72403505E-05
  7.78395902E-05  2.70612488E-05  7.57047299E-06  4.38933358E-06 -1.23869834E-05
 -5.72401067E-05  7.78422436E-05  2.70612575E-05 -7.59068140E-06  4.35421551E-06
 -2.74432441E-06 -9.81009403E-06  5.12488573E-06 -3.38021456E-11 -9.78658594E-10
 -1.64587636E-04 -3.03493664E-04  1.96023903E-09 -5.62284441E-08 -8.43489649E-04
  1.75226284E-04 -5.97198004E-10 -7.25183162E-10 -1.00926691E-05 -3.39975253E-06
 -3.39972524E-06  1.02260941E-10 -6.84007262E-09  1.54688224E-11 -4.30658951E-06
 -1.91576379E-05 -1.14029202E-06 -5.85101179E-12  2.31485471E-09  2.89050721E-04
 -1.28406192E-04  1.09727153E-09 -5.53022346E-08  2.33114452E-04 -6.00054718E-05
  5.42112567E-10 -1.87466441E-08  2.38315877E-06 -1.01889060E-05 -1.01888559E-05
 -1.32789289E-10  6.90769607E-09 -7.68730039E-13 -1.45380339E-05 -1.28268053E-04
 -2.32161658E-06  5.91262374E-11  5.19524551E-09  4.46380458E-04  2.83549276E-04
  4.55407316E-10 -6.73208416E-08  4.47781167E-03  1.90723083E-03 -9.85209621E-11
 -1.69163150E-07  8.35402772E-05 -3.26731468E-05 -3.26586185E-05 -1.49339777E-10
 -3.01622003E-09  2.78134538E-10 -1.25231304E-08 -1.19152911E-06  1.68920464E-06
  4.99156335E-12 -5.90414011E-10 -3.15508213E-06 -1.21742303E-05 -2.79389833E-11
  3.56965131E-09 -2.04533141E-05  6.21819161E-05  1.37622456E-10 -1.39056820E-08
  5.87306387E-04  1.49999364E-04  5.66668322E-10 -3.01297334E-09  9.48214480E-06
 -5.92927486E-06 -5.92957135E-06  3.39911893E-12 -1.68397123E-09 -2.07938220E-11
  5.33890866E-06 -1.27509477E-04 -1.18053782E-04 -1.39007699E-05 -1.77113236E-08
  7.59522661E-06  5.35205212E-06 -1.27424614E-04 -1.18156390E-04 -1.38915576E-05
 -6.57784536E-06 -3.81205252E-06  5.35311275E-06 -1.27424078E-04 -1.18160148E-04
 -1.38911136E-05  6.59577966E-06 -3.78166060E-06  8.32746057E-05  2.55315839E-04
 -4.27321620E-04  2.89111373E-09 -1.15736513E-07  1.85206949E-04  3.39442077E-04
  3.43976278E-10 -2.72442869E-08 -2.70808164E-03  2.87775792E-03 -1.38157365E-08
  4.42906371E-07 -9.19771678E-04  3.33237835E-06  3.33264788E-06  7.77270683E-09
 -3.10355925E-07  3.09929873E-11  9.92744478E-01  3.44644654E-02 -1.75308791E-03
  1.43105607E-08 -5.65864816E-07  4.32674300E-03  5.82731569E-04 -5.73540996E-09
  2.24113316E-07 -3.16668603E-03 -3.33115611E-04  7.79123923E-10  4.44884005E-09
 -7.55232927E-03 -8.35195098E-03 -8.35195120E-03 -6.87721637E-09  2.76749971E-07
 -5.25044047E-13  9.93159710E-01  4.96476596E-02  5.03293087E-04  2.30320863E-09
 -1.52959847E-07 -1.94171306E-02 -3.17378154E-03  8.94320809E-09  6.13883684E-07
  1.36627018E-02  1.13155898E-02  2.19973365E-08 -7.25239360E-08 -9.36048752E-03
 -8.41754248E-03 -8.41764190E-03  4.06368849E-09  3.69065663E-08  3.49467816E-09
 -6.71098439E-07  5.97742323E-06 -8.51407133E-06  4.02997063E-10 -1.78467715E-09
 -3.32088496E-05  7.09151326E-06 -2.68959567E-09  1.84660267E-08 -1.50950329E-04
  2.78604462E-04  9.82474258E-09 -1.14055011E-07  4.97926618E-03  1.45908284E-03
  1.09694197E-08 -4.49320720E-07  1.12049333E-04  1.94070370E-07  2.05487105E-07
  2.53947467E-09 -4.19727009E-08  5.36176322E-10 -1.30257237E-04  3.10799696E-03
 -3.32871581E-05  2.64053578E-05  4.76298242E-07 -2.04562061E-04 -1.30347822E-04
  3.10750480E-03 -3.34603862E-05  2.64053727E-05  1.76933099E-04  1.02669594E-04
 -1.30349667E-04  3.10752298E-03 -3.34278170E-05  2.64089701E-05 -1.77404388E-04
  1.01844532E-04  9.25239404E-04 -9.80573855E-05 -2.18930804E-05  2.19061704E-09
 -9.54195527E-10 -2.07492572E-03 -7.82893886E-03  2.55606475E-08 -1.24991167E-06
 -2.07965782E-02  6.06011590E-03 -3.88172334E-08 -3.60308259E-08 -2.87265500E-04
 -6.68923526E-05 -6.68890427E-05  3.61106332E-09 -1.15878425E-07 -5.00620668E-10
 -7.58700079E-05 -3.39849700E-04 -1.00977000E-04 -9.29069115E-10  3.48537519E-08
  6.48680402E-03 -2.49391650E-03  3.28309969E-08 -1.32888029E-06  3.84853639E-03
 -1.69834494E-03  2.15297851E-08 -1.64368344E-07  3.66989439E-05 -1.57452544E-04
 -1.57451892E-04 -4.58226574E-09  1.76259731E-07  4.63049434E-11 -1.06164684E-03
 -1.63353028E-04  1.49766533E-05 -7.74907836E-10  4.40042963E-10  2.46222098E-03
  1.41803126E-03 -8.90017807E-09  1.54890112E-08  3.26184598E-02  2.41989006E-02
  9.31047719E-10 -1.01879615E-06 -1.70371470E-04 -5.32464418E-05 -5.32561392E-05
  3.28967206E-10  6.33036053E-09 -8.83820104E-10  1.11677757E-07 -3.09657793E-06
  2.33187064E-05  1.45265607E-10 -6.88820603E-09  3.18736470E-06 -1.52224755E-04
 -8.49722907E-10  4.14809008E-08 -3.20036666E-04  7.07840411E-04  2.59303015E-09
 -1.39170955E-07  1.00897685E-02  3.16921068E-03  2.66816814E-08 -8.37575584E-07
  4.89049663E-05 -3.34270760E-05 -3.34280356E-05  6.88385123E-10 -2.85056955E-08
 -9.89481018E-11 -8.00207223E-05 -5.64649680E-04  5.37866738E-04 -1.23715178E-05
  1.42960087E-08 -6.08642933E-06 -8.00036183E-05 -5.64660173E-04  5.38595869E-04
 -1.23374230E-05  5.27201408E-06  3.06459850E-06 -8.00044837E-05 -5.64669028E-04
  5.38611080E-04 -1.23420004E-05 -5.28790751E-06  3.04120594E-06  9.92865898E-01
  4.95101730E-02  8.06805710E-04 -8.14885089E-09  4.00606875E-07 -1.02195044E-02
  2.96536833E-03 -4.93854248E-09  2.78945690E-08 -4.84821799E-02  1.46854034E-02
 -4.79228154E-08  1.76444912E-07 -8.55904457E-03 -9.63789587E-03 -9.63789643E-03
 -1.01467806E-08  4.01321731E-07  1.14651331E-10 -4.06819229E-04  3.43117199E-04
  1.91882439E-04 -8.84683176E-10  4.61230542E-08 -4.50948726E-03  1.75712969E-03
 -1.96668808E-08  7.57696593E-07  9.84375524E-03 -5.87749537E-03  3.79399459E-08
 -9.52923518E-07  7.98322280E-05  2.85758257E-04  2.85758913E-04  2.90793214E-09
 -1.24944883E-07 -6.53819147E-12  2.17258740E-05 -7.10516516E-06  2.66935578E-04
 -1.00030754E-09 -2.53470080E-08 -1.27283497E-03 -2.89720510E-03  9.64843974E-09
  9.57751089E-08  9.21735935E-03  1.43558572E-02  4.76577287E-09 -1.38546924E-06
  1.74719440E-04  4.82026381E-05  4.82009990E-05 -7.07711971E-10 -1.08610437E-08
  2.19013772E-10 -2.84629238E-01  1.02270821E+00  4.25329407E-04  1.84946098E-09
 -1.39046685E-07  7.54386363E-02  5.15770281E-04  5.57002420E-10 -6.25363812E-08
 -2.26399649E-02 -1.68871842E-03 -2.12297758E-09  1.88137794E-07  1.95740632E-02
  6.60417230E-03  1.36148085E-08 -8.10253449E-07 -1.56069993E-02 -1.55271707E-02
 -1.55271770E-02 -3.66902482E-10  1.29174668E-08 -2.79067068E-12 -4.94071776E-05
 -2.16379921E-04 -2.09454508E-03  2.06926657E-05 -6.18862824E-08  2.62223723E-05
 -4.94522102E-05 -2.15982415E-04 -2.09579566E-03  2.05974763E-05 -2.27112866E-05
 -1.31699672E-05 -4.94538816E-05 -2.15956665E-04 -2.09591954E-03  2.05879117E-05
  2.27738093E-05 -1.30662068E-05 -1.51727981E-05 -1.09335810E-04 -3.08290684E-06
 -2.22902775E-10 -5.23785816E-09 -1.30545843E-03 -3.03753972E-03  1.55307422E-08
 -4.60463545E-07 -1.38373257E-02  4.99529987E-03 -5.47984714E-08  1.43403217E-06
  7.08184235E-05 -8.47096927E-06 -8.47027112E-06  5.42626692E-10 -2.95759763E-08
  1.01703137E-10 -8.53983492E-05 -3.26914871E-04  6.67511003E-06 -4.31772227E-10
  3.68753475E-08  3.72500844E-03 -1.06000514E-03  1.05014048E-08 -5.40728291E-07
 -1.64071434E-03  9.66727228E-06  1.42813283E-08 -3.12314981E-07 -1.43079308E-04
 -1.79956205E-04 -1.79958141E-04 -8.40053987E-10  4.53152747E-08 -4.13272610E-11
 -1.21598832E-05 -3.09492741E-04 -2.24080244E-04 -2.46805600E-09  6.34453432E-08
 -2.35740657E-04 -1.33753590E-03  1.70531783E-08 -2.28069838E-07 -7.22250225E-02
 -5.78492056E-02 -9.26306149E-09  2.15689638E-06  4.21436237E-04 -5.34937103E-05
 -5.34314816E-05 -3.06625878E-09 -5.68346564E-08  9.31295909E-10  1.68098932E-04
 -4.90816270E-04  9.90637899E-01  8.19522986E-06 -2.02817368E-04  4.08222595E-04
  3.05519639E-02  2.48244351E-07 -6.21906529E-06 -9.05175574E-04 -1.39829164E-02
 -1.01898881E-07  2.73454425E-06 -2.24018801E-02 -2.59178677E-03 -2.42867718E-08
  1.04072214E-06  1.44249055E-04  2.32044720E-04  2.32051238E-04 -1.21052022E-09
  4.06147244E-08  9.55917135E-11 -8.43828935E-05  1.04788143E-03 -3.31686070E-03
 -1.29758397E-04 -3.41349129E-07  1.46003197E-04 -8.42022201E-05  1.04818469E-03
 -3.31740285E-03 -1.29940190E-04 -1.26320497E-04 -7.32576542E-05 -8.41831611E-05
  1.04819172E-03 -3.31739356E-03 -1.29954771E-04  1.26661282E-04 -7.26728093E-05
 -9.96732735E-05 -4.02244506E-04 -2.76901705E-05  2.21516534E-09 -1.20837090E-07
  2.55000174E-03 -1.09563980E-03 -8.17026588E-09  4.18201646E-07  1.07303227E-01
 -3.63346396E-02  1.63789041E-07 -1.89831077E-06 -1.65640550E-04 -1.56465357E-04
 -1.56461379E-04 -2.32452283E-10  1.28895286E-08 -9.63014581E-11 -2.31595343E-05
 -1.09382330E-04  1.71003312E-05 -6.66246308E-10 -2.28833674E-08  1.13013427E-03
 -4.27892456E-04  9.63547592E-09 -1.60049758E-07 -7.83472443E-03  7.21344388E-03
 -6.13068089E-08  9.28085827E-07  1.37801538E-05 -4.04151434E-05 -4.04165150E-05
 -9.64987220E-10  4.09105570E-08  3.93769657E-11 -2.13674949E-09 -7.57854903E-09
  3.81141168E-09 -3.36057543E-05  3.83989317E-07  7.24025470E-08 -2.47340998E-08
 -3.37591025E-04  3.87001529E-06  9.62938636E-08 -1.92918734E-08  3.49958089E-04
 -4.00217728E-06 -5.79743921E-09  5.42423262E-07 -5.48395659E-07 -5.73263544E-05
  6.55427628E-07 -3.41386188E-05 -7.17752057E-10  1.99251398E-09 -1.05163370E-05
  9.90742434E-01 -1.13413230E-02 -3.53569933E-09 -3.18337999E-07  2.97033133E-02
 -3.40023130E-04  8.85745765E-09  1.21386751E-07 -1.15780766E-02  1.32539666E-04
 -6.04807246E-08 -6.82728618E-08  5.16085139E-03 -5.90816111E-05 -3.26481899E-09
 -3.25586527E-08  3.30728429E-08  6.72847233E-05 -7.70158304E-07  2.04063545E-06
 -2.09766113E-06  1.53270614E-05 -6.26077820E-05 -1.96596938E-06  2.12802237E-05
  1.56456875E-06 -1.30874349E-04  9.58614761E-04 -3.90434887E-03 -1.22886036E-04
 -7.63769304E-05 -5.69265788E-05  1.32968615E-04 -9.74087544E-04  3.96692637E-03
  1.24866841E-04 -7.82138586E-05  5.68888598E-05  2.90337892E-12  3.40864417E-10
  8.40714152E-10  5.56581362E-05 -6.36752584E-07 -1.27386403E-08 -9.94974271E-09
 -2.17215764E-04  2.48404613E-06  2.97296804E-08 -1.87519432E-08  1.07365436E-03
 -1.22920340E-05 -8.28885739E-10  4.51036468E-08 -4.50916635E-08 -8.09470023E-06
  9.28668873E-08 -2.82759916E-06 -3.87051584E-10 -1.50739265E-09 -3.39964155E-10
 -1.98371673E-05  2.27044406E-07  1.61391327E-08 -4.09133870E-09  1.29073730E-04
 -1.47707795E-06 -3.68638623E-09  1.10559244E-08 -3.69844600E-04  4.23619753E-06
 -7.65789209E-10 -5.75401493E-08  5.62630594E-08 -1.75184736E-05  2.00375021E-07
  3.56630103E-06  1.29569531E-08  3.22301195E-08 -4.35820191E-08 -3.86031744E-07
 -3.36608976E-05 -4.79068305E-07  2.11920985E-07 -3.85286196E-06 -3.37055640E-04
  5.47660229E-06  4.70693206E-06  4.00046504E-06  3.49125759E-04  4.88070412E-08
 -2.95222615E-05  2.95684743E-05 -6.57631489E-07 -5.73783107E-05 -6.27611997E-07
 -9.81801191E-09  4.80744888E-08  2.02732659E-04  1.13413251E-02  9.90742425E-01
  7.73874550E-08  6.09487355E-06  3.40021557E-04  2.97032535E-02 -2.31480293E-07
 -2.29885721E-06 -1.32533759E-04 -1.15779047E-02  2.39526000E-06  1.76473178E-06
  5.90704689E-05  5.16054236E-03  4.70513912E-08  1.78708159E-06 -1.81545845E-06
  7.70412205E-07  6.72946862E-05  3.81624309E-08  1.52436441E-04 -1.11510125E-03
  4.54299344E-03  1.42925440E-04  5.48638156E-07 -1.10117222E-04 -7.80264519E-05
  5.71391633E-04 -2.32532802E-03 -7.32437842E-05 -5.79604212E-05 -1.24823589E-05
 -7.43880410E-05  5.44797454E-04 -2.21698350E-03 -6.98348772E-05  5.58872482E-05
 -1.06493855E-05  1.14530691E-08  4.27067177E-08 -2.07344510E-08  6.37364573E-07
  5.56446987E-05 -2.52983091E-07  1.26152945E-07 -2.48898097E-06 -2.17212250E-04
 -8.78835320E-06  3.62398787E-06  1.22887701E-05  1.07364896E-03  2.13122127E-08