 Entering Gaussian System, Link 0=g16
 Initial command:
 /usr/local/g16_AVX//g16/l1.exe "/scratch/alanqf/0078-54520.ixchel.mda.cinvestav.mx/Gau-10811.inp" -scrdir="/scratch/alanqf/0078-54520.ixchel.mda.cinvestav.mx/"
 Entering Link 1 = /usr/local/g16_AVX//g16/l1.exe PID=     10812.
  
 Copyright (c) 1988-2017, Gaussian, Inc.  All Rights Reserved.
  
 This is part of the Gaussian(R) 16 program.  It is based on
 the Gaussian(R) 09 system (copyright 2009, Gaussian, Inc.),
 the Gaussian(R) 03 system (copyright 2003, Gaussian, Inc.),
 the Gaussian(R) 98 system (copyright 1998, Gaussian, Inc.),
 the Gaussian(R) 94 system (copyright 1995, Gaussian, Inc.),
 the Gaussian 92(TM) system (copyright 1992, Gaussian, Inc.),
 the Gaussian 90(TM) system (copyright 1990, Gaussian, Inc.),
 the Gaussian 88(TM) system (copyright 1988, Gaussian, Inc.),
 the Gaussian 86(TM) system (copyright 1986, Carnegie Mellon
 University), and the Gaussian 82(TM) system (copyright 1983,
 Carnegie Mellon University). Gaussian is a federally registered
 trademark of Gaussian, Inc.
  
 This software contains proprietary and confidential information,
 including trade secrets, belonging to Gaussian, Inc.
  
 This software is provided under written license and may be
 used, copied, transmitted, or stored only in accord with that
 written license.
  
 The following legend is applicable only to US Government
 contracts under FAR:
  
                    RESTRICTED RIGHTS LEGEND
  
 Use, reproduction and disclosure by the US Government is
 subject to restrictions as set forth in subparagraphs (a)
 and (c) of the Commercial Computer Software - Restricted
 Rights clause in FAR 52.227-19.
  
 Gaussian, Inc.
 340 Quinnipiac St., Bldg. 40, Wallingford CT 06492
  
  
 ---------------------------------------------------------------
 Warning -- This program may not be used in any manner that
 competes with the business of Gaussian, Inc. or will provide
 assistance to any competitor of Gaussian, Inc.  The licensee
 of this program is prohibited from giving any competitor of
 Gaussian, Inc. access to this program.  By using this program,
 the user acknowledges that Gaussian, Inc. is engaged in the
 business of creating and licensing software in the field of
 computational chemistry and represents and warrants to the
 licensee that it is not a competitor of Gaussian, Inc. and that
 it will not use this program in any manner prohibited above.
 ---------------------------------------------------------------
  

 Cite this work as:
 Gaussian 16, Revision B.01,
 M. J. Frisch, G. W. Trucks, H. B. Schlegel, G. E. Scuseria, 
 M. A. Robb, J. R. Cheeseman, G. Scalmani, V. Barone, 
 G. A. Petersson, H. Nakatsuji, X. Li, M. Caricato, A. V. Marenich, 
 J. Bloino, B. G. Janesko, R. Gomperts, B. Mennucci, H. P. Hratchian, 
 J. V. Ortiz, A. F. Izmaylov, J. L. Sonnenberg, D. Williams-Young, 
 F. Ding, F. Lipparini, F. Egidi, J. Goings, B. Peng, A. Petrone, 
 T. Henderson, D. Ranasinghe, V. G. Zakrzewski, J. Gao, N. Rega, 
 G. Zheng, W. Liang, M. Hada, M. Ehara, K. Toyota, R. Fukuda, 
 J. Hasegawa, M. Ishida, T. Nakajima, Y. Honda, O. Kitao, H. Nakai, 
 T. Vreven, K. Throssell, J. A. Montgomery, Jr., J. E. Peralta, 
 F. Ogliaro, M. J. Bearpark, J. J. Heyd, E. N. Brothers, K. N. Kudin, 
 V. N. Staroverov, T. A. Keith, R. Kobayashi, J. Normand, 
 K. Raghavachari, A. P. Rendell, J. C. Burant, S. S. Iyengar, 
 J. Tomasi, M. Cossi, J. M. Millam, M. Klene, C. Adamo, R. Cammi, 
 J. W. Ochterski, R. L. Martin, K. Morokuma, O. Farkas, 
 J. B. Foresman, and D. J. Fox, Gaussian, Inc., Wallingford CT, 2016.
 
 ******************************************
 Gaussian 16:  ES64L-G16RevB.01 20-Dec-2017
                13-Oct-2024 
 ******************************************
 %NProcShared=26
 Will use up to   26 processors via shared memory.
 %MEM=20GB
 %chk=CHKfiles/0078.chk
 ---------------------------------------------------------------------
 #p b3lyp 6-31++g(d,p) scf=verytight NoSymm freq=noraman int=ultrafine
 ---------------------------------------------------------------------
 1/10=4,30=1,38=1/1,3;
 2/12=2,15=1,17=6,18=5,40=1/2;
 3/5=1,6=6,7=1111,11=2,25=1,30=1,71=2,74=-5,75=-5,140=1/1,2,3;
 4//1;
 5/5=2,17=3,38=5,98=1/2;
 8/6=4,10=90,11=11/1;
 11/6=1,8=1,9=11,15=111,16=1,31=1/1,2,10;
 10/6=1,31=1/2;
 6/7=2,8=2,9=2,10=2,28=1/1;
 7/8=1,10=1,25=1,30=1/1,2,3,16;
 1/10=4,30=1/3;
 99//99;
 Leave Link    1 at Sun Oct 13 09:49:46 2024, MaxMem=  2684354560 cpu:               1.3 elap:               0.1
 (Enter /usr/local/g16_AVX//g16/l101.exe)
 -------------------------
 RxCoord=-2.29947 DE=37.33
 -------------------------
 Symbolic Z-matrix:
 Charge = -1 Multiplicity = 1
 C                     0.32744   0.00001  -0.00024 
 Cl                   -2.24467  0.         0.00011 
 H                     0.12423   0.00247  -1.06113 
 H                     0.12424   0.91756   0.53229 
 H                     0.12423  -0.92001   0.52802 
 C                     2.21779   0.       -0.0002 
 N                     3.39748  -0.00001   0.00016 
 
 ITRead=  0  0  0  0  0  0  0
 MicOpt= -1 -1 -1 -1 -1 -1 -1
 NAtoms=      7 NQM=        7 NQMF=       0 NMMI=      0 NMMIF=      0
                NMic=       0 NMicF=      0.
                    Isotopes and Nuclear Properties:
 (Nuclear quadrupole moments (NQMom) in fm**2, nuclear magnetic moments (NMagM)
  in nuclear magnetons)

  Atom         1           2           3           4           5           6           7
 IAtWgt=          12          35           1           1           1          12          14
 AtmWgt=  12.0000000  34.9688527   1.0078250   1.0078250   1.0078250  12.0000000  14.0030740
 NucSpn=           0           3           1           1           1           0           2
 AtZEff=  -0.0000000  -0.0000000  -0.0000000  -0.0000000  -0.0000000  -0.0000000  -0.0000000
 NQMom=    0.0000000  -8.1650000   0.0000000   0.0000000   0.0000000   0.0000000   2.0440000
 NMagM=    0.0000000   0.8218740   2.7928460   2.7928460   2.7928460   0.0000000   0.4037610
 AtZNuc=   6.0000000  17.0000000   1.0000000   1.0000000   1.0000000   6.0000000   7.0000000
 Leave Link  101 at Sun Oct 13 09:49:46 2024, MaxMem=  2684354560 cpu:               2.8 elap:               0.1
 (Enter /usr/local/g16_AVX//g16/l103.exe)

 GradGradGradGradGradGradGradGradGradGradGradGradGradGradGradGradGradGrad
 Berny optimization.
 Initialization pass.
 Trust Radius=3.00D-01 FncErr=1.00D-07 GrdErr=1.00D-07 EigMax=2.50D+02 EigMin=1.00D-04
 Number of steps in this run=      2 maximum allowed number of steps=      2.
 GradGradGradGradGradGradGradGradGradGradGradGradGradGradGradGradGradGrad

 Leave Link  103 at Sun Oct 13 09:49:46 2024, MaxMem=  2684354560 cpu:               0.5 elap:               0.1
 (Enter /usr/local/g16_AVX//g16/l202.exe)
                          Input orientation:                          
 ---------------------------------------------------------------------
 Center     Atomic      Atomic             Coordinates (Angstroms)
 Number     Number       Type             X           Y           Z
 ---------------------------------------------------------------------
      1          6           0        0.327444    0.000007   -0.000240
      2         17           0       -2.244671   -0.000002    0.000110
      3          1           0        0.124225    0.002472   -1.061127
      4          1           0        0.124241    0.917556    0.532292
      5          1           0        0.124226   -0.920007    0.528017
      6          6           0        2.217786    0.000003   -0.000203
      7          7           0        3.397481   -0.000006    0.000163
 ---------------------------------------------------------------------
                    Distance matrix (angstroms):
                    1          2          3          4          5
     1  C    0.000000
     2  Cl   2.572115   0.000000
     3  H    1.080178   2.595746   0.000000
     4  H    1.080175   2.595549   1.837488   0.000000
     5  H    1.080175   2.595528   1.837484   1.837568   0.000000
     6  C    1.890342   4.462457   2.347033   2.346995   2.347004
     7  N    3.070037   5.642152   3.441010   3.440811   3.440818
                    6          7
     6  C    0.000000
     7  N    1.179695   0.000000
 Symmetry turned off by external request.
 This structure is nearly, but not quite of a higher symmetry.
 Consider Symm=Loose if the higher symmetry is desired.
 Stoichiometry    C2H3ClN(1-)
 Framework group  C1[X(C2H3ClN)]
 Deg. of freedom    15
 Full point group                 C1      NOp   1
 Rotational constants (GHZ):         148.5151725           1.2638092           1.2638085
 Leave Link  202 at Sun Oct 13 09:49:46 2024, MaxMem=  2684354560 cpu:               0.2 elap:               0.0
 (Enter /usr/local/g16_AVX//g16/l301.exe)
 Standard basis: 6-31++G(d,p) (6D, 7F)
 Ernie: Thresh=  0.10000D-02 Tol=  0.10000D-05 Strict=F.
    98 basis functions,   176 primitive gaussians,    98 cartesian basis functions
    20 alpha electrons       20 beta electrons
       nuclear repulsion energy       107.7666657415 Hartrees.
 IExCor=  402 DFT=T Ex+Corr=B3LYP ExCW=0 ScaHFX=  0.200000
 ScaDFX=  0.800000  0.720000  1.000000  0.810000 ScalE2=  1.000000  1.000000
 IRadAn=      5 IRanWt=     -1 IRanGd=            0 ICorTp=0 IEmpDi=  4
 NAtoms=    7 NActive=    7 NUniq=    7 SFac= 1.00D+00 NAtFMM=   60 NAOKFM=F Big=F
 Integral buffers will be    131072 words long.
 Raffenetti 2 integral format.
 Two-electron integral symmetry is turned off.
 Leave Link  301 at Sun Oct 13 09:49:47 2024, MaxMem=  2684354560 cpu:               1.3 elap:               0.1
 (Enter /usr/local/g16_AVX//g16/l302.exe)
 NPDir=0 NMtPBC=     1 NCelOv=     1 NCel=       1 NClECP=     1 NCelD=      1
         NCelK=      1 NCelE2=     1 NClLst=     1 CellRange=     0.0.
 One-electron integrals computed using PRISM.
 NBasis=    98 RedAO= T EigKep=  4.54D-05  NBF=    98
 NBsUse=    98 1.00D-06 EigRej= -1.00D+00 NBFU=    98
 Precomputing XC quadrature grid using
 IXCGrd= 4 IRadAn=           5 IRanWt=          -1 IRanGd=           0 AccXCQ= 0.00D+00.
 Generated NRdTot=       0 NPtTot=           0 NUsed=           0 NTot=          32
 NSgBfM=    98    98    98    98    98 MxSgAt=     7 MxSgA2=     7.
 Leave Link  302 at Sun Oct 13 09:49:47 2024, MaxMem=  2684354560 cpu:               3.9 elap:               0.2
 (Enter /usr/local/g16_AVX//g16/l303.exe)
 DipDrv:  MaxL=1.
 Leave Link  303 at Sun Oct 13 09:49:47 2024, MaxMem=  2684354560 cpu:               0.7 elap:               0.1
 (Enter /usr/local/g16_AVX//g16/l401.exe)
 ExpMin= 3.60D-02 ExpMax= 2.52D+04 ExpMxC= 3.78D+03 IAcc=3 IRadAn=         5 AccDes= 0.00D+00
 Harris functional with IExCor=  402 and IRadAn=       5 diagonalized for initial guess.
 HarFok:  IExCor=  402 AccDes= 0.00D+00 IRadAn=         5 IDoV= 1 UseB2=F ITyADJ=14
 ICtDFT=  3500011 ScaDFX=  1.000000  1.000000  1.000000  1.000000
 FoFCou: FMM=F IPFlag=           0 FMFlag=      100000 FMFlg1=           0
         NFxFlg=           0 DoJE=T BraDBF=F KetDBF=T FulRan=T
         wScrn=  0.000000 ICntrl=       500 IOpCl=  0 I1Cent=   200000004 NGrid=           0
         NMat0=    1 NMatS0=      1 NMatT0=    0 NMatD0=    1 NMtDS0=    0 NMtDT0=    0
 Symmetry not used in FoFCou.
 Harris En= -593.050233501792    
 JPrj=0 DoOrth=F DoCkMO=F.
 Leave Link  401 at Sun Oct 13 09:49:47 2024, MaxMem=  2684354560 cpu:               5.9 elap:               0.3
 (Enter /usr/local/g16_AVX//g16/l502.exe)
 Keep R1 ints in memory in canonical form, NReq=35752921.
 FoFCou: FMM=F IPFlag=           0 FMFlag=           0 FMFlg1=           0
         NFxFlg=           0 DoJE=F BraDBF=F KetDBF=F FulRan=T
         wScrn=  0.000000 ICntrl=       600 IOpCl=  0 I1Cent=           0 NGrid=           0
         NMat0=    1 NMatS0=   4851 NMatT0=    0 NMatD0=    1 NMtDS0=    0 NMtDT0=    0
 Symmetry not used in FoFCou.
 Two-electron integral symmetry not used.
 Closed shell SCF:
 Using DIIS extrapolation, IDIIS=  1040.
 NGot=  2684354560 LenX=  2672563419 LenY=  2672553374
 Requested convergence on RMS density matrix=1.00D-08 within 128 cycles.
 Requested convergence on MAX density matrix=1.00D-06.
 Requested convergence on             energy=1.00D-06.
 No special actions if energy rises.

 Cycle   1  Pass 1  IDiag  1:
 E= -592.912486000117    
 DIIS: error= 2.79D-02 at cycle   1 NSaved=   1.
 NSaved= 1 IEnMin= 1 EnMin= -592.912486000117     IErMin= 1 ErrMin= 2.79D-02
 ErrMax= 2.79D-02  0.00D+00 EMaxC= 1.00D-01 BMatC= 9.52D-02 BMatP= 9.52D-02
 IDIUse=3 WtCom= 7.21D-01 WtEn= 2.79D-01
 Coeff-Com:  0.100D+01
 Coeff-En:   0.100D+01
 Coeff:      0.100D+01
 Gap=     0.224 Goal=   None    Shift=    0.000
 GapD=    0.224 DampG=1.000 DampE=0.500 DampFc=0.5000 IDamp=-1.
 Damping current iteration by 5.00D-01
 RMSDP=9.36D-03 MaxDP=1.93D-01              OVMax= 2.09D-01

 Cycle   2  Pass 1  IDiag  1:
 E= -592.934821768639     Delta-E=       -0.022335768522 Rises=F Damp=T
 DIIS: error= 2.02D-02 at cycle   2 NSaved=   2.
 NSaved= 2 IEnMin= 2 EnMin= -592.934821768639     IErMin= 2 ErrMin= 2.02D-02
 ErrMax= 2.02D-02  0.00D+00 EMaxC= 1.00D-01 BMatC= 2.44D-02 BMatP= 9.52D-02
 IDIUse=3 WtCom= 7.98D-01 WtEn= 2.02D-01
 Coeff-Com:  0.266D+00 0.734D+00
 Coeff-En:   0.377D+00 0.623D+00
 Coeff:      0.288D+00 0.712D+00
 Gap=     0.167 Goal=   None    Shift=    0.000
 RMSDP=3.08D-03 MaxDP=5.41D-02 DE=-2.23D-02 OVMax= 1.86D-01

 Cycle   3  Pass 1  IDiag  1:
 E= -592.990916465305     Delta-E=       -0.056094696666 Rises=F Damp=F
 DIIS: error= 1.90D-02 at cycle   3 NSaved=   3.
 NSaved= 3 IEnMin= 3 EnMin= -592.990916465305     IErMin= 3 ErrMin= 1.90D-02
 ErrMax= 1.90D-02  0.00D+00 EMaxC= 1.00D-01 BMatC= 2.01D-02 BMatP= 2.44D-02
 IDIUse=3 WtCom= 8.10D-01 WtEn= 1.90D-01
 Coeff-Com:  0.636D-01 0.461D+00 0.475D+00
 Coeff-En:   0.000D+00 0.000D+00 0.100D+01
 Coeff:      0.515D-01 0.374D+00 0.575D+00
 Gap=     0.188 Goal=   None    Shift=    0.000
 RMSDP=2.84D-03 MaxDP=4.61D-02 DE=-5.61D-02 OVMax= 7.69D-02

 Cycle   4  Pass 1  IDiag  1:
 E= -593.002618652010     Delta-E=       -0.011702186705 Rises=F Damp=F
 DIIS: error= 1.34D-02 at cycle   4 NSaved=   4.
 NSaved= 4 IEnMin= 4 EnMin= -593.002618652010     IErMin= 4 ErrMin= 1.34D-02
 ErrMax= 1.34D-02  0.00D+00 EMaxC= 1.00D-01 BMatC= 8.83D-03 BMatP= 2.01D-02
 IDIUse=3 WtCom= 8.66D-01 WtEn= 1.34D-01
 Coeff-Com:  0.335D-01 0.208D-01 0.376D+00 0.570D+00
 Coeff-En:   0.000D+00 0.000D+00 0.338D+00 0.662D+00
 Coeff:      0.290D-01 0.180D-01 0.371D+00 0.582D+00
 Gap=     0.182 Goal=   None    Shift=    0.000
 RMSDP=1.10D-03 MaxDP=1.71D-02 DE=-1.17D-02 OVMax= 3.16D-02

 Cycle   5  Pass 1  IDiag  1:
 E= -593.010577619125     Delta-E=       -0.007958967115 Rises=F Damp=F
 DIIS: error= 1.17D-03 at cycle   5 NSaved=   5.
 NSaved= 5 IEnMin= 5 EnMin= -593.010577619125     IErMin= 5 ErrMin= 1.17D-03
 ErrMax= 1.17D-03  0.00D+00 EMaxC= 1.00D-01 BMatC= 1.23D-04 BMatP= 8.83D-03
 IDIUse=3 WtCom= 9.88D-01 WtEn= 1.17D-02
 Coeff-Com:  0.116D-01-0.121D-01 0.164D+00 0.302D+00 0.534D+00
 Coeff-En:   0.000D+00 0.000D+00 0.000D+00 0.000D+00 0.100D+01
 Coeff:      0.115D-01-0.120D-01 0.162D+00 0.298D+00 0.540D+00
 Gap=     0.182 Goal=   None    Shift=    0.000
 RMSDP=1.89D-04 MaxDP=2.83D-03 DE=-7.96D-03 OVMax= 4.23D-03

 Cycle   6  Pass 1  IDiag  1:
 E= -593.010709589091     Delta-E=       -0.000131969966 Rises=F Damp=F
 DIIS: error= 1.99D-04 at cycle   6 NSaved=   6.
 NSaved= 6 IEnMin= 6 EnMin= -593.010709589091     IErMin= 6 ErrMin= 1.99D-04
 ErrMax= 1.99D-04  0.00D+00 EMaxC= 1.00D-01 BMatC= 3.52D-06 BMatP= 1.23D-04
 IDIUse=3 WtCom= 9.98D-01 WtEn= 1.99D-03
 Coeff-Com:  0.206D-02-0.435D-02 0.294D-01 0.571D-01 0.202D+00 0.714D+00
 Coeff-En:   0.000D+00 0.000D+00 0.000D+00 0.000D+00 0.000D+00 0.100D+01
 Coeff:      0.206D-02-0.434D-02 0.293D-01 0.570D-01 0.202D+00 0.714D+00
 Gap=     0.182 Goal=   None    Shift=    0.000
 RMSDP=9.16D-05 MaxDP=2.59D-03 DE=-1.32D-04 OVMax= 7.74D-04

 Cycle   7  Pass 1  IDiag  1:
 E= -593.010713921406     Delta-E=       -0.000004332315 Rises=F Damp=F
 DIIS: error= 2.22D-05 at cycle   7 NSaved=   7.
 NSaved= 7 IEnMin= 7 EnMin= -593.010713921406     IErMin= 7 ErrMin= 2.22D-05
 ErrMax= 2.22D-05  0.00D+00 EMaxC= 1.00D-01 BMatC= 4.56D-08 BMatP= 3.52D-06
 IDIUse=1 WtCom= 1.00D+00 WtEn= 0.00D+00
 Coeff-Com:  0.158D-03-0.747D-03 0.131D-02 0.266D-02 0.293D-01 0.171D+00
 Coeff-Com:  0.796D+00
 Coeff:      0.158D-03-0.747D-03 0.131D-02 0.266D-02 0.293D-01 0.171D+00
 Coeff:      0.796D+00
 Gap=     0.182 Goal=   None    Shift=    0.000
 RMSDP=1.02D-05 MaxDP=2.68D-04 DE=-4.33D-06 OVMax= 1.78D-04

 Cycle   8  Pass 1  IDiag  1:
 E= -593.010713964211     Delta-E=       -0.000000042805 Rises=F Damp=F
 DIIS: error= 8.22D-06 at cycle   8 NSaved=   8.
 NSaved= 8 IEnMin= 8 EnMin= -593.010713964211     IErMin= 8 ErrMin= 8.22D-06
 ErrMax= 8.22D-06  0.00D+00 EMaxC= 1.00D-01 BMatC= 1.13D-08 BMatP= 4.56D-08
 IDIUse=1 WtCom= 1.00D+00 WtEn= 0.00D+00
 Coeff-Com:  0.961D-06-0.167D-03-0.871D-03-0.156D-02 0.532D-02 0.592D-01
 Coeff-Com:  0.426D+00 0.512D+00
 Coeff:      0.961D-06-0.167D-03-0.871D-03-0.156D-02 0.532D-02 0.592D-01
 Coeff:      0.426D+00 0.512D+00
 Gap=     0.182 Goal=   None    Shift=    0.000
 RMSDP=2.75D-06 MaxDP=6.92D-05 DE=-4.28D-08 OVMax= 5.11D-05

 Cycle   9  Pass 1  IDiag  1:
 E= -593.010713977488     Delta-E=       -0.000000013277 Rises=F Damp=F
 DIIS: error= 1.34D-06 at cycle   9 NSaved=   9.
 NSaved= 9 IEnMin= 9 EnMin= -593.010713977488     IErMin= 9 ErrMin= 1.34D-06
 ErrMax= 1.34D-06  0.00D+00 EMaxC= 1.00D-01 BMatC= 3.12D-10 BMatP= 1.13D-08
 IDIUse=1 WtCom= 1.00D+00 WtEn= 0.00D+00
 Coeff-Com: -0.622D-05-0.391D-05-0.359D-03-0.581D-03-0.107D-02 0.346D-02
 Coeff-Com:  0.575D-01 0.152D+00 0.789D+00
 Coeff:     -0.622D-05-0.391D-05-0.359D-03-0.581D-03-0.107D-02 0.346D-02
 Coeff:      0.575D-01 0.152D+00 0.789D+00
 Gap=     0.182 Goal=   None    Shift=    0.000
 RMSDP=9.37D-07 MaxDP=2.32D-05 DE=-1.33D-08 OVMax= 1.04D-05

 Cycle  10  Pass 1  IDiag  1:
 E= -593.010713977884     Delta-E=       -0.000000000396 Rises=F Damp=F
 DIIS: error= 4.74D-07 at cycle  10 NSaved=  10.
 NSaved=10 IEnMin=10 EnMin= -593.010713977884     IErMin=10 ErrMin= 4.74D-07
 ErrMax= 4.74D-07  0.00D+00 EMaxC= 1.00D-01 BMatC= 1.12D-11 BMatP= 3.12D-10
 IDIUse=1 WtCom= 1.00D+00 WtEn= 0.00D+00
 Coeff-Com: -0.130D-05 0.471D-05-0.685D-04-0.965D-04-0.614D-03-0.201D-02
 Coeff-Com: -0.398D-02 0.217D-01 0.246D+00 0.739D+00
 Coeff:     -0.130D-05 0.471D-05-0.685D-04-0.965D-04-0.614D-03-0.201D-02
 Coeff:     -0.398D-02 0.217D-01 0.246D+00 0.739D+00
 Gap=     0.182 Goal=   None    Shift=    0.000
 RMSDP=9.90D-08 MaxDP=1.78D-06 DE=-3.96D-10 OVMax= 1.32D-06

 Cycle  11  Pass 1  IDiag  1:
 E= -593.010713977895     Delta-E=       -0.000000000011 Rises=F Damp=F
 DIIS: error= 4.66D-08 at cycle  11 NSaved=  11.
 NSaved=11 IEnMin=11 EnMin= -593.010713977895     IErMin=11 ErrMin= 4.66D-08
 ErrMax= 4.66D-08  0.00D+00 EMaxC= 1.00D-01 BMatC= 1.81D-13 BMatP= 1.12D-11
 IDIUse=1 WtCom= 1.00D+00 WtEn= 0.00D+00
 Coeff-Com: -0.396D-06 0.961D-06 0.884D-07-0.208D-05-0.341D-04-0.348D-03
 Coeff-Com: -0.163D-02-0.229D-02 0.803D-03 0.649D-01 0.939D+00
 Coeff:     -0.396D-06 0.961D-06 0.884D-07-0.208D-05-0.341D-04-0.348D-03
 Coeff:     -0.163D-02-0.229D-02 0.803D-03 0.649D-01 0.939D+00
 Gap=     0.182 Goal=   None    Shift=    0.000
 RMSDP=3.29D-08 MaxDP=9.18D-07 DE=-1.14D-11 OVMax= 2.63D-07

 Cycle  12  Pass 1  IDiag  1:
 E= -593.010713977896     Delta-E=       -0.000000000001 Rises=F Damp=F
 DIIS: error= 1.03D-08 at cycle  12 NSaved=  12.
 NSaved=12 IEnMin=12 EnMin= -593.010713977896     IErMin=12 ErrMin= 1.03D-08
 ErrMax= 1.03D-08  0.00D+00 EMaxC= 1.00D-01 BMatC= 4.82D-15 BMatP= 1.81D-13
 IDIUse=1 WtCom= 1.00D+00 WtEn= 0.00D+00
 Coeff-Com: -0.686D-07 0.862D-07 0.663D-06 0.103D-05 0.441D-05 0.136D-04
 Coeff-Com:  0.305D-04-0.498D-03-0.288D-02-0.542D-02 0.408D-01 0.968D+00
 Coeff:     -0.686D-07 0.862D-07 0.663D-06 0.103D-05 0.441D-05 0.136D-04
 Coeff:      0.305D-04-0.498D-03-0.288D-02-0.542D-02 0.408D-01 0.968D+00
 Gap=     0.182 Goal=   None    Shift=    0.000
 RMSDP=3.72D-09 MaxDP=1.00D-07 DE=-1.02D-12 OVMax= 2.76D-08

 SCF Done:  E(RB3LYP) =  -593.010713978     A.U. after   12 cycles
            NFock= 12  Conv=0.37D-08     -V/T= 2.0050
 KE= 5.900856281327D+02 PE=-1.625836240941D+03 EE= 3.349732330889D+02
 Leave Link  502 at Sun Oct 13 09:49:49 2024, MaxMem=  2684354560 cpu:              36.4 elap:               1.7
 (Enter /usr/local/g16_AVX//g16/l801.exe)
 DoSCS=F DFT=T ScalE2(SS,OS)=  1.000000  1.000000
 Range of M.O.s used for correlation:     1    98
 NBasis=    98 NAE=    20 NBE=    20 NFC=     0 NFV=     0
 NROrb=     98 NOA=    20 NOB=    20 NVA=    78 NVB=    78

 **** Warning!!: The largest alpha MO coefficient is  0.76112873D+02

 Leave Link  801 at Sun Oct 13 09:49:49 2024, MaxMem=  2684354560 cpu:               0.6 elap:               0.0
 (Enter /usr/local/g16_AVX//g16/l1101.exe)
 Using compressed storage, NAtomX=     7.
 Will process      8 centers per pass.
 Leave Link 1101 at Sun Oct 13 09:49:49 2024, MaxMem=  2684354560 cpu:               3.5 elap:               0.2
 (Enter /usr/local/g16_AVX//g16/l1102.exe)
 Symmetrizing basis deriv contribution to polar:
 IMax=3 JMax=2 DiffMx= 0.00D+00
 Leave Link 1102 at Sun Oct 13 09:49:49 2024, MaxMem=  2684354560 cpu:               0.8 elap:               0.1
 (Enter /usr/local/g16_AVX//g16/l1110.exe)
 Forming Gx(P) for the SCF density, NAtomX=     7.
 Integral derivatives from FoFJK, PRISM(SPDF).
 Do as many integral derivatives as possible in FoFJK.
 G2DrvN: MDV=    2684353878.
 G2DrvN: will do     8 centers at a time, making    1 passes.
 Calling FoFCou, ICntrl=  3107 FMM=F I1Cent=   0 AccDes= 0.00D+00.
 FoFJK:  IHMeth= 1 ICntrl=    3107 DoSepK=F KAlg= 0 I1Cent=           0 FoldK=F
 IRaf=         0 NMat=       1 IRICut=       1 DoRegI=T DoRafI=F ISym2E= 0 IDoP0=0 IntGTp=1.
 FoFCou: FMM=F IPFlag=           0 FMFlag=      100000 FMFlg1=           0
         NFxFlg=           0 DoJE=F BraDBF=F KetDBF=F FulRan=T
         wScrn=  0.000000 ICntrl=      3107 IOpCl=  0 I1Cent=           0 NGrid=           0
         NMat0=    1 NMatS0=      1 NMatT0=    0 NMatD0=    1 NMtDS0=    0 NMtDT0=    0
 Symmetry not used in FoFCou.
 End of G2Drv F.D. properties file   721 does not exist.
 End of G2Drv F.D. properties file   722 does not exist.
 End of G2Drv F.D. properties file   788 does not exist.
 Leave Link 1110 at Sun Oct 13 09:49:51 2024, MaxMem=  2684354560 cpu:              39.9 elap:               1.6
 (Enter /usr/local/g16_AVX//g16/l1002.exe)
 Minotr:  Closed shell wavefunction.
          IDoAtm=1111111
          Direct CPHF calculation.
          Differentiating once with respect to electric field.
                with respect to dipole field.
          Differentiating once with respect to nuclear coordinates.
          Requested convergence is 1.0D-08 RMS, and 1.0D-07 maximum.
          Secondary convergence is 1.0D-12 RMS, and 1.0D-12 maximum.
          NewPWx=T KeepS1=F KeepF1=F KeepIn=T MapXYZ=F SortEE=F KeepMc=T.
         2129 words used for storage of precomputed grid.
 Keep R1 ints in memory in canonical form, NReq=35668376.
 FoFCou: FMM=F IPFlag=           0 FMFlag=           0 FMFlg1=           0
         NFxFlg=           0 DoJE=F BraDBF=F KetDBF=F FulRan=T
         wScrn=  0.000000 ICntrl=       600 IOpCl=  0 I1Cent=           0 NGrid=           0
         NMat0=    1 NMatS0=   4851 NMatT0=    0 NMatD0=    1 NMtDS0=    0 NMtDT0=    0
 Symmetry not used in FoFCou.
 Two-electron integral symmetry not used.
          MDV=    2684354560 using IRadAn=       1.
          Solving linear equations simultaneously, MaxMat=       0.
          There are    24 degrees of freedom in the 1st order CPHF.  IDoFFX=6 NUNeed=     3.
     21 vectors produced by pass  0 Test12= 6.50D-15 4.17D-09 XBig12= 1.13D+02 6.91D+00.
 AX will form    21 AO Fock derivatives at one time.
     21 vectors produced by pass  1 Test12= 6.50D-15 4.17D-09 XBig12= 4.87D+01 2.75D+00.
     21 vectors produced by pass  2 Test12= 6.50D-15 4.17D-09 XBig12= 3.44D+00 5.45D-01.
     21 vectors produced by pass  3 Test12= 6.50D-15 4.17D-09 XBig12= 2.80D-02 3.09D-02.
     21 vectors produced by pass  4 Test12= 6.50D-15 4.17D-09 XBig12= 8.80D-05 2.32D-03.
     19 vectors produced by pass  5 Test12= 6.50D-15 4.17D-09 XBig12= 1.48D-07 8.24D-05.
      6 vectors produced by pass  6 Test12= 6.50D-15 4.17D-09 XBig12= 2.08D-10 3.78D-06.
      1 vectors produced by pass  7 Test12= 6.50D-15 4.17D-09 XBig12= 2.83D-13 1.47D-07.
      1 vectors produced by pass  8 Test12= 6.50D-15 4.17D-09 XBig12= 4.56D-16 6.75D-09.
 InvSVY:  IOpt=1 It=  1 EMax= 4.94D-15
 Solved reduced A of dimension   132 with    24 vectors.
 FullF1:  Do perturbations      1 to       3.
 Isotropic polarizability for W=    0.000000       63.17 Bohr**3.
 End of Minotr F.D. properties file   721 does not exist.
 End of Minotr F.D. properties file   722 does not exist.
 End of Minotr F.D. properties file   788 does not exist.
 Leave Link 1002 at Sun Oct 13 09:49:53 2024, MaxMem=  2684354560 cpu:              58.4 elap:               2.3
 (Enter /usr/local/g16_AVX//g16/l601.exe)
 Copying SCF densities to generalized density rwf, IOpCl= 0 IROHF=0.

 **********************************************************************

            Population analysis using the SCF Density.

 **********************************************************************

 Alpha  occ. eigenvalues -- -101.27657 -14.19904 -10.11063 -10.08821  -9.19114
 Alpha  occ. eigenvalues --   -6.94945  -6.94849  -6.94849  -0.75163  -0.58610
 Alpha  occ. eigenvalues --   -0.52690  -0.30600  -0.30599  -0.30491  -0.21592
 Alpha  occ. eigenvalues --   -0.19288  -0.19288  -0.07517  -0.07517  -0.07394
 Alpha virt. eigenvalues --    0.10811   0.14702   0.14702   0.14799   0.16572
 Alpha virt. eigenvalues --    0.16780   0.16780   0.20417   0.21450   0.21450
 Alpha virt. eigenvalues --    0.23696   0.23901   0.23902   0.25821   0.25821
 Alpha virt. eigenvalues --    0.25918   0.31082   0.34133   0.34134   0.34882
 Alpha virt. eigenvalues --    0.34883   0.35374   0.39052   0.43355   0.47049
 Alpha virt. eigenvalues --    0.73830   0.79116   0.79117   0.82017   0.82019
 Alpha virt. eigenvalues --    0.82542   0.85775   0.85776   0.89049   0.96645
 Alpha virt. eigenvalues --    0.98849   1.05058   1.05058   1.12304   1.12304
 Alpha virt. eigenvalues --    1.13174   1.13174   1.13354   1.15944   1.15947
 Alpha virt. eigenvalues --    1.24463   1.25477   1.38719   1.51479   1.55942
 Alpha virt. eigenvalues --    1.55943   1.67724   1.67724   1.75109   1.75109
 Alpha virt. eigenvalues --    1.82783   2.08678   2.09728   2.09729   2.13184
 Alpha virt. eigenvalues --    2.17093   2.17096   2.54131   2.54135   2.68330
 Alpha virt. eigenvalues --    2.77685   2.77688   2.88742   2.93928   2.93935
 Alpha virt. eigenvalues --    3.19618   3.45390   3.56532   3.56537   4.18767
 Alpha virt. eigenvalues --    4.39002   4.55875   4.62592
          Condensed to atoms (all electrons):
               1          2          3          4          5          6
     1  C    5.429355  -0.127767   0.431193   0.431159   0.431160  -0.383145
     2  Cl  -0.127767  17.935693  -0.034205  -0.034232  -0.034232   0.085139
     3  H    0.431193  -0.034205   0.484316  -0.019439  -0.019440  -0.056732
     4  H    0.431159  -0.034232  -0.019439   0.484273  -0.019428  -0.056640
     5  H    0.431160  -0.034232  -0.019440  -0.019428   0.484270  -0.056637
     6  C   -0.383145   0.085139  -0.056732  -0.056640  -0.056637   5.989061
     7  N   -0.066631   0.001090  -0.004146  -0.004156  -0.004156   0.650616
               7
     1  C   -0.066631
     2  Cl   0.001090
     3  H   -0.004146
     4  H   -0.004156
     5  H   -0.004156
     6  C    0.650616
     7  N    6.974289
 Mulliken charges:
               1
     1  C   -0.145324
     2  Cl  -0.791486
     3  H    0.218453
     4  H    0.218462
     5  H    0.218463
     6  C   -0.171662
     7  N   -0.546907
 Sum of Mulliken charges =  -1.00000
 Mulliken charges with hydrogens summed into heavy atoms:
               1
     1  C    0.510055
     2  Cl  -0.791486
     6  C   -0.171662
     7  N   -0.546907
 APT charges:
               1
     1  C    0.950031
     2  Cl  -1.058525
     3  H    0.014900
     4  H    0.014919
     5  H    0.014922
     6  C   -0.399101
     7  N   -0.537147
 Sum of APT charges =  -1.00000
 APT charges with hydrogens summed into heavy atoms:
               1
     1  C    0.994773
     2  Cl  -1.058525
     6  C   -0.399101
     7  N   -0.537147
 Electronic spatial extent (au):  <R**2>=            830.6691
 Charge=             -1.0000 electrons
 Dipole moment (field-independent basis, Debye):
    X=              2.2457    Y=              0.0000    Z=             -0.0010  Tot=              2.2457
 Quadrupole moment (field-independent basis, Debye-Ang):
   XX=            -85.6902   YY=            -35.3942   ZZ=            -35.3947
   XY=              0.0000   XZ=             -0.0001   YZ=              0.0000
 Traceless Quadrupole moment (field-independent basis, Debye-Ang):
   XX=            -33.5305   YY=             16.7655   ZZ=             16.7650
   XY=              0.0000   XZ=             -0.0001   YZ=              0.0000
 Octapole moment (field-independent basis, Debye-Ang**2):
  XXX=            -48.4058  YYY=             -0.0070  ZZZ=             -1.0126  XYY=              0.3667
  XXY=              0.0002  XXZ=             -0.0067  XZZ=              0.3667  YZZ=              0.0071
  YYZ=              1.0125  XYZ=              0.0000
 Hexadecapole moment (field-independent basis, Debye-Ang**3):
 XXXX=          -1656.4763 YYYY=            -56.6755 ZZZZ=            -56.6749 XXXY=              0.0006
 XXXZ=             -0.0037 YYYX=             -0.0004 YYYZ=              0.0000 ZZZX=             -0.0406
 ZZZY=             -0.0000 XXYY=           -210.5888 XXZZ=           -210.5887 YYZZ=            -18.8925
 XXYZ=              0.0000 YYXZ=              0.0562 ZZXY=              0.0004
 N-N= 1.077666657415D+02 E-N=-1.625836240617D+03  KE= 5.900856281327D+02
  Exact polarizability: 109.248  -0.000  40.133   0.001   0.000  40.133
 Approx polarizability: 133.760  -0.000  49.725   0.004   0.000  49.724
 No NMR shielding tensors so no spin-rotation constants.
 Leave Link  601 at Sun Oct 13 09:49:53 2024, MaxMem=  2684354560 cpu:               2.7 elap:               0.1
 (Enter /usr/local/g16_AVX//g16/l701.exe)
 ... and contract with generalized density number  0.
 Compute integral second derivatives.
 Leave Link  701 at Sun Oct 13 09:49:54 2024, MaxMem=  2684354560 cpu:               4.6 elap:               0.2
 (Enter /usr/local/g16_AVX//g16/l702.exe)
 L702 exits ... SP integral derivatives will be done elsewhere.
 Leave Link  702 at Sun Oct 13 09:49:54 2024, MaxMem=  2684354560 cpu:               0.7 elap:               0.1
 (Enter /usr/local/g16_AVX//g16/l703.exe)
 Integral derivatives from FoFJK, PRISM(SPDF).
 Compute integral second derivatives, UseDBF=F ICtDFT=           0.
 Calling FoFJK, ICntrl=    100127 FMM=F ISym2X=0 I1Cent= 0 IOpClX= 0 NMat=1 NMatS=1 NMatT=0.
 FoFJK:  IHMeth= 1 ICntrl=  100127 DoSepK=F KAlg= 0 I1Cent=           0 FoldK=F
 IRaf=         0 NMat=       1 IRICut=       1 DoRegI=T DoRafI=F ISym2E= 0 IDoP0=0 IntGTp=1.
 FoFCou: FMM=F IPFlag=           0 FMFlag=      100000 FMFlg1=         800
         NFxFlg=           0 DoJE=F BraDBF=F KetDBF=F FulRan=T
         wScrn=  0.000000 ICntrl=    100127 IOpCl=  0 I1Cent=           0 NGrid=           0
         NMat0=    1 NMatS0=      1 NMatT0=    0 NMatD0=    1 NMtDS0=    0 NMtDT0=    0
 Symmetry not used in FoFCou.
 Leave Link  703 at Sun Oct 13 09:49:56 2024, MaxMem=  2684354560 cpu:              68.4 elap:               2.7
 (Enter /usr/local/g16_AVX//g16/l716.exe)
 Dipole        = 8.83526461D-01 1.01388467D-05-3.99401476D-04
 Polarizability= 1.09248138D+02-1.95169755D-05 4.01328612D+01
                 7.67571414D-04 9.49219018D-07 4.01330553D+01
 Full mass-weighted force constant matrix:
 Low frequencies --- -430.0183  -42.5190  -42.4573    0.0028    0.0044    0.0054
 Low frequencies ---  148.3921  174.8952  174.9138
 ******    1 imaginary frequencies (negative Signs) ****** 
 Diagonal vibrational polarizability:
      117.4513529      20.6809469      20.6886692
 Harmonic frequencies (cm**-1), IR intensities (KM/Mole), Raman scattering
 activities (A**4/AMU), depolarization ratios for plane and unpolarized
 incident light, reduced masses (AMU), force constants (mDyne/A),
 and normal coordinates:
                      1                      2                      3
                      A                      A                      A
 Frequencies --   -430.0183               163.3309               163.3603
 Red. masses --     11.2708                 5.3269                 5.3275
 Frc consts  --      1.2280                 0.0837                 0.0838
 IR Inten    --    715.8875                20.3094                20.3089
  Atom  AN      X      Y      Z        X      Y      Z        X      Y      Z
     1   6     0.83   0.00  -0.00     0.00   0.03   0.45     0.00   0.45  -0.03
     2  17    -0.05  -0.00   0.00    -0.00  -0.01  -0.12    -0.00  -0.12   0.01
     3   1     0.14  -0.00   0.10    -0.07   0.03   0.46     0.00   0.46  -0.03
     4   1     0.14  -0.09  -0.05     0.04   0.03   0.46     0.06   0.46  -0.03
     5   1     0.14   0.09  -0.05     0.03   0.03   0.46    -0.07   0.46  -0.03
     6   6    -0.34  -0.00   0.00    -0.00   0.01   0.16     0.00   0.16  -0.01
     7   7    -0.33   0.00  -0.00     0.00  -0.02  -0.32    -0.00  -0.32   0.02
                      4                      5                      6
                      A                      A                      A
 Frequencies --    236.5655               402.3481               402.3732
 Red. masses --     16.5623                 4.5433                 4.5433
 Frc consts  --      0.5461                 0.4333                 0.4334
 IR Inten    --     26.0330                 0.6939                 0.6946
  Atom  AN      X      Y      Z        X      Y      Z        X      Y      Z
     1   6    -0.33   0.00   0.00    -0.00  -0.00  -0.22     0.00  -0.22   0.00
     2  17     0.50  -0.00  -0.00     0.00   0.00   0.03    -0.00   0.03  -0.00
     3   1    -0.23   0.00  -0.01     0.48  -0.01  -0.33    -0.01  -0.34   0.01
     4   1    -0.23   0.01   0.01    -0.25  -0.00  -0.34    -0.41  -0.33   0.01
     5   1    -0.23  -0.01   0.01    -0.23  -0.01  -0.34     0.42  -0.33   0.00
     6   6    -0.49   0.00  -0.00    -0.00   0.01   0.47     0.00   0.47  -0.01
     7   7    -0.50  -0.00   0.00     0.00  -0.00  -0.21    -0.00  -0.21   0.00
                      7                      8                      9
                      A                      A                      A
 Frequencies --    999.1533               999.1602              1145.2808
 Red. masses --      1.1571                 1.1570                 1.0599
 Frc consts  --      0.6806                 0.6806                 0.8191
 IR Inten    --      0.0025                 0.0025                35.4281
  Atom  AN      X      Y      Z        X      Y      Z        X      Y      Z
     1   6    -0.00  -0.04   0.08     0.00  -0.08  -0.04    -0.05   0.00  -0.00
     2  17     0.00  -0.00   0.00    -0.00  -0.00  -0.00    -0.01   0.00   0.00
     3   1     0.72   0.07  -0.06    -0.33   0.15   0.03     0.57   0.00  -0.11
     4   1    -0.07   0.08  -0.15     0.79   0.06   0.02     0.57   0.09   0.05
     5   1    -0.65  -0.00  -0.11    -0.45   0.10   0.10     0.57  -0.09   0.05
     6   6     0.00   0.03  -0.07    -0.00   0.07   0.03    -0.02  -0.00   0.00
     7   7    -0.00  -0.01   0.01     0.00  -0.01  -0.01    -0.04   0.00  -0.00
                     10                     11                     12
                      A                      A                      A
 Frequencies --   1422.8208              1422.8363              2150.8949
 Red. masses --      1.0782                 1.0782                12.5332
 Frc consts  --      1.2860                 1.2861                34.1625
 IR Inten    --      6.1353                 6.1358                 2.4150
  Atom  AN      X      Y      Z        X      Y      Z        X      Y      Z
     1   6    -0.00   0.00  -0.08    -0.00  -0.08  -0.00     0.01   0.00  -0.00
     2  17     0.00  -0.00   0.00    -0.00   0.00   0.00    -0.00  -0.00   0.00
     3   1     0.22  -0.03  -0.11     0.01   0.77  -0.00    -0.09  -0.00   0.03
     4   1    -0.10  -0.39   0.57    -0.20   0.10  -0.36    -0.09  -0.03  -0.02
     5   1    -0.12   0.38   0.54     0.19   0.13   0.40    -0.09   0.03  -0.02
     6   6     0.00   0.00  -0.01     0.00  -0.01  -0.00     0.75  -0.00   0.00
     7   7    -0.00  -0.00   0.00    -0.00   0.00   0.00    -0.64   0.00  -0.00
                     13                     14                     15
                      A                      A                      A
 Frequencies --   3163.3040              3333.0663              3333.1339
 Red. masses --      1.0135                 1.1194                 1.1194
 Frc consts  --      5.9755                 7.3267                 7.3271
 IR Inten    --      2.6549                 1.6372                 1.6412
  Atom  AN      X      Y      Z        X      Y      Z        X      Y      Z
     1   6    -0.02  -0.00  -0.00     0.00   0.00  -0.10    -0.00  -0.10  -0.00
     2  17    -0.00  -0.00  -0.00     0.00  -0.00   0.00     0.00   0.00   0.00
     3   1     0.10  -0.00   0.57     0.15  -0.00   0.80     0.00  -0.02   0.02
     4   1     0.10  -0.49  -0.29    -0.07   0.34   0.18    -0.13   0.60   0.36
     5   1     0.10   0.49  -0.28    -0.08  -0.37   0.19     0.13   0.59  -0.35
     6   6    -0.00   0.00  -0.00     0.00  -0.00   0.00     0.00   0.00   0.00
     7   7     0.00  -0.00  -0.00    -0.00   0.00  -0.00    -0.00  -0.00  -0.00

 -------------------
 - Thermochemistry -
 -------------------
 Temperature   298.150 Kelvin.  Pressure   1.00000 Atm.
 Atom     1 has atomic number  6 and mass  12.00000
 Atom     2 has atomic number 17 and mass  34.96885
 Atom     3 has atomic number  1 and mass   1.00783
 Atom     4 has atomic number  1 and mass   1.00783
 Atom     5 has atomic number  1 and mass   1.00783
 Atom     6 has atomic number  6 and mass  12.00000
 Atom     7 has atomic number  7 and mass  14.00307
 Molecular mass:    75.99540 amu.
 Principal axes and moments of inertia in atomic units:
                           1         2         3
     Eigenvalues --    12.151901428.017171428.01789
           X            1.00000   0.00000   0.00002
           Y           -0.00000   0.99966  -0.02625
           Z           -0.00002   0.02625   0.99966
 This molecule is an asymmetric top.
 Rotational symmetry number  1.
 Rotational temperatures (Kelvin)      7.12760     0.06065     0.06065
 Rotational constants (GHZ):         148.51517     1.26381     1.26381
    1 imaginary frequencies ignored.
 Zero-point vibrational energy     115664.7 (Joules/Mol)
                                   27.64453 (Kcal/Mol)
 Warning -- explicit consideration of   5 degrees of freedom as
           vibrations may cause significant error
 Vibrational temperatures:    235.00   235.04   340.37   578.89   578.93
          (Kelvin)           1437.56  1437.57  1647.80  2047.12  2047.14
                             3094.66  4551.29  4795.54  4795.64
 
 Zero-point correction=                           0.044054 (Hartree/Particle)
 Thermal correction to Energy=                    0.049356
 Thermal correction to Enthalpy=                  0.050300
 Thermal correction to Gibbs Free Energy=         0.015782
 Sum of electronic and zero-point Energies=           -592.966660
 Sum of electronic and thermal Energies=              -592.961358
 Sum of electronic and thermal Enthalpies=            -592.960414
 Sum of electronic and thermal Free Energies=         -592.994932
 
                     E (Thermal)             CV                S
                      KCal/Mol        Cal/Mol-Kelvin    Cal/Mol-Kelvin
 Total                   30.971             15.654             72.650
 Electronic               0.000              0.000              0.000
 Translational            0.889              2.981             38.900
 Rotational               0.889              2.981             24.720
 Vibrational             29.194              9.692              9.031
 Vibration     1          0.623              1.887              2.511
 Vibration     2          0.623              1.887              2.511
 Vibration     3          0.655              1.785              1.829
 Vibration     4          0.768              1.465              0.954
 Vibration     5          0.768              1.465              0.954
                       Q            Log10(Q)             Ln(Q)
 Total Bot       0.550581D-07         -7.259179        -16.714877
 Total V=0       0.101019D+14         13.004402         29.943742
 Vib (Bot)       0.375219D-19        -19.425715        -44.729361
 Vib (Bot)    1  0.123649D+01          0.092189          0.212273
 Vib (Bot)    2  0.123625D+01          0.092107          0.212084
 Vib (Bot)    3  0.830153D+00         -0.080842         -0.186145
 Vib (Bot)    4  0.442227D+00         -0.354355         -0.815932
 Vib (Bot)    5  0.442191D+00         -0.354390         -0.816013
 Vib (V=0)       0.688440D+01          0.837866          1.929258
 Vib (V=0)    1  0.183375D+01          0.263341          0.606365
 Vib (V=0)    2  0.183354D+01          0.263289          0.606246
 Vib (V=0)    3  0.146910D+01          0.167051          0.384650
 Vib (V=0)    4  0.116751D+01          0.067259          0.154870
 Vib (V=0)    5  0.116748D+01          0.067250          0.154850
 Electronic      0.100000D+01          0.000000          0.000000
 Translational   0.260396D+08          7.415635         17.075130
 Rotational      0.563509D+05          4.750901         10.939354
 
                                                      RxCoord=-2.29947 DE=37.33
                                                             IR Spectrum
 
      3     3                                      2                          1          1                                           
      3     1                                      1                          4          1    9                      4     2  1      
      3     6                                      5                          2          4    9                      0     3  6      
      3     3                                      1                          3          5    9                      2     7  3      
 
      X     X                                      X                          X          X                           X     X  X      
      X                                                                       X          X                                 X  X      
                                                                              X          X                                 X  X      
                                                                              X          X                                 X  X      
                                                                              X          X                                 X  X      
                                                                              X          X                                 X  X      
                                                                                         X                                 X  X      
                                                                                         X                                 X  X      
                                                                                         X                                 X  X      
                                                                                         X                                 X  X      
                                                                                         X                                 X  X      
                                                                                         X                                 X  X      
                                                                                         X                                 X  X      
                                                                                         X                                    X      
                                                                                         X                                    X      
                                                                                         X                                    X      
                                                                                         X                                    X      
                                                                                                                              X      
                                                                                                                              X      
                                                                                                                              X      
 
 -------------------------------------------------------------------
 Center     Atomic                   Forces (Hartrees/Bohr)
 Number     Number              X              Y              Z
 -------------------------------------------------------------------
      1        6           0.061736682   -0.000000401   -0.000012911
      2       17          -0.018109944    0.000000028    0.000003590
      3        1           0.000011679   -0.000003501    0.001673069
      4        1           0.000011104   -0.001452885   -0.000835800
      5        1           0.000012201    0.001457028   -0.000828674
      6        6          -0.018908986   -0.000000591    0.000012656
      7        7          -0.024752735    0.000000320   -0.000011930
 -------------------------------------------------------------------
 Cartesian Forces:  Max     0.061736682 RMS     0.015611435
 Z-matrix is all fixed cartesians, so copy forces.
 Force constants in Cartesian coordinates: 
                1             2             3             4             5 
      1 -0.156415D-01
      2  0.336185D-05  0.663637D+00
      3  0.143999D-04  0.188439D-05  0.663571D+00
      4  0.131506D-01  0.000000D+00 -0.128051D-05  0.439501D-01
      5  0.000000D+00 -0.449069D-02  0.000000D+00  0.000000D+00 -0.326593D-03
      6 -0.528346D-05  0.000000D+00 -0.448901D-02  0.000000D+00  0.000000D+00
      7 -0.264606D-01  0.136157D-03 -0.585855D-01 -0.108382D-01 -0.664854D-05
      8  0.129979D-03 -0.498310D-01  0.716648D-03  0.284362D-05 -0.480924D-03
      9 -0.560230D-01  0.716716D-03 -0.358408D+00 -0.130109D-02 -0.491943D-05
     10 -0.264526D-01  0.506715D-01  0.294067D-01 -0.108460D-01 -0.238078D-02
     11  0.484536D-01 -0.280670D+00 -0.133980D+00  0.112328D-02  0.116704D-02
     12  0.281212D-01 -0.133979D+00 -0.127591D+00  0.652550D-03  0.960639D-03
     13 -0.264537D-01 -0.508110D-01  0.291729D-01 -0.108467D-01  0.238757D-02
     14 -0.485873D-01 -0.281910D+00  0.133262D+00 -0.112565D-02  0.117529D-02
     15  0.278976D-01  0.133260D+00 -0.126348D+00  0.647392D-03 -0.955419D-03
     16  0.551463D-01  0.000000D+00  0.101871D-05 -0.179975D-01  0.000000D+00
     17  0.000000D+00 -0.576854D-01  0.000000D+00  0.000000D+00  0.368060D-02
     18 -0.202708D-04  0.000000D+00 -0.576846D-01  0.604491D-05  0.000000D+00
     19  0.267115D-01  0.000000D+00 -0.824149D-05 -0.657218D-02  0.000000D+00
     20  0.000000D+00  0.109497D-01  0.000000D+00  0.000000D+00 -0.724727D-03
     21  0.154079D-04  0.000000D+00  0.109500D-01 -0.416293D-05  0.000000D+00
                6             7             8             9            10 
      6 -0.331496D-03
      7  0.275270D-02  0.522198D-01
      8 -0.490583D-05 -0.139960D-03  0.449529D-01
      9  0.172113D-02  0.603766D-01 -0.749600D-03  0.367504D+00
     10 -0.138170D-02  0.246446D-02 -0.593181D-02 -0.261019D-02  0.522223D-01
     11  0.960675D-03 -0.735197D-03  0.332712D-02  0.349597D-02 -0.522198D-01
     12  0.763902D-04  0.643986D-02 -0.235475D-01 -0.837487D-02 -0.303074D-01
     13 -0.137047D-02  0.246472D-02  0.594379D-02 -0.258275D-02  0.246504D-02
     14 -0.955474D-03  0.705094D-03  0.323344D-02 -0.344181D-02 -0.521018D-02
     15  0.674621D-04  0.644340D-02  0.236016D-01 -0.828163D-02 -0.385574D-02
     16  0.311003D-05 -0.174846D-01 -0.122740D-05  0.573493D-03 -0.174899D-01
     17  0.000000D+00  0.464857D-04 -0.169699D-02 -0.216678D-04  0.172875D-01
     18  0.368018D-02 -0.199887D-01 -0.215458D-04  0.763794D-02  0.100363D-01
     19  0.108653D-05 -0.236563D-02 -0.361367D-05  0.156700D-02 -0.236328D-02
     20  0.000000D+00 -0.593082D-05  0.495432D-03  0.531554D-05 -0.221646D-02
     21 -0.724656D-03  0.256166D-02  0.531253D-05 -0.179846D-02 -0.128796D-02
               11            12            13            14            15 
     11  0.286238D+00
     12  0.140042D+00  0.126232D+00
     13  0.522791D-02 -0.383139D-02  0.522235D-01
     14 -0.141273D-01  0.134670D-01  0.523629D-01  0.287535D+00
     15 -0.135749D-01  0.908452D-02 -0.300664D-01 -0.139291D+00  0.124933D+00
     16 -0.495168D-03 -0.288358D-03 -0.174897D-01  0.496863D-03 -0.286155D-03
     17  0.528556D-02  0.405288D-02 -0.173336D-01  0.532345D-02 -0.403126D-02
     18  0.405300D-02  0.656450D-03  0.995563D-02 -0.403151D-02  0.618810D-03
     19 -0.135463D-02 -0.786434D-03 -0.236311D-02  0.135831D-02 -0.780122D-03
     20 -0.122067D-02 -0.996033D-03  0.222240D-02 -0.122998D-02  0.990719D-03
     21 -0.996598D-03 -0.832434D-04 -0.127759D-02  0.991285D-03 -0.739901D-04
               16            17            18            19            20 
     16  0.114329D+01
     17 -0.854358D-05  0.723421D-01
     18  0.336673D-03  0.000000D+00  0.723405D-01
     19 -0.112798D+01  0.797520D-05 -0.325722D-03  0.111493D+01
     20  0.836064D-05 -0.272493D-01  0.000000D+00 -0.815793D-05  0.189795D-01
     21 -0.339782D-03  0.000000D+00 -0.272492D-01  0.332429D-03  0.000000D+00
               21 
     21  0.189796D-01
 Leave Link  716 at Sun Oct 13 09:49:57 2024, MaxMem=  2684354560 cpu:               0.9 elap:               0.1
 (Enter /usr/local/g16_AVX//g16/l103.exe)

 GradGradGradGradGradGradGradGradGradGradGradGradGradGradGradGradGradGrad
 Berny optimization.
 Search for a local minimum.
 Step number   1 out of a maximum of    2
 All quantities printed in internal units (Hartrees-Bohrs-Radians)
 Second derivative matrix not updated -- analytic derivatives used.
 ITU=  0
     Eigenvalues ---   -0.08253   0.00605   0.00605   0.02686   0.02686
     Eigenvalues ---    0.04715   0.07166   0.09129   0.09129   0.11749
     Eigenvalues ---    0.11749   0.40299   0.96193   0.96201   2.25671
 Eigenvalue     1 is  -8.25D-02 should be greater than     0.000000 Eigenvector:
                          X1        X6        X7        X2        Z3
   1                    0.82928  -0.36385  -0.35904  -0.09623   0.09570
                          Y5        Y4        X3        X4        X5
   1                    0.08303  -0.08280   0.06895   0.06884   0.06884
 Quadratic step=8.677D-01 exceeds max=3.000D-01 adjusted using Lamda=-1.531D-01.
 Angle between NR and scaled steps=   4.44 degrees.
 Angle between quadratic step and forces=   7.68 degrees.
 Linear search not attempted -- first point.
 B after Tr=    -0.009219    0.000000   -0.000002
         Rot=    1.000000    0.000000    0.000000    0.000000 Ang=   0.00 deg.
 Variable       Old X    -DE/DX   Delta X   Delta X   Delta X     New X
                                 (Linear)    (Quad)   (Total)
    X1        0.61878   0.06174   0.00000   0.26711   0.25789   0.87667
    Y1        0.00001  -0.00000   0.00000  -0.00000  -0.00000   0.00001
    Z1       -0.00045  -0.00001   0.00000  -0.00003  -0.00003  -0.00048
    X2       -4.24181  -0.01811   0.00000  -0.06527  -0.07449  -4.31630
    Y2       -0.00000   0.00000   0.00000   0.00000   0.00000  -0.00000
    Z2        0.00021   0.00000   0.00000   0.00001   0.00000   0.00021
    X3        0.23475   0.00001   0.00000   0.00761  -0.00161   0.23315
    Y3        0.00467  -0.00000   0.00000  -0.00005  -0.00005   0.00462
    Z3       -2.00524   0.00167   0.00000   0.02229   0.02229  -1.98295
    X4        0.23478   0.00001   0.00000   0.00762  -0.00160   0.23318
    Y4        1.73393  -0.00145   0.00000  -0.01932  -0.01932   1.71461
    Z4        1.00589  -0.00084   0.00000  -0.01118  -0.01118   0.99470
    X5        0.23475   0.00001   0.00000   0.00762  -0.00160   0.23316
    Y5       -1.73856   0.00146   0.00000   0.01937   0.01937  -1.71919
    Z5        0.99781  -0.00083   0.00000  -0.01109  -0.01109   0.98672
    X6        4.19101  -0.01891   0.00000  -0.08005  -0.08927   4.10174
    Y6        0.00001  -0.00000   0.00000  -0.00000  -0.00000   0.00000
    Z6       -0.00038   0.00001   0.00000   0.00005   0.00005  -0.00033
    X7        6.42031  -0.02475   0.00000  -0.08011  -0.08933   6.33098
    Y7       -0.00001   0.00000   0.00000   0.00000   0.00000  -0.00001
    Z7        0.00031  -0.00001   0.00000  -0.00004  -0.00004   0.00026
         Item               Value     Threshold  Converged?
 Maximum Force            0.061737     0.000450     NO 
 RMS     Force            0.015611     0.000300     NO 
 Maximum Displacement     0.257891     0.001800     NO 
 RMS     Displacement     0.065285     0.001200     NO 
 Predicted change in Energy=-2.465426D-02
 GradGradGradGradGradGradGradGradGradGradGradGradGradGradGradGradGradGrad

 Leave Link  103 at Sun Oct 13 09:49:57 2024, MaxMem=  2684354560 cpu:               0.7 elap:               0.1
 (Enter /usr/local/g16_AVX//g16/l9999.exe)

 ----------------------------------------------------------------------

 Electric dipole moment (input orientation):
 (Debye = 10**-18 statcoulomb cm , SI units = C m)
                  (au)            (Debye)         (10**-30 SI)
   Tot        0.883527D+00      0.224570D+01      0.749085D+01
   x          0.883526D+00      0.224570D+01      0.749085D+01
   y          0.101388D-04      0.257704D-04      0.859607D-04
   z         -0.399401D-03     -0.101518D-02     -0.338627D-02

 Dipole polarizability, Alpha (input orientation).
 (esu units = cm**3 , SI units = C**2 m**2 J**-1)
 Alpha(0;0):
               (au)            (10**-24 esu)      (10**-40 SI)
   iso        0.631714D+02      0.936103D+01      0.104155D+02
   aniso      0.691152D+02      0.102418D+02      0.113956D+02
   xx         0.109248D+03      0.161889D+02      0.180126D+02
   yx        -0.195170D-04     -0.289212D-05     -0.321791D-05
   yy         0.401329D+02      0.594708D+01      0.661701D+01
   zx         0.767571D-03      0.113742D-03      0.126555D-03
   zy         0.000000D+00      0.000000D+00      0.000000D+00
   zz         0.401331D+02      0.594711D+01      0.661705D+01

 ----------------------------------------------------------------------

 Dipole orientation:
     6          0.00017381          0.00000613          0.61877962
    17          0.00170966          0.00004492         -4.24181309
     1          2.00513303          0.00469172          0.23565773
     1         -1.00601204          1.73391531          0.23434662
     1         -0.99789358         -1.73857541          0.23428208
     6         -0.00151095         -0.00004244          4.19100789
     7         -0.00321035         -0.00008505          6.42030781

 Electric dipole moment (dipole orientation):
 (Debye = 10**-18 statcoulomb cm , SI units = C m)
                  (au)            (Debye)         (10**-30 SI)
   Tot        0.883527D+00      0.224570D+01      0.749085D+01
   x          0.000000D+00      0.000000D+00      0.000000D+00
   y          0.000000D+00      0.000000D+00      0.000000D+00
   z          0.883527D+00      0.224570D+01      0.749085D+01

 Dipole polarizability, Alpha (dipole orientation).
 (esu units = cm**3 , SI units = C**2 m**2 J**-1)
 Alpha(0;0):
               (au)            (10**-24 esu)      (10**-40 SI)
   iso        0.631714D+02      0.936103D+01      0.104155D+02
   aniso      0.691152D+02      0.102418D+02      0.113956D+02
   xx         0.401331D+02      0.594711D+01      0.661705D+01
   yx         0.000000D+00      0.000000D+00      0.000000D+00
   yy         0.401329D+02      0.594708D+01      0.661701D+01
   zx        -0.320113D-01     -0.474358D-02     -0.527795D-02
   zy        -0.813012D-03     -0.120476D-03     -0.134048D-03
   zz         0.109248D+03      0.161889D+02      0.180126D+02

 ----------------------------------------------------------------------
 1\1\GINC-NODO10\Freq\RB3LYP\6-31++G(d,p)\C2H3Cl1N1(1-)\ALANQF\13-Oct-2
 024\0\\#p b3lyp 6-31++g(d,p) scf=verytight NoSymm freq=noraman int=ult
 rafine\\RxCoord=-2.29947 DE=37.33\\-1,1\C,0.327444,0.000007,-0.00024\C
 l,-2.244671,-0.000002,0.00011\H,0.124225,0.002472,-1.061127\H,0.124241
 ,0.917556,0.532292\H,0.124226,-0.920007,0.528017\C,2.217786,0.000003,-
 0.000203\N,3.397481,-0.000006,0.000163\\Version=ES64L-G16RevB.01\HF=-5
 93.010714\RMSD=3.721e-09\RMSF=1.561e-02\ZeroPoint=0.0440544\Thermal=0.
 0493562\Dipole=0.9449199,0.0000104,-0.0004219\DipoleDeriv=2.6566053,0.
 0000013,-0.0001282,-0.0000059,0.0967149,0.0000004,-0.0000885,0.0000003
 ,0.096774,-1.5295215,0.0000002,0.0000342,-0.0000012,-0.823025,0.,0.000
 0703,0.,-0.8230276,-0.0778238,-0.0000339,0.0146376,-0.0000376,0.079162
 1,0.000083,0.0169123,0.0000836,0.0433623,-0.0778065,-0.0126601,-0.0073
 467,-0.014671,0.0524186,-0.015522,-0.0085137,-0.0155172,0.0701449,-0.0
 777977,0.0126934,-0.0072868,0.0147167,0.0522747,0.0154388,-0.0084471,0
 .0154336,0.070289,-1.0331928,0.0000007,0.0000048,-0.0000086,-0.0820543
 ,-0.0000003,0.0003858,-0.0000003,-0.0820555,-0.860463,-0.0000016,0.000
 085,0.0000076,-0.375491,0.,-0.0003191,0.,-0.3754871\Polar=109.2481385,
 -0.0000195,40.1328612,0.0007676,0.0000009,40.1330553\Quadrupole=-24.92
 90834,12.4647094,12.464374,0.0000306,-0.0000798,0.0000058\PG=C01 [X(C2
 H3Cl1N1)]\NImag=1\\-0.01564154,0.00000336,0.66363740,0.00001440,0.0000
 0188,0.66357086,0.01315060,0.00000002,-0.00000128,0.04395008,0.0000004
 3,-0.00449069,0.,-0.00000042,-0.00032659,-0.00000528,0.,-0.00448901,0.
 00000055,-0.00000029,-0.00033150,-0.02646055,0.00013616,-0.05858553,-0
 .01083824,-0.00000665,0.00275270,0.05221985,0.00012998,-0.04983098,0.0
 0071665,0.00000284,-0.00048092,-0.00000491,-0.00013996,0.04495290,-0.0
 5602304,0.00071672,-0.35840811,-0.00130109,-0.00000492,0.00172113,0.06
 037658,-0.00074960,0.36750399,-0.02645257,0.05067145,0.02940671,-0.010
 84603,-0.00238078,-0.00138170,0.00246446,-0.00593181,-0.00261019,0.052
 22232,0.04845356,-0.28066959,-0.13398017,0.00112328,0.00116704,0.00096
 067,-0.00073520,0.00332712,0.00349597,-0.05221976,0.28623783,0.0281212
 1,-0.13397907,-0.12759129,0.00065255,0.00096064,0.00007639,0.00643986,
 -0.02354749,-0.00837487,-0.03030744,0.14004204,0.12623205,-0.02645373,
 -0.05081097,0.02917292,-0.01084671,0.00238757,-0.00137047,0.00246472,0
 .00594379,-0.00258275,0.00246504,0.00522791,-0.00383139,0.05222351,-0.
 04858733,-0.28191039,0.13326163,-0.00112565,0.00117529,-0.00095547,0.0
 0070509,0.00323344,-0.00344181,-0.00521018,-0.01412729,0.01346702,0.05
 236289,0.28753546,0.02789758,0.13326045,-0.12634777,0.00064739,-0.0009
 5542,0.00006746,0.00644340,0.02360158,-0.00828163,-0.00385574,-0.01357
 491,0.00908452,-0.03006635,-0.13929114,0.12493260,0.05514629,-0.000000
 17,0.00000102,-0.01799752,-0.00000011,0.00000311,-0.01748460,-0.000001
 23,0.00057349,-0.01748993,-0.00049517,-0.00028836,-0.01748971,0.000496
 86,-0.00028616,1.14329476,0.00000032,-0.05768543,0.,-0.00000019,0.0036
 8060,-0.00000002,0.00004649,-0.00169699,-0.00002167,0.01728754,0.00528
 556,0.00405288,-0.01733359,0.00532345,-0.00403126,-0.00000854,0.072342
 08,-0.00002027,0.,-0.05768464,0.00000604,-0.00000002,0.00368018,-0.019
 98867,-0.00002155,0.00763794,0.01003631,0.00405300,0.00065645,0.009955
 63,-0.00403151,0.00061881,0.00033667,0.00000007,0.07234049,0.02671150,
 0.00000014,-0.00000824,-0.00657218,-0.00000003,0.00000109,-0.00236563,
 -0.00000361,0.00156700,-0.00236328,-0.00135463,-0.00078643,-0.00236311
 ,0.00135831,-0.00078012,-1.12797928,0.00000798,-0.00032572,1.11493197,
 -0.00000032,0.01094967,0.,0.00000011,-0.00072473,0.,-0.00000593,0.0004
 9543,0.00000532,-0.00221646,-0.00122067,-0.00099603,0.00222240,-0.0012
 2998,0.00099072,0.00000836,-0.02724927,0.,-0.00000816,0.01897954,0.000
 01541,0.,0.01094996,-0.00000416,0.,-0.00072466,0.00256166,0.00000531,-
 0.00179846,-0.00128796,-0.00099660,-0.00008324,-0.00127759,0.00099128,
 -0.00007399,-0.00033978,0.,-0.02724923,0.00033243,0.,0.01897962\\-0.06
 173668,0.00000040,0.00001291,0.01810994,-0.00000003,-0.00000359,-0.000
 01168,0.00000350,-0.00167307,-0.00001110,0.00145288,0.00083580,-0.0000
 1220,-0.00145703,0.00082867,0.01890899,0.00000059,-0.00001266,0.024752
 74,-0.00000032,0.00001193\\\@


 NO HUMAN INVESTIGATION CAN BECOME REAL SCIENCE
 WITHOUT GOING THROUGH MATHEMATICAL PEOPLE.
 -- LEONARDO DA VINCI, IN "PENSIERI" CA. 1492
 Job cpu time:       0 days  0 hours  3 minutes 55.7 seconds.
 Elapsed time:       0 days  0 hours  0 minutes 10.2 seconds.
 File lengths (MBytes):  RWF=     88 Int=      0 D2E=      0 Chk=      2 Scr=      2
 Normal termination of Gaussian 16 at Sun Oct 13 09:49:57 2024.
