 Entering Gaussian System, Link 0=g16
 Initial command:
 /usr/local/g16_AVX//g16/l1.exe "/scratch/alanqf/0080-54522.ixchel.mda.cinvestav.mx/Gau-28344.inp" -scrdir="/scratch/alanqf/0080-54522.ixchel.mda.cinvestav.mx/"
 Entering Link 1 = /usr/local/g16_AVX//g16/l1.exe PID=     28345.
  
 Copyright (c) 1988-2017, Gaussian, Inc.  All Rights Reserved.
  
 This is part of the Gaussian(R) 16 program.  It is based on
 the Gaussian(R) 09 system (copyright 2009, Gaussian, Inc.),
 the Gaussian(R) 03 system (copyright 2003, Gaussian, Inc.),
 the Gaussian(R) 98 system (copyright 1998, Gaussian, Inc.),
 the Gaussian(R) 94 system (copyright 1995, Gaussian, Inc.),
 the Gaussian 92(TM) system (copyright 1992, Gaussian, Inc.),
 the Gaussian 90(TM) system (copyright 1990, Gaussian, Inc.),
 the Gaussian 88(TM) system (copyright 1988, Gaussian, Inc.),
 the Gaussian 86(TM) system (copyright 1986, Carnegie Mellon
 University), and the Gaussian 82(TM) system (copyright 1983,
 Carnegie Mellon University). Gaussian is a federally registered
 trademark of Gaussian, Inc.
  
 This software contains proprietary and confidential information,
 including trade secrets, belonging to Gaussian, Inc.
  
 This software is provided under written license and may be
 used, copied, transmitted, or stored only in accord with that
 written license.
  
 The following legend is applicable only to US Government
 contracts under FAR:
  
                    RESTRICTED RIGHTS LEGEND
  
 Use, reproduction and disclosure by the US Government is
 subject to restrictions as set forth in subparagraphs (a)
 and (c) of the Commercial Computer Software - Restricted
 Rights clause in FAR 52.227-19.
  
 Gaussian, Inc.
 340 Quinnipiac St., Bldg. 40, Wallingford CT 06492
  
  
 ---------------------------------------------------------------
 Warning -- This program may not be used in any manner that
 competes with the business of Gaussian, Inc. or will provide
 assistance to any competitor of Gaussian, Inc.  The licensee
 of this program is prohibited from giving any competitor of
 Gaussian, Inc. access to this program.  By using this program,
 the user acknowledges that Gaussian, Inc. is engaged in the
 business of creating and licensing software in the field of
 computational chemistry and represents and warrants to the
 licensee that it is not a competitor of Gaussian, Inc. and that
 it will not use this program in any manner prohibited above.
 ---------------------------------------------------------------
  

 Cite this work as:
 Gaussian 16, Revision B.01,
 M. J. Frisch, G. W. Trucks, H. B. Schlegel, G. E. Scuseria, 
 M. A. Robb, J. R. Cheeseman, G. Scalmani, V. Barone, 
 G. A. Petersson, H. Nakatsuji, X. Li, M. Caricato, A. V. Marenich, 
 J. Bloino, B. G. Janesko, R. Gomperts, B. Mennucci, H. P. Hratchian, 
 J. V. Ortiz, A. F. Izmaylov, J. L. Sonnenberg, D. Williams-Young, 
 F. Ding, F. Lipparini, F. Egidi, J. Goings, B. Peng, A. Petrone, 
 T. Henderson, D. Ranasinghe, V. G. Zakrzewski, J. Gao, N. Rega, 
 G. Zheng, W. Liang, M. Hada, M. Ehara, K. Toyota, R. Fukuda, 
 J. Hasegawa, M. Ishida, T. Nakajima, Y. Honda, O. Kitao, H. Nakai, 
 T. Vreven, K. Throssell, J. A. Montgomery, Jr., J. E. Peralta, 
 F. Ogliaro, M. J. Bearpark, J. J. Heyd, E. N. Brothers, K. N. Kudin, 
 V. N. Staroverov, T. A. Keith, R. Kobayashi, J. Normand, 
 K. Raghavachari, A. P. Rendell, J. C. Burant, S. S. Iyengar, 
 J. Tomasi, M. Cossi, J. M. Millam, M. Klene, C. Adamo, R. Cammi, 
 J. W. Ochterski, R. L. Martin, K. Morokuma, O. Farkas, 
 J. B. Foresman, and D. J. Fox, Gaussian, Inc., Wallingford CT, 2016.
 
 ******************************************
 Gaussian 16:  ES64L-G16RevB.01 20-Dec-2017
                13-Oct-2024 
 ******************************************
 %NProcShared=26
 Will use up to   26 processors via shared memory.
 %MEM=20GB
 %chk=CHKfiles/0080.chk
 ---------------------------------------------------------------------
 #p b3lyp 6-31++g(d,p) scf=verytight NoSymm freq=noraman int=ultrafine
 ---------------------------------------------------------------------
 1/10=4,30=1,38=1/1,3;
 2/12=2,15=1,17=6,18=5,40=1/2;
 3/5=1,6=6,7=1111,11=2,25=1,30=1,71=2,74=-5,75=-5,140=1/1,2,3;
 4//1;
 5/5=2,17=3,38=5,98=1/2;
 8/6=4,10=90,11=11/1;
 11/6=1,8=1,9=11,15=111,16=1,31=1/1,2,10;
 10/6=1,31=1/2;
 6/7=2,8=2,9=2,10=2,28=1/1;
 7/8=1,10=1,25=1,30=1/1,2,3,16;
 1/10=4,30=1/3;
 99//99;
 Leave Link    1 at Sun Oct 13 09:49:50 2024, MaxMem=  2684354560 cpu:               1.2 elap:               0.1
 (Enter /usr/local/g16_AVX//g16/l101.exe)
 -------------------------
 RxCoord=-2.09951 DE=40.22
 -------------------------
 Symbolic Z-matrix:
 Charge = -1 Multiplicity = 1
 C                     0.30049   0.00001  -0.00024 
 Cl                   -2.24167  0.         0.00011 
 H                     0.11976   0.00248  -1.06429 
 H                     0.11976   0.9203    0.53387 
 H                     0.11975  -0.92276   0.52958 
 C                     2.22686   0.       -0.00021 
 N                     3.40629  -0.00001   0.00017 
 
 ITRead=  0  0  0  0  0  0  0
 MicOpt= -1 -1 -1 -1 -1 -1 -1
 NAtoms=      7 NQM=        7 NQMF=       0 NMMI=      0 NMMIF=      0
                NMic=       0 NMicF=      0.
                    Isotopes and Nuclear Properties:
 (Nuclear quadrupole moments (NQMom) in fm**2, nuclear magnetic moments (NMagM)
  in nuclear magnetons)

  Atom         1           2           3           4           5           6           7
 IAtWgt=          12          35           1           1           1          12          14
 AtmWgt=  12.0000000  34.9688527   1.0078250   1.0078250   1.0078250  12.0000000  14.0030740
 NucSpn=           0           3           1           1           1           0           2
 AtZEff=  -0.0000000  -0.0000000  -0.0000000  -0.0000000  -0.0000000  -0.0000000  -0.0000000
 NQMom=    0.0000000  -8.1650000   0.0000000   0.0000000   0.0000000   0.0000000   2.0440000
 NMagM=    0.0000000   0.8218740   2.7928460   2.7928460   2.7928460   0.0000000   0.4037610
 AtZNuc=   6.0000000  17.0000000   1.0000000   1.0000000   1.0000000   6.0000000   7.0000000
 Leave Link  101 at Sun Oct 13 09:49:50 2024, MaxMem=  2684354560 cpu:               2.8 elap:               0.1
 (Enter /usr/local/g16_AVX//g16/l103.exe)

 GradGradGradGradGradGradGradGradGradGradGradGradGradGradGradGradGradGrad
 Berny optimization.
 Initialization pass.
 Trust Radius=3.00D-01 FncErr=1.00D-07 GrdErr=1.00D-07 EigMax=2.50D+02 EigMin=1.00D-04
 Number of steps in this run=      2 maximum allowed number of steps=      2.
 GradGradGradGradGradGradGradGradGradGradGradGradGradGradGradGradGradGrad

 Leave Link  103 at Sun Oct 13 09:49:50 2024, MaxMem=  2684354560 cpu:               0.5 elap:               0.1
 (Enter /usr/local/g16_AVX//g16/l202.exe)
                          Input orientation:                          
 ---------------------------------------------------------------------
 Center     Atomic      Atomic             Coordinates (Angstroms)
 Number     Number       Type             X           Y           Z
 ---------------------------------------------------------------------
      1          6           0        0.300489    0.000007   -0.000240
      2         17           0       -2.241672   -0.000002    0.000110
      3          1           0        0.119755    0.002482   -1.064290
      4          1           0        0.119764    0.920299    0.533871
      5          1           0        0.119748   -0.922757    0.529583
      6          6           0        2.226856    0.000004   -0.000207
      7          7           0        3.406285   -0.000006    0.000168
 ---------------------------------------------------------------------
                    Distance matrix (angstroms):
                    1          2          3          4          5
     1  C    0.000000
     2  Cl   2.542161   0.000000
     3  H    1.079293   2.590230   0.000000
     4  H    1.079293   2.590026   1.842961   0.000000
     5  H    1.079293   2.590004   1.842959   1.843061   0.000000
     6  C    1.926367   4.468528   2.360541   2.360512   2.360523
     7  N    3.105796   5.647957   3.454614   3.454420   3.454428
                    6          7
     6  C    0.000000
     7  N    1.179429   0.000000
 Symmetry turned off by external request.
 This structure is nearly, but not quite of a higher symmetry.
 Consider Symm=Loose if the higher symmetry is desired.
 Stoichiometry    C2H3ClN(1-)
 Framework group  C1[X(C2H3ClN)]
 Deg. of freedom    15
 Full point group                 C1      NOp   1
 Rotational constants (GHZ):         147.6331965           1.2617400           1.2617392
 Leave Link  202 at Sun Oct 13 09:49:50 2024, MaxMem=  2684354560 cpu:               0.2 elap:               0.0
 (Enter /usr/local/g16_AVX//g16/l301.exe)
 Standard basis: 6-31++G(d,p) (6D, 7F)
 Ernie: Thresh=  0.10000D-02 Tol=  0.10000D-05 Strict=F.
    98 basis functions,   176 primitive gaussians,    98 cartesian basis functions
    20 alpha electrons       20 beta electrons
       nuclear repulsion energy       107.7093117442 Hartrees.
 IExCor=  402 DFT=T Ex+Corr=B3LYP ExCW=0 ScaHFX=  0.200000
 ScaDFX=  0.800000  0.720000  1.000000  0.810000 ScalE2=  1.000000  1.000000
 IRadAn=      5 IRanWt=     -1 IRanGd=            0 ICorTp=0 IEmpDi=  4
 NAtoms=    7 NActive=    7 NUniq=    7 SFac= 1.00D+00 NAtFMM=   60 NAOKFM=F Big=F
 Integral buffers will be    131072 words long.
 Raffenetti 2 integral format.
 Two-electron integral symmetry is turned off.
 Leave Link  301 at Sun Oct 13 09:49:51 2024, MaxMem=  2684354560 cpu:               1.4 elap:               0.1
 (Enter /usr/local/g16_AVX//g16/l302.exe)
 NPDir=0 NMtPBC=     1 NCelOv=     1 NCel=       1 NClECP=     1 NCelD=      1
         NCelK=      1 NCelE2=     1 NClLst=     1 CellRange=     0.0.
 One-electron integrals computed using PRISM.
 NBasis=    98 RedAO= T EigKep=  5.00D-05  NBF=    98
 NBsUse=    98 1.00D-06 EigRej= -1.00D+00 NBFU=    98
 Precomputing XC quadrature grid using
 IXCGrd= 4 IRadAn=           5 IRanWt=          -1 IRanGd=           0 AccXCQ= 0.00D+00.
 Generated NRdTot=       0 NPtTot=           0 NUsed=           0 NTot=          32
 NSgBfM=    98    98    98    98    98 MxSgAt=     7 MxSgA2=     7.
 Leave Link  302 at Sun Oct 13 09:49:51 2024, MaxMem=  2684354560 cpu:               3.9 elap:               0.2
 (Enter /usr/local/g16_AVX//g16/l303.exe)
 DipDrv:  MaxL=1.
 Leave Link  303 at Sun Oct 13 09:49:51 2024, MaxMem=  2684354560 cpu:               0.8 elap:               0.1
 (Enter /usr/local/g16_AVX//g16/l401.exe)
 ExpMin= 3.60D-02 ExpMax= 2.52D+04 ExpMxC= 3.78D+03 IAcc=3 IRadAn=         5 AccDes= 0.00D+00
 Harris functional with IExCor=  402 and IRadAn=       5 diagonalized for initial guess.
 HarFok:  IExCor=  402 AccDes= 0.00D+00 IRadAn=         5 IDoV= 1 UseB2=F ITyADJ=14
 ICtDFT=  3500011 ScaDFX=  1.000000  1.000000  1.000000  1.000000
 FoFCou: FMM=F IPFlag=           0 FMFlag=      100000 FMFlg1=           0
         NFxFlg=           0 DoJE=T BraDBF=F KetDBF=T FulRan=T
         wScrn=  0.000000 ICntrl=       500 IOpCl=  0 I1Cent=   200000004 NGrid=           0
         NMat0=    1 NMatS0=      1 NMatT0=    0 NMatD0=    1 NMtDS0=    0 NMtDT0=    0
 Symmetry not used in FoFCou.
 Harris En= -593.045643199777    
 JPrj=0 DoOrth=F DoCkMO=F.
 Leave Link  401 at Sun Oct 13 09:49:51 2024, MaxMem=  2684354560 cpu:               5.8 elap:               0.3
 (Enter /usr/local/g16_AVX//g16/l502.exe)
 Keep R1 ints in memory in canonical form, NReq=35752921.
 FoFCou: FMM=F IPFlag=           0 FMFlag=           0 FMFlg1=           0
         NFxFlg=           0 DoJE=F BraDBF=F KetDBF=F FulRan=T
         wScrn=  0.000000 ICntrl=       600 IOpCl=  0 I1Cent=           0 NGrid=           0
         NMat0=    1 NMatS0=   4851 NMatT0=    0 NMatD0=    1 NMtDS0=    0 NMtDT0=    0
 Symmetry not used in FoFCou.
 Two-electron integral symmetry not used.
 Closed shell SCF:
 Using DIIS extrapolation, IDIIS=  1040.
 NGot=  2684354560 LenX=  2672563419 LenY=  2672553374
 Requested convergence on RMS density matrix=1.00D-08 within 128 cycles.
 Requested convergence on MAX density matrix=1.00D-06.
 Requested convergence on             energy=1.00D-06.
 No special actions if energy rises.

 Cycle   1  Pass 1  IDiag  1:
 E= -592.910640777095    
 DIIS: error= 2.78D-02 at cycle   1 NSaved=   1.
 NSaved= 1 IEnMin= 1 EnMin= -592.910640777095     IErMin= 1 ErrMin= 2.78D-02
 ErrMax= 2.78D-02  0.00D+00 EMaxC= 1.00D-01 BMatC= 9.33D-02 BMatP= 9.33D-02
 IDIUse=3 WtCom= 7.22D-01 WtEn= 2.78D-01
 Coeff-Com:  0.100D+01
 Coeff-En:   0.100D+01
 Coeff:      0.100D+01
 Gap=     0.232 Goal=   None    Shift=    0.000
 GapD=    0.232 DampG=1.000 DampE=0.500 DampFc=0.5000 IDamp=-1.
 Damping current iteration by 5.00D-01
 RMSDP=9.23D-03 MaxDP=1.94D-01              OVMax= 2.11D-01

 Cycle   2  Pass 1  IDiag  1:
 E= -592.933215525901     Delta-E=       -0.022574748806 Rises=F Damp=T
 DIIS: error= 2.01D-02 at cycle   2 NSaved=   2.
 NSaved= 2 IEnMin= 2 EnMin= -592.933215525901     IErMin= 2 ErrMin= 2.01D-02
 ErrMax= 2.01D-02  0.00D+00 EMaxC= 1.00D-01 BMatC= 2.35D-02 BMatP= 9.33D-02
 IDIUse=3 WtCom= 7.99D-01 WtEn= 2.01D-01
 Coeff-Com:  0.261D+00 0.739D+00
 Coeff-En:   0.371D+00 0.629D+00
 Coeff:      0.284D+00 0.716D+00
 Gap=     0.173 Goal=   None    Shift=    0.000
 RMSDP=3.00D-03 MaxDP=5.28D-02 DE=-2.26D-02 OVMax= 1.86D-01

 Cycle   3  Pass 1  IDiag  1:
 E= -592.986851038965     Delta-E=       -0.053635513063 Rises=F Damp=F
 DIIS: error= 1.94D-02 at cycle   3 NSaved=   3.
 NSaved= 3 IEnMin= 3 EnMin= -592.986851038965     IErMin= 3 ErrMin= 1.94D-02
 ErrMax= 1.94D-02  0.00D+00 EMaxC= 1.00D-01 BMatC= 2.03D-02 BMatP= 2.35D-02
 IDIUse=3 WtCom= 8.06D-01 WtEn= 1.94D-01
 Coeff-Com:  0.593D-01 0.468D+00 0.473D+00
 Coeff-En:   0.000D+00 0.000D+00 0.100D+01
 Coeff:      0.478D-01 0.377D+00 0.575D+00
 Gap=     0.192 Goal=   None    Shift=    0.000
 RMSDP=2.84D-03 MaxDP=4.64D-02 DE=-5.36D-02 OVMax= 7.79D-02

 Cycle   4  Pass 1  IDiag  1:
 E= -592.998507020077     Delta-E=       -0.011655981112 Rises=F Damp=F
 DIIS: error= 1.39D-02 at cycle   4 NSaved=   4.
 NSaved= 4 IEnMin= 4 EnMin= -592.998507020077     IErMin= 4 ErrMin= 1.39D-02
 ErrMax= 1.39D-02  0.00D+00 EMaxC= 1.00D-01 BMatC= 9.09D-03 BMatP= 2.03D-02
 IDIUse=3 WtCom= 8.61D-01 WtEn= 1.39D-01
 Coeff-Com:  0.329D-01 0.118D-01 0.377D+00 0.578D+00
 Coeff-En:   0.000D+00 0.000D+00 0.342D+00 0.658D+00
 Coeff:      0.283D-01 0.101D-01 0.373D+00 0.589D+00
 Gap=     0.187 Goal=   None    Shift=    0.000
 RMSDP=1.14D-03 MaxDP=1.71D-02 DE=-1.17D-02 OVMax= 3.20D-02

 Cycle   5  Pass 1  IDiag  1:
 E= -593.006726890208     Delta-E=       -0.008219870132 Rises=F Damp=F
 DIIS: error= 1.09D-03 at cycle   5 NSaved=   5.
 NSaved= 5 IEnMin= 5 EnMin= -593.006726890208     IErMin= 5 ErrMin= 1.09D-03
 ErrMax= 1.09D-03  0.00D+00 EMaxC= 1.00D-01 BMatC= 1.08D-04 BMatP= 9.09D-03
 IDIUse=3 WtCom= 9.89D-01 WtEn= 1.09D-02
 Coeff-Com:  0.118D-01-0.131D-01 0.167D+00 0.304D+00 0.530D+00
 Coeff-En:   0.000D+00 0.000D+00 0.000D+00 0.000D+00 0.100D+01
 Coeff:      0.117D-01-0.130D-01 0.165D+00 0.300D+00 0.536D+00
 Gap=     0.186 Goal=   None    Shift=    0.000
 RMSDP=1.60D-04 MaxDP=2.52D-03 DE=-8.22D-03 OVMax= 4.29D-03

 Cycle   6  Pass 1  IDiag  1:
 E= -593.006839466925     Delta-E=       -0.000112576716 Rises=F Damp=F
 DIIS: error= 2.14D-04 at cycle   6 NSaved=   6.
 NSaved= 6 IEnMin= 6 EnMin= -593.006839466925     IErMin= 6 ErrMin= 2.14D-04
 ErrMax= 2.14D-04  0.00D+00 EMaxC= 1.00D-01 BMatC= 3.66D-06 BMatP= 1.08D-04
 IDIUse=3 WtCom= 9.98D-01 WtEn= 2.14D-03
 Coeff-Com:  0.203D-02-0.437D-02 0.291D-01 0.560D-01 0.208D+00 0.709D+00
 Coeff-En:   0.000D+00 0.000D+00 0.000D+00 0.000D+00 0.000D+00 0.100D+01
 Coeff:      0.203D-02-0.436D-02 0.290D-01 0.559D-01 0.207D+00 0.710D+00
 Gap=     0.186 Goal=   None    Shift=    0.000
 RMSDP=8.52D-05 MaxDP=2.27D-03 DE=-1.13D-04 OVMax= 8.74D-04

 Cycle   7  Pass 1  IDiag  1:
 E= -593.006843908762     Delta-E=       -0.000004441838 Rises=F Damp=F
 DIIS: error= 2.52D-05 at cycle   7 NSaved=   7.
 NSaved= 7 IEnMin= 7 EnMin= -593.006843908762     IErMin= 7 ErrMin= 2.52D-05
 ErrMax= 2.52D-05  0.00D+00 EMaxC= 1.00D-01 BMatC= 5.09D-08 BMatP= 3.66D-06
 IDIUse=1 WtCom= 1.00D+00 WtEn= 0.00D+00
 Coeff-Com:  0.156D-03-0.765D-03 0.113D-02 0.233D-02 0.304D-01 0.178D+00
 Coeff-Com:  0.789D+00
 Coeff:      0.156D-03-0.765D-03 0.113D-02 0.233D-02 0.304D-01 0.178D+00
 Coeff:      0.789D+00
 Gap=     0.186 Goal=   None    Shift=    0.000
 RMSDP=1.14D-05 MaxDP=2.93D-04 DE=-4.44D-06 OVMax= 1.95D-04

 Cycle   8  Pass 1  IDiag  1:
 E= -593.006843960625     Delta-E=       -0.000000051862 Rises=F Damp=F
 DIIS: error= 8.02D-06 at cycle   8 NSaved=   8.
 NSaved= 8 IEnMin= 8 EnMin= -593.006843960625     IErMin= 8 ErrMin= 8.02D-06
 ErrMax= 8.02D-06  0.00D+00 EMaxC= 1.00D-01 BMatC= 9.85D-09 BMatP= 5.09D-08
 IDIUse=1 WtCom= 1.00D+00 WtEn= 0.00D+00
 Coeff-Com:  0.319D-05-0.166D-03-0.896D-03-0.157D-02 0.597D-02 0.641D-01
 Coeff-Com:  0.408D+00 0.525D+00
 Coeff:      0.319D-05-0.166D-03-0.896D-03-0.157D-02 0.597D-02 0.641D-01
 Coeff:      0.408D+00 0.525D+00
 Gap=     0.186 Goal=   None    Shift=    0.000
 RMSDP=3.13D-06 MaxDP=7.96D-05 DE=-5.19D-08 OVMax= 5.71D-05

 Cycle   9  Pass 1  IDiag  1:
 E= -593.006843972283     Delta-E=       -0.000000011659 Rises=F Damp=F
 DIIS: error= 1.69D-06 at cycle   9 NSaved=   9.
 NSaved= 9 IEnMin= 9 EnMin= -593.006843972283     IErMin= 9 ErrMin= 1.69D-06
 ErrMax= 1.69D-06  0.00D+00 EMaxC= 1.00D-01 BMatC= 4.67D-10 BMatP= 9.85D-09
 IDIUse=1 WtCom= 1.00D+00 WtEn= 0.00D+00
 Coeff-Com: -0.707D-05-0.719D-05-0.409D-03-0.661D-03-0.101D-02 0.606D-02
 Coeff-Com:  0.684D-01 0.195D+00 0.732D+00
 Coeff:     -0.707D-05-0.719D-05-0.409D-03-0.661D-03-0.101D-02 0.606D-02
 Coeff:      0.684D-01 0.195D+00 0.732D+00
 Gap=     0.186 Goal=   None    Shift=    0.000
 RMSDP=8.24D-07 MaxDP=1.87D-05 DE=-1.17D-08 OVMax= 1.36D-05

 Cycle  10  Pass 1  IDiag  1:
 E= -593.006843972879     Delta-E=       -0.000000000595 Rises=F Damp=F
 DIIS: error= 4.60D-07 at cycle  10 NSaved=  10.
 NSaved=10 IEnMin=10 EnMin= -593.006843972879     IErMin=10 ErrMin= 4.60D-07
 ErrMax= 4.60D-07  0.00D+00 EMaxC= 1.00D-01 BMatC= 1.44D-11 BMatP= 4.67D-10
 IDIUse=1 WtCom= 1.00D+00 WtEn= 0.00D+00
 Coeff-Com: -0.158D-05 0.559D-05-0.738D-04-0.101D-03-0.699D-03-0.218D-02
 Coeff-Com: -0.436D-02 0.271D-01 0.222D+00 0.758D+00
 Coeff:     -0.158D-05 0.559D-05-0.738D-04-0.101D-03-0.699D-03-0.218D-02
 Coeff:     -0.436D-02 0.271D-01 0.222D+00 0.758D+00
 Gap=     0.186 Goal=   None    Shift=    0.000
 RMSDP=1.12D-07 MaxDP=1.89D-06 DE=-5.95D-10 OVMax= 1.40D-06

 Cycle  11  Pass 1  IDiag  1:
 E= -593.006843972894     Delta-E=       -0.000000000015 Rises=F Damp=F
 DIIS: error= 5.10D-08 at cycle  11 NSaved=  11.
 NSaved=11 IEnMin=11 EnMin= -593.006843972894     IErMin=11 ErrMin= 5.10D-08
 ErrMax= 5.10D-08  0.00D+00 EMaxC= 1.00D-01 BMatC= 2.09D-13 BMatP= 1.44D-11
 IDIUse=1 WtCom= 1.00D+00 WtEn= 0.00D+00
 Coeff-Com: -0.406D-06 0.100D-05 0.102D-06-0.173D-05-0.372D-04-0.385D-03
 Coeff-Com: -0.155D-02-0.282D-02 0.223D-02 0.583D-01 0.944D+00
 Coeff:     -0.406D-06 0.100D-05 0.102D-06-0.173D-05-0.372D-04-0.385D-03
 Coeff:     -0.155D-02-0.282D-02 0.223D-02 0.583D-01 0.944D+00
 Gap=     0.186 Goal=   None    Shift=    0.000
 RMSDP=3.36D-08 MaxDP=9.33D-07 DE=-1.49D-11 OVMax= 2.96D-07

 Cycle  12  Pass 1  IDiag  1:
 E= -593.006843972895     Delta-E=       -0.000000000001 Rises=F Damp=F
 DIIS: error= 1.16D-08 at cycle  12 NSaved=  12.
 NSaved=12 IEnMin=12 EnMin= -593.006843972895     IErMin=12 ErrMin= 1.16D-08
 ErrMax= 1.16D-08  0.00D+00 EMaxC= 1.00D-01 BMatC= 5.89D-15 BMatP= 2.09D-13
 IDIUse=1 WtCom= 1.00D+00 WtEn= 0.00D+00
 Coeff-Com: -0.766D-07 0.101D-06 0.687D-06 0.103D-05 0.374D-05 0.893D-05
 Coeff-Com:  0.101D-04-0.605D-03-0.256D-02-0.631D-02 0.432D-01 0.966D+00
 Coeff:     -0.766D-07 0.101D-06 0.687D-06 0.103D-05 0.374D-05 0.893D-05
 Coeff:      0.101D-04-0.605D-03-0.256D-02-0.631D-02 0.432D-01 0.966D+00
 Gap=     0.186 Goal=   None    Shift=    0.000
 RMSDP=4.15D-09 MaxDP=1.14D-07 DE=-1.36D-12 OVMax= 2.95D-08

 SCF Done:  E(RB3LYP) =  -593.006843973     A.U. after   12 cycles
            NFock= 12  Conv=0.41D-08     -V/T= 2.0049
 KE= 5.900948119191D+02 PE=-1.625722506521D+03 EE= 3.349115388851D+02
 Leave Link  502 at Sun Oct 13 09:49:53 2024, MaxMem=  2684354560 cpu:              35.7 elap:               1.6
 (Enter /usr/local/g16_AVX//g16/l801.exe)
 DoSCS=F DFT=T ScalE2(SS,OS)=  1.000000  1.000000
 Range of M.O.s used for correlation:     1    98
 NBasis=    98 NAE=    20 NBE=    20 NFC=     0 NFV=     0
 NROrb=     98 NOA=    20 NOB=    20 NVA=    78 NVB=    78

 **** Warning!!: The largest alpha MO coefficient is  0.71728620D+02

 Leave Link  801 at Sun Oct 13 09:49:53 2024, MaxMem=  2684354560 cpu:               0.7 elap:               0.1
 (Enter /usr/local/g16_AVX//g16/l1101.exe)
 Using compressed storage, NAtomX=     7.
 Will process      8 centers per pass.
 Leave Link 1101 at Sun Oct 13 09:49:53 2024, MaxMem=  2684354560 cpu:               3.4 elap:               0.2
 (Enter /usr/local/g16_AVX//g16/l1102.exe)
 Symmetrizing basis deriv contribution to polar:
 IMax=3 JMax=2 DiffMx= 0.00D+00
 Leave Link 1102 at Sun Oct 13 09:49:53 2024, MaxMem=  2684354560 cpu:               0.7 elap:               0.1
 (Enter /usr/local/g16_AVX//g16/l1110.exe)
 Forming Gx(P) for the SCF density, NAtomX=     7.
 Integral derivatives from FoFJK, PRISM(SPDF).
 Do as many integral derivatives as possible in FoFJK.
 G2DrvN: MDV=    2684353878.
 G2DrvN: will do     8 centers at a time, making    1 passes.
 Calling FoFCou, ICntrl=  3107 FMM=F I1Cent=   0 AccDes= 0.00D+00.
 FoFJK:  IHMeth= 1 ICntrl=    3107 DoSepK=F KAlg= 0 I1Cent=           0 FoldK=F
 IRaf=         0 NMat=       1 IRICut=       1 DoRegI=T DoRafI=F ISym2E= 0 IDoP0=0 IntGTp=1.
 FoFCou: FMM=F IPFlag=           0 FMFlag=      100000 FMFlg1=           0
         NFxFlg=           0 DoJE=F BraDBF=F KetDBF=F FulRan=T
         wScrn=  0.000000 ICntrl=      3107 IOpCl=  0 I1Cent=           0 NGrid=           0
         NMat0=    1 NMatS0=      1 NMatT0=    0 NMatD0=    1 NMtDS0=    0 NMtDT0=    0
 Symmetry not used in FoFCou.
 End of G2Drv F.D. properties file   721 does not exist.
 End of G2Drv F.D. properties file   722 does not exist.
 End of G2Drv F.D. properties file   788 does not exist.
 Leave Link 1110 at Sun Oct 13 09:49:55 2024, MaxMem=  2684354560 cpu:              39.1 elap:               1.6
 (Enter /usr/local/g16_AVX//g16/l1002.exe)
 Minotr:  Closed shell wavefunction.
          IDoAtm=1111111
          Direct CPHF calculation.
          Differentiating once with respect to electric field.
                with respect to dipole field.
          Differentiating once with respect to nuclear coordinates.
          Requested convergence is 1.0D-08 RMS, and 1.0D-07 maximum.
          Secondary convergence is 1.0D-12 RMS, and 1.0D-12 maximum.
          NewPWx=T KeepS1=F KeepF1=F KeepIn=T MapXYZ=F SortEE=F KeepMc=T.
         2129 words used for storage of precomputed grid.
 Keep R1 ints in memory in canonical form, NReq=35668376.
 FoFCou: FMM=F IPFlag=           0 FMFlag=           0 FMFlg1=           0
         NFxFlg=           0 DoJE=F BraDBF=F KetDBF=F FulRan=T
         wScrn=  0.000000 ICntrl=       600 IOpCl=  0 I1Cent=           0 NGrid=           0
         NMat0=    1 NMatS0=   4851 NMatT0=    0 NMatD0=    1 NMtDS0=    0 NMtDT0=    0
 Symmetry not used in FoFCou.
 Two-electron integral symmetry not used.
          MDV=    2684354560 using IRadAn=       1.
          Solving linear equations simultaneously, MaxMat=       0.
          There are    24 degrees of freedom in the 1st order CPHF.  IDoFFX=6 NUNeed=     3.
     21 vectors produced by pass  0 Test12= 6.50D-15 4.17D-09 XBig12= 1.20D+02 6.71D+00.
 AX will form    21 AO Fock derivatives at one time.
     21 vectors produced by pass  1 Test12= 6.50D-15 4.17D-09 XBig12= 4.79D+01 2.61D+00.
     21 vectors produced by pass  2 Test12= 6.50D-15 4.17D-09 XBig12= 3.53D+00 5.57D-01.
     21 vectors produced by pass  3 Test12= 6.50D-15 4.17D-09 XBig12= 2.86D-02 3.33D-02.
     21 vectors produced by pass  4 Test12= 6.50D-15 4.17D-09 XBig12= 9.77D-05 2.02D-03.
     19 vectors produced by pass  5 Test12= 6.50D-15 4.17D-09 XBig12= 1.73D-07 9.04D-05.
      6 vectors produced by pass  6 Test12= 6.50D-15 4.17D-09 XBig12= 2.32D-10 3.37D-06.
      1 vectors produced by pass  7 Test12= 6.50D-15 4.17D-09 XBig12= 2.81D-13 1.15D-07.
      1 vectors produced by pass  8 Test12= 6.50D-15 4.17D-09 XBig12= 4.24D-16 5.94D-09.
 InvSVY:  IOpt=1 It=  1 EMax= 6.22D-15
 Solved reduced A of dimension   132 with    24 vectors.
 FullF1:  Do perturbations      1 to       3.
 Isotropic polarizability for W=    0.000000       64.20 Bohr**3.
 End of Minotr F.D. properties file   721 does not exist.
 End of Minotr F.D. properties file   722 does not exist.
 End of Minotr F.D. properties file   788 does not exist.
 Leave Link 1002 at Sun Oct 13 09:49:57 2024, MaxMem=  2684354560 cpu:              58.7 elap:               2.3
 (Enter /usr/local/g16_AVX//g16/l601.exe)
 Copying SCF densities to generalized density rwf, IOpCl= 0 IROHF=0.

 **********************************************************************

            Population analysis using the SCF Density.

 **********************************************************************

 Alpha  occ. eigenvalues -- -101.28075 -14.19415 -10.11197 -10.08187  -9.19534
 Alpha  occ. eigenvalues --   -6.95382  -6.95259  -6.95259  -0.74683  -0.58589
 Alpha  occ. eigenvalues --   -0.52936  -0.30681  -0.30679  -0.29827  -0.21057
 Alpha  occ. eigenvalues --   -0.18882  -0.18882  -0.07865  -0.07865  -0.07757
 Alpha virt. eigenvalues --    0.10841   0.14721   0.14721   0.14773   0.16041
 Alpha virt. eigenvalues --    0.17122   0.17122   0.20316   0.21577   0.21577
 Alpha virt. eigenvalues --    0.23768   0.23861   0.23862   0.25767   0.25768
 Alpha virt. eigenvalues --    0.25862   0.31027   0.34134   0.34134   0.34992
 Alpha virt. eigenvalues --    0.34993   0.35485   0.39033   0.43553   0.46887
 Alpha virt. eigenvalues --    0.74123   0.79261   0.79261   0.81683   0.81686
 Alpha virt. eigenvalues --    0.82165   0.85738   0.85739   0.89240   0.96213
 Alpha virt. eigenvalues --    0.98738   1.05211   1.05212   1.12334   1.12334
 Alpha virt. eigenvalues --    1.12826   1.12827   1.13575   1.15720   1.15723
 Alpha virt. eigenvalues --    1.24413   1.25821   1.39359   1.51409   1.56900
 Alpha virt. eigenvalues --    1.56901   1.68220   1.68220   1.74586   1.74587
 Alpha virt. eigenvalues --    1.82427   2.09457   2.10254   2.10255   2.12921
 Alpha virt. eigenvalues --    2.16190   2.16194   2.56170   2.56174   2.65839
 Alpha virt. eigenvalues --    2.77768   2.77772   2.87978   2.92796   2.92805
 Alpha virt. eigenvalues --    3.20010   3.45411   3.56954   3.56961   4.18460
 Alpha virt. eigenvalues --    4.39540   4.55429   4.62121
          Condensed to atoms (all electrons):
               1          2          3          4          5          6
     1  C    5.404264  -0.124590   0.431627   0.431605   0.431606  -0.341584
     2  Cl  -0.124590  17.923927  -0.036050  -0.036078  -0.036078   0.082963
     3  H    0.431627  -0.036050   0.485120  -0.019177  -0.019177  -0.056787
     4  H    0.431605  -0.036078  -0.019177   0.485077  -0.019163  -0.056705
     5  H    0.431606  -0.036078  -0.019177  -0.019163   0.485073  -0.056703
     6  C   -0.341584   0.082963  -0.056787  -0.056705  -0.056703   5.930033
     7  N   -0.062447   0.000883  -0.003984  -0.003994  -0.003994   0.659101
               7
     1  C   -0.062447
     2  Cl   0.000883
     3  H   -0.003984
     4  H   -0.003994
     5  H   -0.003994
     6  C    0.659101
     7  N    6.963962
 Mulliken charges:
               1
     1  C   -0.170480
     2  Cl  -0.774976
     3  H    0.218428
     4  H    0.218435
     5  H    0.218436
     6  C   -0.160317
     7  N   -0.549527
 Sum of Mulliken charges =  -1.00000
 Mulliken charges with hydrogens summed into heavy atoms:
               1
     1  C    0.484820
     2  Cl  -0.774976
     6  C   -0.160317
     7  N   -0.549527
 APT charges:
               1
     1  C    1.017317
     2  Cl  -1.065398
     3  H    0.008407
     4  H    0.008427
     5  H    0.008430
     6  C   -0.428924
     7  N   -0.548260
 Sum of APT charges =  -1.00000
 APT charges with hydrogens summed into heavy atoms:
               1
     1  C    1.042582
     2  Cl  -1.065398
     6  C   -0.428924
     7  N   -0.548260
 Electronic spatial extent (au):  <R**2>=            832.0511
 Charge=             -1.0000 electrons
 Dipole moment (field-independent basis, Debye):
    X=              1.7876    Y=              0.0000    Z=             -0.0010  Tot=              1.7876
 Quadrupole moment (field-independent basis, Debye-Ang):
   XX=            -85.9322   YY=            -35.3673   ZZ=            -35.3679
   XY=              0.0000   XZ=             -0.0002   YZ=              0.0000
 Traceless Quadrupole moment (field-independent basis, Debye-Ang):
   XX=            -33.7097   YY=             16.8551   ZZ=             16.8546
   XY=              0.0000   XZ=             -0.0002   YZ=              0.0000
 Octapole moment (field-independent basis, Debye-Ang**2):
  XXX=            -53.4637  YYY=             -0.0072  ZZZ=             -1.0297  XYY=             -0.0886
  XXY=              0.0002  XXZ=             -0.0068  XZZ=             -0.0886  YZZ=              0.0072
  YYZ=              1.0297  XYZ=              0.0000
 Hexadecapole moment (field-independent basis, Debye-Ang**3):
 XXXX=          -1663.3946 YYYY=            -56.4947 ZZZZ=            -56.4941 XXXY=              0.0006
 XXXZ=             -0.0053 YYYX=             -0.0004 YYYZ=              0.0000 ZZZX=             -0.0438
 ZZZY=             -0.0000 XXYY=           -211.0109 XXZZ=           -211.0108 YYZZ=            -18.8322
 XXYZ=              0.0000 YYXZ=              0.0590 ZZXY=              0.0004
 N-N= 1.077093117442D+02 E-N=-1.625722506174D+03  KE= 5.900948119191D+02
  Exact polarizability: 112.695  -0.000  39.947   0.001  -0.000  39.948
 Approx polarizability: 138.902  -0.000  49.555   0.003   0.000  49.554
 No NMR shielding tensors so no spin-rotation constants.
 Leave Link  601 at Sun Oct 13 09:49:57 2024, MaxMem=  2684354560 cpu:               2.6 elap:               0.1
 (Enter /usr/local/g16_AVX//g16/l701.exe)
 ... and contract with generalized density number  0.
 Compute integral second derivatives.
 Leave Link  701 at Sun Oct 13 09:49:58 2024, MaxMem=  2684354560 cpu:               4.5 elap:               0.2
 (Enter /usr/local/g16_AVX//g16/l702.exe)
 L702 exits ... SP integral derivatives will be done elsewhere.
 Leave Link  702 at Sun Oct 13 09:49:58 2024, MaxMem=  2684354560 cpu:               0.5 elap:               0.1
 (Enter /usr/local/g16_AVX//g16/l703.exe)
 Integral derivatives from FoFJK, PRISM(SPDF).
 Compute integral second derivatives, UseDBF=F ICtDFT=           0.
 Calling FoFJK, ICntrl=    100127 FMM=F ISym2X=0 I1Cent= 0 IOpClX= 0 NMat=1 NMatS=1 NMatT=0.
 FoFJK:  IHMeth= 1 ICntrl=  100127 DoSepK=F KAlg= 0 I1Cent=           0 FoldK=F
 IRaf=         0 NMat=       1 IRICut=       1 DoRegI=T DoRafI=F ISym2E= 0 IDoP0=0 IntGTp=1.
 FoFCou: FMM=F IPFlag=           0 FMFlag=      100000 FMFlg1=         800
         NFxFlg=           0 DoJE=F BraDBF=F KetDBF=F FulRan=T
         wScrn=  0.000000 ICntrl=    100127 IOpCl=  0 I1Cent=           0 NGrid=           0
         NMat0=    1 NMatS0=      1 NMatT0=    0 NMatD0=    1 NMtDS0=    0 NMtDT0=    0
 Symmetry not used in FoFCou.
 Leave Link  703 at Sun Oct 13 09:50:00 2024, MaxMem=  2684354560 cpu:              67.0 elap:               2.6
 (Enter /usr/local/g16_AVX//g16/l716.exe)
 Dipole        = 7.03305927D-01 1.02615911D-05-3.95506881D-04
 Polarizability= 1.12695357D+02-1.40307424D-05 3.99473987D+01
                 5.83566629D-04-1.48023415D-06 3.99475076D+01
 Full mass-weighted force constant matrix:
 Low frequencies --- -454.7832  -39.1997  -39.1533   -0.0045   -0.0041    0.0031
 Low frequencies ---  144.8937  170.6860  170.6997
 ******    1 imaginary frequencies (negative Signs) ****** 
 Diagonal vibrational polarizability:
      120.2385526      20.9012733      20.9068530
 Harmonic frequencies (cm**-1), IR intensities (KM/Mole), Raman scattering
 activities (A**4/AMU), depolarization ratios for plane and unpolarized
 incident light, reduced masses (AMU), force constants (mDyne/A),
 and normal coordinates:
                      1                      2                      3
                      A                      A                      A
 Frequencies --   -454.7832               160.3816               160.4024
 Red. masses --     11.5333                 5.4922                 5.4926
 Frc consts  --      1.4054                 0.0832                 0.0833
 IR Inten    --    824.6986                19.7197                19.7193
  Atom  AN      X      Y      Z        X      Y      Z        X      Y      Z
     1   6     0.84   0.00  -0.00     0.00   0.04   0.45    -0.00   0.45  -0.04
     2  17    -0.06  -0.00   0.00    -0.00  -0.01  -0.12     0.00  -0.12   0.01
     3   1     0.11  -0.00   0.10    -0.05   0.04   0.46     0.00   0.46  -0.04
     4   1     0.11  -0.08  -0.05     0.03   0.04   0.46     0.04   0.46  -0.04
     5   1     0.11   0.09  -0.05     0.02   0.04   0.46    -0.05   0.46  -0.04
     6   6    -0.33  -0.00   0.00    -0.00   0.01   0.18     0.00   0.18  -0.01
     7   7    -0.32   0.00  -0.00     0.00  -0.03  -0.33    -0.00  -0.33   0.03
                      4                      5                      6
                      A                      A                      A
 Frequencies --    236.2403               391.8210               391.8448
 Red. masses --     16.9946                 4.7378                 4.7378
 Frc consts  --      0.5588                 0.4285                 0.4286
 IR Inten    --     24.7577                 1.1060                 1.1067
  Atom  AN      X      Y      Z        X      Y      Z        X      Y      Z
     1   6    -0.32   0.00   0.00    -0.00  -0.01  -0.24     0.00  -0.24   0.01
     2  17     0.51  -0.00  -0.00     0.00   0.00   0.03    -0.00   0.03  -0.00
     3   1    -0.21   0.00  -0.01     0.46  -0.01  -0.34    -0.01  -0.34   0.01
     4   1    -0.21   0.01   0.01    -0.24  -0.01  -0.34    -0.39  -0.34   0.01
     5   1    -0.21  -0.01   0.01    -0.22  -0.01  -0.34     0.41  -0.34   0.01
     6   6    -0.50   0.00  -0.00    -0.00   0.01   0.47     0.00   0.47  -0.01
     7   7    -0.51  -0.00   0.00     0.00  -0.01  -0.21    -0.00  -0.21   0.01
                      7                      8                      9
                      A                      A                      A
 Frequencies --    997.0982               997.1051              1126.3911
 Red. masses --      1.1320                 1.1320                 1.0570
 Frc consts  --      0.6631                 0.6631                 0.7902
 IR Inten    --      0.0110                 0.0110                45.7989
  Atom  AN      X      Y      Z        X      Y      Z        X      Y      Z
     1   6    -0.00  -0.02   0.08     0.00  -0.08  -0.02    -0.04   0.00  -0.00
     2  17     0.00  -0.00   0.00     0.00  -0.00  -0.00    -0.01   0.00   0.00
     3   1     0.77   0.04  -0.05    -0.20   0.15   0.01     0.57   0.00  -0.09
     4   1    -0.21   0.06  -0.14     0.77   0.07  -0.01     0.57   0.08   0.05
     5   1    -0.56  -0.02  -0.11    -0.57   0.09   0.07     0.57  -0.08   0.05
     6   6     0.00   0.02  -0.07    -0.00   0.07   0.02    -0.02   0.00   0.00
     7   7    -0.00  -0.00   0.01     0.00  -0.01  -0.00    -0.04   0.00  -0.00
                     10                     11                     12
                      A                      A                      A
 Frequencies --   1419.5114              1419.5395              2152.8144
 Red. masses --      1.0825                 1.0825                12.5598
 Frc consts  --      1.2852                 1.2852                34.2962
 IR Inten    --      5.7698                 5.7697                 2.8388
  Atom  AN      X      Y      Z        X      Y      Z        X      Y      Z
     1   6    -0.00  -0.00  -0.08    -0.00  -0.08   0.00     0.01   0.00  -0.00
     2  17     0.00   0.00   0.00    -0.00   0.00  -0.00    -0.00  -0.00   0.00
     3   1     0.20   0.00  -0.10    -0.00   0.78   0.00    -0.08  -0.00   0.03
     4   1    -0.10  -0.38   0.56    -0.18   0.12  -0.38    -0.08  -0.02  -0.01
     5   1    -0.10   0.38   0.56     0.18   0.12   0.38    -0.08   0.02  -0.01
     6   6     0.00  -0.00  -0.01    -0.00  -0.01   0.00     0.76  -0.00   0.00
     7   7    -0.00   0.00   0.00     0.00   0.00  -0.00    -0.64   0.00  -0.00
                     13                     14                     15
                      A                      A                      A
 Frequencies --   3169.2109              3345.1136              3345.1688
 Red. masses --      1.0123                 1.1204                 1.1204
 Frc consts  --      5.9906                 7.3865                 7.3868
 IR Inten    --      2.8446                 1.8657                 1.8705
  Atom  AN      X      Y      Z        X      Y      Z        X      Y      Z
     1   6    -0.02   0.00  -0.00    -0.00  -0.00  -0.10    -0.00  -0.10   0.00
     2  17    -0.00  -0.00  -0.00    -0.00   0.00   0.00     0.00   0.00  -0.00
     3   1     0.09  -0.00   0.57     0.13  -0.00   0.80    -0.00  -0.02  -0.01
     4   1     0.09  -0.49  -0.29    -0.07   0.36   0.19    -0.11   0.59   0.35
     5   1     0.09   0.49  -0.28    -0.07  -0.35   0.18     0.12   0.60  -0.35
     6   6    -0.00   0.00  -0.00     0.00   0.00   0.00     0.00   0.00  -0.00
     7   7     0.00   0.00  -0.00    -0.00  -0.00  -0.00     0.00  -0.00   0.00

 -------------------
 - Thermochemistry -
 -------------------
 Temperature   298.150 Kelvin.  Pressure   1.00000 Atm.
 Atom     1 has atomic number  6 and mass  12.00000
 Atom     2 has atomic number 17 and mass  34.96885
 Atom     3 has atomic number  1 and mass   1.00783
 Atom     4 has atomic number  1 and mass   1.00783
 Atom     5 has atomic number  1 and mass   1.00783
 Atom     6 has atomic number  6 and mass  12.00000
 Atom     7 has atomic number  7 and mass  14.00307
 Molecular mass:    75.99540 amu.
 Principal axes and moments of inertia in atomic units:
                           1         2         3
     Eigenvalues --    12.224491430.359011430.35990
           X            1.00000   0.00000   0.00002
           Y            0.00000   0.99993  -0.01185
           Z           -0.00002   0.01185   0.99993
 This molecule is an asymmetric top.
 Rotational symmetry number  1.
 Rotational temperatures (Kelvin)      7.08528     0.06055     0.06055
 Rotational constants (GHZ):         147.63320     1.26174     1.26174
    1 imaginary frequencies ignored.
 Zero-point vibrational energy     115515.3 (Joules/Mol)
                                   27.60881 (Kcal/Mol)
 Warning -- explicit consideration of   5 degrees of freedom as
           vibrations may cause significant error
 Vibrational temperatures:    230.75   230.78   339.90   563.74   563.78
          (Kelvin)           1434.60  1434.61  1620.63  2042.36  2042.40
                             3097.42  4559.79  4812.87  4812.95
 
 Zero-point correction=                           0.043997 (Hartree/Particle)
 Thermal correction to Energy=                    0.049333
 Thermal correction to Enthalpy=                  0.050277
 Thermal correction to Gibbs Free Energy=         0.015680
 Sum of electronic and zero-point Energies=           -592.962847
 Sum of electronic and thermal Energies=              -592.957511
 Sum of electronic and thermal Enthalpies=            -592.956567
 Sum of electronic and thermal Free Energies=         -592.991164
 
                     E (Thermal)             CV                S
                      KCal/Mol        Cal/Mol-Kelvin    Cal/Mol-Kelvin
 Total                   30.957             15.728             72.815
 Electronic               0.000              0.000              0.000
 Translational            0.889              2.981             38.900
 Rotational               0.889              2.981             24.729
 Vibrational             29.179              9.766              9.187
 Vibration     1          0.622              1.891              2.545
 Vibration     2          0.622              1.891              2.545
 Vibration     3          0.655              1.785              1.831
 Vibration     4          0.759              1.488              0.993
 Vibration     5          0.759              1.488              0.993
                       Q            Log10(Q)             Ln(Q)
 Total Bot       0.613269D-07         -7.212349        -16.607047
 Total V=0       0.105938D+14         13.025050         29.991286
 Vib (Bot)       0.416016D-19        -19.380890        -44.626148
 Vib (Bot)    1  0.126038D+01          0.100501          0.231412
 Vib (Bot)    2  0.126021D+01          0.100442          0.231276
 Vib (Bot)    3  0.831417D+00         -0.080181         -0.184624
 Vib (Bot)    4  0.457598D+00         -0.339516         -0.781764
 Vib (Bot)    5  0.457562D+00         -0.339550         -0.781842
 Vib (V=0)       0.718636D+01          0.856509          1.972185
 Vib (V=0)    1  0.185593D+01          0.268562          0.618388
 Vib (V=0)    2  0.185577D+01          0.268525          0.618302
 Vib (V=0)    3  0.147018D+01          0.167371          0.385387
 Vib (V=0)    4  0.117779D+01          0.071067          0.163638
 Vib (V=0)    5  0.117776D+01          0.071058          0.163617
 Electronic      0.100000D+01          0.000000          0.000000
 Translational   0.260396D+08          7.415635         17.075130
 Rotational      0.566117D+05          4.752906         10.943971
 
                                                      RxCoord=-2.09951 DE=40.22
                                                             IR Spectrum
 
      3     3                                      2                           1          1                                          
      3     1                                      1                           4          1    9                      3     2 1      
      4     6                                      5                           2          2    9                      9     3 6      
      5     9                                      3                           0          6    7                      2     6 0      
 
      X     X                                      X                           X          X                           X     X X      
      X                                                                        X          X                                 X X      
                                                                               X          X                                 X X      
                                                                               X          X                                 X X      
                                                                               X          X                                 X X      
                                                                                          X                                 X X      
                                                                                          X                                 X X      
                                                                                          X                                 X X      
                                                                                          X                                 X X      
                                                                                          X                                 X X      
                                                                                          X                                 X X      
                                                                                          X                                   X      
                                                                                          X                                   X      
                                                                                          X                                   X      
                                                                                          X                                   X      
                                                                                          X                                   X      
                                                                                          X                                   X      
                                                                                          X                                          
                                                                                          X                                          
                                                                                          X                                          
 
 -------------------------------------------------------------------
 Center     Atomic                   Forces (Hartrees/Bohr)
 Number     Number              X              Y              Z
 -------------------------------------------------------------------
      1        6           0.057404213    0.000000249   -0.000012400
      2       17          -0.017489897    0.000000054    0.000003119
      3        1          -0.000052890   -0.000003543    0.001598381
      4        1          -0.000052163   -0.001391369   -0.000798445
      5        1          -0.000051035    0.001394972   -0.000791644
      6        6          -0.017183964   -0.000000708    0.000012218
      7        7          -0.022574264    0.000000345   -0.000011229
 -------------------------------------------------------------------
 Cartesian Forces:  Max     0.057404213 RMS     0.014497513
 Z-matrix is all fixed cartesians, so copy forces.
 Force constants in Cartesian coordinates: 
                1             2             3             4             5 
      1 -0.331306D-01
      2  0.387721D-05  0.670046D+00
      3  0.202268D-04  0.000000D+00  0.669973D+00
      4  0.163635D-01  0.000000D+00 -0.192192D-05  0.443143D-01
      5  0.000000D+00 -0.528606D-02  0.000000D+00  0.000000D+00  0.170784D-03
      6 -0.672388D-05  0.000000D+00 -0.528409D-02  0.137872D-05  0.000000D+00
      7 -0.225936D-01  0.122751D-03 -0.527907D-01 -0.116802D-01 -0.780563D-05
      8  0.117058D-03 -0.506391D-01  0.727314D-03  0.292870D-05 -0.393191D-03
      9 -0.504485D-01  0.727314D-03 -0.363479D+00 -0.132611D-02 -0.495914D-05
     10 -0.225833D-01  0.456555D-01  0.264949D-01 -0.116886D-01 -0.280872D-02
     11  0.436280D-01 -0.284666D+00 -0.135827D+00  0.114480D-02  0.126204D-02
     12  0.253205D-01 -0.135825D+00 -0.129470D+00  0.664969D-03  0.964155D-03
     13 -0.225843D-01 -0.457822D-01  0.262845D-01 -0.116894D-01  0.281664D-02
     14 -0.437496D-01 -0.285925D+00  0.135100D+00 -0.114726D-02  0.127035D-02
     15  0.251193D-01  0.135097D+00 -0.128210D+00  0.659702D-03 -0.958899D-03
     16  0.568391D-01  0.000000D+00  0.100504D-05 -0.186666D-01  0.000000D+00
     17  0.000000D+00 -0.537293D-01  0.000000D+00  0.000000D+00  0.369091D-02
     18 -0.204678D-04  0.000000D+00 -0.537283D-01  0.638497D-05  0.000000D+00
     19  0.276892D-01  0.000000D+00 -0.802546D-05 -0.695295D-02  0.000000D+00
     20  0.000000D+00  0.101990D-01  0.000000D+00  0.000000D+00 -0.714833D-03
     21  0.156919D-04  0.000000D+00  0.101992D-01 -0.440366D-05  0.000000D+00
                6             7             8             9            10 
      6  0.167265D-03
      7  0.324772D-02  0.493655D-01
      8 -0.494381D-05 -0.126232D-03  0.450129D-01
      9  0.181798D-02  0.544313D-01 -0.760419D-03  0.371954D+00
     10 -0.162999D-02  0.223841D-02 -0.542728D-02 -0.232131D-02  0.493663D-01
     11  0.964260D-03 -0.730388D-03  0.360085D-02  0.363370D-02 -0.470734D-01
     12  0.166049D-03  0.585832D-02 -0.234471D-01 -0.796197D-02 -0.273200D-01
     13 -0.161679D-02  0.223859D-02  0.543793D-02 -0.229617D-02  0.223866D-02
     14 -0.959027D-03  0.703021D-03  0.350831D-02 -0.358023D-02 -0.470912D-02
     15  0.157070D-03  0.586185D-02  0.235004D-01 -0.786963D-02 -0.356096D-02
     16  0.320990D-05 -0.170925D-01 -0.103546D-05  0.501812D-03 -0.170975D-01
     17  0.000000D+00  0.443733D-04 -0.154160D-02 -0.204323D-04  0.165026D-01
     18  0.369048D-02 -0.190812D-01 -0.203167D-04  0.725483D-02  0.958076D-02
     19  0.119386D-05 -0.247617D-02 -0.336590D-05  0.145901D-02 -0.247389D-02
     20  0.000000D+00 -0.571904D-05  0.451864D-03  0.502551D-05 -0.213956D-02
     21 -0.714758D-03  0.247277D-02  0.502481D-05 -0.171601D-02 -0.124341D-02
               11            12            13            14            15 
     11  0.289579D+00
     12  0.141944D+00  0.127395D+00
     13  0.472549D-02 -0.353893D-02  0.493674D-01
     14 -0.136447D-01  0.134859D-01  0.472034D-01  0.290896D+00
     15 -0.135925D-01  0.928983D-02 -0.271029D-01 -0.141184D+00  0.126078D+00
     16 -0.433276D-03 -0.252584D-03 -0.170973D-01  0.434825D-03 -0.250661D-03
     17  0.503827D-02  0.381910D-02 -0.165466D-01  0.507397D-02 -0.379874D-02
     18  0.381919D-02  0.676073D-03  0.950371D-02 -0.379893D-02  0.640603D-03
     19 -0.126125D-02 -0.732213D-03 -0.247371D-02  0.126469D-02 -0.726337D-03
     20 -0.116999D-02 -0.941315D-03  0.214530D-02 -0.117878D-02  0.936293D-03
     21 -0.941857D-03 -0.950226D-04 -0.123339D-02  0.936835D-03 -0.862732D-04
               16            17            18            19            20 
     16  0.114391D+01
     17 -0.958383D-05  0.663951D-01
     18  0.346989D-03  0.000000D+00  0.663938D-01
     19 -0.113079D+01  0.888253D-05 -0.336147D-03  0.111748D+01
     20  0.933445D-05 -0.249274D-01  0.000000D+00 -0.909448D-05  0.173402D-01
     21 -0.349771D-03  0.000000D+00 -0.249274D-01  0.342521D-03  0.000000D+00
               21 
     21  0.173403D-01
 Leave Link  716 at Sun Oct 13 09:50:00 2024, MaxMem=  2684354560 cpu:               0.8 elap:               0.1
 (Enter /usr/local/g16_AVX//g16/l103.exe)

 GradGradGradGradGradGradGradGradGradGradGradGradGradGradGradGradGradGrad
 Berny optimization.
 Search for a local minimum.
 Step number   1 out of a maximum of    2
 All quantities printed in internal units (Hartrees-Bohrs-Radians)
 Second derivative matrix not updated -- analytic derivatives used.
 ITU=  0
     Eigenvalues ---   -0.09367   0.00611   0.00611   0.02625   0.02625
     Eigenvalues ---    0.04779   0.06804   0.08741   0.08741   0.11400
     Eigenvalues ---    0.11400   0.39947   0.97102   0.97111   2.26107
 Eigenvalue     1 is  -9.37D-02 should be greater than     0.000000 Eigenvector:
                          X1        X6        X7        X2        Z3
   1                    0.84519  -0.35103  -0.34492  -0.11114   0.08665
                          Y5        Y4        X3        X4        X5
   1                    0.07518  -0.07497   0.05354   0.05343   0.05343
 Quadratic step=7.189D-01 exceeds max=3.000D-01 adjusted using Lamda=-1.261D-01.
 Angle between NR and scaled steps=   5.24 degrees.
 Angle between quadratic step and forces=   7.39 degrees.
 Linear search not attempted -- first point.
 B after Tr=    -0.009261    0.000000   -0.000003
         Rot=    1.000000    0.000000    0.000000    0.000000 Ang=   0.00 deg.
 Variable       Old X    -DE/DX   Delta X   Delta X   Delta X     New X
                                 (Linear)    (Quad)   (Total)
    X1        0.56784   0.05740   0.00000   0.26927   0.26001   0.82785
    Y1        0.00001   0.00000   0.00000  -0.00000  -0.00000   0.00001
    Z1       -0.00045  -0.00001   0.00000  -0.00003  -0.00003  -0.00049
    X2       -4.23615  -0.01749   0.00000  -0.07070  -0.07996  -4.31611
    Y2       -0.00000   0.00000   0.00000   0.00000   0.00000  -0.00000
    Z2        0.00021   0.00000   0.00000   0.00001   0.00000   0.00021
    X3        0.22630  -0.00005   0.00000   0.00589  -0.00337   0.22293
    Y3        0.00469  -0.00000   0.00000  -0.00005  -0.00005   0.00464
    Z3       -2.01122   0.00160   0.00000   0.02032   0.02032  -1.99090
    X4        0.22632  -0.00005   0.00000   0.00590  -0.00336   0.22296
    Y4        1.73911  -0.00139   0.00000  -0.01763  -0.01763   1.72149
    Z4        1.00887  -0.00080   0.00000  -0.01019  -0.01019   0.99868
    X5        0.22629  -0.00005   0.00000   0.00591  -0.00336   0.22294
    Y5       -1.74376   0.00139   0.00000   0.01767   0.01767  -1.72609
    Z5        1.00077  -0.00079   0.00000  -0.01010  -0.01011   0.99066
    X6        4.20815  -0.01718   0.00000  -0.07590  -0.08516   4.12298
    Y6        0.00001  -0.00000   0.00000  -0.00000  -0.00000   0.00000
    Z6       -0.00039   0.00001   0.00000   0.00005   0.00005  -0.00034
    X7        6.43695  -0.02257   0.00000  -0.07553  -0.08479   6.35215
    Y7       -0.00001   0.00000   0.00000   0.00000   0.00000  -0.00001
    Z7        0.00032  -0.00001   0.00000  -0.00004  -0.00004   0.00027
         Item               Value     Threshold  Converged?
 Maximum Force            0.057404     0.000450     NO 
 RMS     Force            0.014498     0.000300     NO 
 Maximum Displacement     0.260010     0.001800     NO 
 RMS     Displacement     0.065362     0.001200     NO 
 Predicted change in Energy=-2.371058D-02
 GradGradGradGradGradGradGradGradGradGradGradGradGradGradGradGradGradGrad

 Leave Link  103 at Sun Oct 13 09:50:00 2024, MaxMem=  2684354560 cpu:               0.6 elap:               0.1
 (Enter /usr/local/g16_AVX//g16/l9999.exe)

 ----------------------------------------------------------------------

 Electric dipole moment (input orientation):
 (Debye = 10**-18 statcoulomb cm , SI units = C m)
                  (au)            (Debye)         (10**-30 SI)
   Tot        0.703306D+00      0.178763D+01      0.596288D+01
   x          0.703306D+00      0.178763D+01      0.596288D+01
   y          0.102616D-04      0.260824D-04      0.870014D-04
   z         -0.395507D-03     -0.100528D-02     -0.335325D-02

 Dipole polarizability, Alpha (input orientation).
 (esu units = cm**3 , SI units = C**2 m**2 J**-1)
 Alpha(0;0):
               (au)            (10**-24 esu)      (10**-40 SI)
   iso        0.641968D+02      0.951298D+01      0.105846D+02
   aniso      0.727479D+02      0.107801D+02      0.119945D+02
   xx         0.112695D+03      0.166997D+02      0.185810D+02
   yx        -0.140307D-04     -0.207914D-05     -0.231336D-05
   yy         0.399474D+02      0.591959D+01      0.658644D+01
   zx         0.583567D-03      0.864757D-04      0.962171D-04
   zy         0.000000D+00      0.000000D+00      0.000000D+00
   zz         0.399475D+02      0.591961D+01      0.658645D+01

 ----------------------------------------------------------------------

 Dipole orientation:
     6          0.00013421          0.00000494          0.56784208
    17          0.00217434          0.00005806         -4.23614559
     1          2.01108897          0.00471634          0.22743520
     1         -1.00902248          1.73909504          0.22577916
     1         -1.00086847         -1.74377591          0.22570266
     6         -0.00197529         -0.00005387          4.20814751
     7         -0.00393731         -0.00010531          6.43694456

 Electric dipole moment (dipole orientation):
 (Debye = 10**-18 statcoulomb cm , SI units = C m)
                  (au)            (Debye)         (10**-30 SI)
   Tot        0.703306D+00      0.178763D+01      0.596288D+01
   x          0.000000D+00      0.000000D+00      0.000000D+00
   y          0.000000D+00      0.000000D+00      0.000000D+00
   z          0.703306D+00      0.178763D+01      0.596288D+01

 Dipole polarizability, Alpha (dipole orientation).
 (esu units = cm**3 , SI units = C**2 m**2 J**-1)
 Alpha(0;0):
               (au)            (10**-24 esu)      (10**-40 SI)
   iso        0.641968D+02      0.951298D+01      0.105846D+02
   aniso      0.727479D+02      0.107801D+02      0.119945D+02
   xx         0.399475D+02      0.591961D+01      0.658646D+01
   yx         0.000000D+00      0.000000D+00      0.000000D+00
   yy         0.399474D+02      0.591959D+01      0.658644D+01
   zx        -0.414936D-01     -0.614871D-02     -0.684137D-02
   zy        -0.107606D-02     -0.159456D-03     -0.177419D-03
   zz         0.112695D+03      0.166997D+02      0.185810D+02

 ----------------------------------------------------------------------
 1\1\GINC-NODO6\Freq\RB3LYP\6-31++G(d,p)\C2H3Cl1N1(1-)\ALANQF\13-Oct-20
 24\0\\#p b3lyp 6-31++g(d,p) scf=verytight NoSymm freq=noraman int=ultr
 afine\\RxCoord=-2.09951 DE=40.22\\-1,1\C,0.300489,0.000007,-0.00024\Cl
 ,-2.241672,-0.000002,0.00011\H,0.119755,0.002482,-1.06429\H,0.119764,0
 .920299,0.533871\H,0.119748,-0.922757,0.529583\C,2.226856,0.000004,-0.
 000207\N,3.406285,-0.000006,0.000168\\Version=ES64L-G16RevB.01\HF=-593
 .006844\RMSD=4.145e-09\RMSF=1.450e-02\ZeroPoint=0.0439974\Thermal=0.04
 93328\Dipole=0.7643057,0.0000109,-0.0004184\DipoleDeriv=2.8580966,0.00
 00021,-0.000144,-0.0000049,0.096897,0.0000006,-0.0001087,0.0000005,0.0
 969568,-1.5852706,0.,0.0000387,-0.0000018,-0.8054603,0.,0.0000839,0.,-
 0.8054621,-0.0983068,-0.0000325,0.0139194,-0.0000352,0.0774573,0.00007
 29,0.0158573,0.0000732,0.0460708,-0.0982928,-0.0120363,-0.0069815,-0.0
 137597,0.0540194,-0.0136048,-0.0079827,-0.0135985,0.0695553,-0.0982848
 ,0.0120678,-0.0069247,0.0138039,0.053894,0.0135314,-0.0079209,0.013524
 9,0.0696819,-1.0880509,0.0000008,0.0000102,-0.0000112,-0.0993618,-0.00
 00002,0.0004078,-0.0000002,-0.0993603,-0.8898907,-0.0000019,0.0000819,
 0.0000089,-0.3774455,0.,-0.0003368,0.,-0.3774424\Polar=112.6953575,-0.
 000014,39.9473987,0.0005836,-0.0000015,39.9475076\Quadrupole=-25.06232
 85,12.5313614,12.5309671,0.0000316,-0.0001239,0.0000022\PG=C01 [X(C2H3
 Cl1N1)]\NImag=1\\-0.03313056,0.00000388,0.67004645,0.00002023,0.000000
 42,0.66997256,0.01636345,0.00000005,-0.00000192,0.04431427,0.00000046,
 -0.00528606,0.,-0.00000042,0.00017078,-0.00000672,0.00000001,-0.005284
 09,0.00000138,-0.00000029,0.00016727,-0.02259358,0.00012275,-0.0527907
 0,-0.01168024,-0.00000781,0.00324772,0.04936552,0.00011706,-0.05063913
 ,0.00072731,0.00000293,-0.00039319,-0.00000494,-0.00012623,0.04501289,
 -0.05044849,0.00072731,-0.36347933,-0.00132611,-0.00000496,0.00181798,
 0.05443126,-0.00076042,0.37195413,-0.02258330,0.04565545,0.02649495,-0
 .01168861,-0.00280872,-0.00162999,0.00223841,-0.00542728,-0.00232131,0
 .04936626,0.04362804,-0.28466596,-0.13582727,0.00114480,0.00126204,0.0
 0096426,-0.00073039,0.00360085,0.00363370,-0.04707341,0.28957945,0.025
 32048,-0.13582521,-0.12947015,0.00066497,0.00096415,0.00016605,0.00585
 832,-0.02344705,-0.00796197,-0.02732004,0.14194446,0.12739519,-0.02258
 431,-0.04578217,0.02628447,-0.01168936,0.00281664,-0.00161679,0.002238
 59,0.00543793,-0.00229617,0.00223866,0.00472549,-0.00353893,0.04936741
 ,-0.04374956,-0.28592498,0.13509950,-0.00114726,0.00127035,-0.00095903
 ,0.00070302,0.00350831,-0.00358023,-0.00470912,-0.01364466,0.01348586,
 0.04720342,0.29089579,0.02511929,0.13509745,-0.12820984,0.00065970,-0.
 00095890,0.00015707,0.00586185,0.02350039,-0.00786963,-0.00356096,-0.0
 1359249,0.00928983,-0.02710289,-0.14118401,0.12607825,0.05683913,-0.00
 000014,0.00000101,-0.01866657,-0.00000012,0.00000321,-0.01709254,-0.00
 000104,0.00050181,-0.01709753,-0.00043328,-0.00025258,-0.01709729,0.00
 043482,-0.00025066,1.14390707,0.00000052,-0.05372930,0.00000002,-0.000
 00022,0.00369091,-0.00000001,0.00004437,-0.00154160,-0.00002043,0.0165
 0263,0.00503827,0.00381910,-0.01654660,0.00507397,-0.00379874,-0.00000
 958,0.06639515,-0.00002047,0.,-0.05372834,0.00000638,-0.00000001,0.003
 69048,-0.01908122,-0.00002032,0.00725483,0.00958076,0.00381919,0.00067
 607,0.00950371,-0.00379893,0.00064060,0.00034699,0.00000007,0.06639378
 ,0.02768916,0.00000018,-0.00000803,-0.00695295,-0.00000004,0.00000119,
 -0.00247617,-0.00000337,0.00145901,-0.00247389,-0.00126125,-0.00073221
 ,-0.00247371,0.00126469,-0.00072634,-1.13079227,0.00000888,-0.00033615
 ,1.11747982,-0.00000039,0.01019896,0.,0.00000013,-0.00071483,0.,-0.000
 00572,0.00045186,0.00000503,-0.00213956,-0.00116999,-0.00094132,0.0021
 4530,-0.00117878,0.00093629,0.00000933,-0.02492740,0.,-0.00000909,0.01
 734017,0.00001569,0.,0.01019919,-0.00000440,0.,-0.00071476,0.00247277,
 0.00000502,-0.00171601,-0.00124341,-0.00094186,-0.00009502,-0.00123339
 ,0.00093684,-0.00008627,-0.00034977,0.,-0.02492742,0.00034252,0.,0.017
 34030\\-0.05740421,-0.00000025,0.00001240,0.01748990,-0.00000005,-0.00
 000312,0.00005289,0.00000354,-0.00159838,0.00005216,0.00139137,0.00079
 845,0.00005104,-0.00139497,0.00079164,0.01718396,0.00000071,-0.0000122
 2,0.02257426,-0.00000035,0.00001123\\\@


 "WHERE SHALL I START, PLEASE YOUR MAJESTY?" HE ASKED.
 "BEGIN AT THE BEGINNING," THE KING SAID GRAVELY,
 "AND GO ON TILL YOU COME TO THE END: THEN STOP." 

                                      -- LEWIS CARROLL
 Job cpu time:       0 days  0 hours  3 minutes 52.2 seconds.
 Elapsed time:       0 days  0 hours  0 minutes 10.0 seconds.
 File lengths (MBytes):  RWF=     88 Int=      0 D2E=      0 Chk=      2 Scr=      2
 Normal termination of Gaussian 16 at Sun Oct 13 09:50:01 2024.
