RxCoord=-1.99953 DE=41.60                                               
Freq      RB3LYP                                                      6-31++G(d,p)        
Number of atoms                            I                7
Info1-9                                    I   N=           9
          16          16           0           0           0         100
           6          18        -502
Full Title                                 C   N=           3
RxCoord=-1.99953 DE=41.60           
Route                                      C   N=           6
#p b3lyp 6-31++g(d,p) scf=verytight NoSymm freq=noraman int=
ultrafine   
Charge                                     I               -1
Multiplicity                               I                1
Number of electrons                        I               40
Number of alpha electrons                  I               20
Number of beta electrons                   I               20
Number of basis functions                  I               98
Number of independent functions            I               98
Number of point charges in /Mol/           I                0
Number of translation vectors              I                0
Atomic numbers                             I   N=           7
           6          17           1           1           1           6
           7
Nuclear charges                            R   N=           7
  6.00000000E+00  1.70000000E+01  1.00000000E+00  1.00000000E+00  1.00000000E+00
  6.00000000E+00  7.00000000E+00
Current cartesian coordinates              R   N=          21
  5.42279588E-01  1.32280829E-05 -4.53534270E-04 -4.23323407E+00 -3.77945225E-06
  2.09759600E-04  2.22666429E-01  4.69785915E-03 -2.01401152E+00  2.22679657E-01
  1.74153380E+00  1.01027026E+00  2.22649422E-01 -1.74618820E+00  1.00215389E+00
  4.21660448E+00  7.55890450E-06 -3.96842486E-04  6.44511882E+00 -1.13383567E-05
  3.21253441E-04
Number of symbols in /Mol/                 I                0
Force Field                                I                0
Atom Types                                 C   N=           7
                                                            
                        
Int Atom Types                             I   N=           7
           0           0           0           0           0           0
           0
MM charges                                 R   N=           7
  0.00000000E+00  0.00000000E+00  0.00000000E+00  0.00000000E+00  0.00000000E+00
  0.00000000E+00  0.00000000E+00
Integer atomic weights                     I   N=           7
          12          35           1           1           1          12
          14
Real atomic weights                        R   N=           7
  1.20000000E+01  3.49688527E+01  1.00782504E+00  1.00782504E+00  1.00782504E+00
  1.20000000E+01  1.40030740E+01
Atom fragment info                         I   N=           7
           0           0           0           0           0           0
           0
Atom residue num                           I   N=           7
           0           0           0           0           0           0
           0
Nuclear spins                              I   N=           7
           0           3           1           1           1           0
           2
Nuclear ZEff                               R   N=           7
 -3.60000000E+00 -1.42400000E+01 -1.00000000E+00 -1.00000000E+00 -1.00000000E+00
 -3.60000000E+00 -4.55000000E+00
Nuclear ZNuc                               R   N=           7
  6.00000000E+00  1.70000000E+01  1.00000000E+00  1.00000000E+00  1.00000000E+00
  6.00000000E+00  7.00000000E+00
Nuclear QMom                               R   N=           7
  0.00000000E+00 -8.16500000E+00  0.00000000E+00  0.00000000E+00  0.00000000E+00
  0.00000000E+00  2.04400000E+00
Nuclear GFac                               R   N=           7
  0.00000000E+00  8.21874000E-01  2.79284600E+00  2.79284600E+00  2.79284600E+00
  0.00000000E+00  4.03761000E-01
MicOpt                                     I   N=           7
          -1          -1          -1          -1          -1          -1
          -1
Number of residues                         I                0
Number of secondary structures             I                0
Number of contracted shells                I               33
Number of primitive shells                 I               72
Pure/Cartesian d shells                    I                1
Pure/Cartesian f shells                    I                0
Highest angular momentum                   I                2
Largest degree of contraction              I                6
Shell types                                I   N=          33
           0          -1          -1          -1           2           0
          -1          -1          -1          -1           2           0
           0           0           1           0           0           0
           1           0           0           0           1           0
          -1          -1          -1           2           0          -1
          -1          -1           2
Number of primitives per shell             I   N=          33
           6           3           1           1           1           6
           6           3           1           1           1           3
           1           1           1           3           1           1
           1           3           1           1           1           6
           3           1           1           1           6           3
           1           1           1
Shell to atom map                          I   N=          33
           1           1           1           1           1           2
           2           2           2           2           2           3
           3           3           3           4           4           4
           4           5           5           5           5           6
           6           6           6           6           7           7
           7           7           7
Primitive exponents                        R   N=          72
  3.04752488E+03  4.57369518E+02  1.03948685E+02  2.92101553E+01  9.28666296E+00
  3.16392696E+00  7.86827235E+00  1.88128854E+00  5.44249258E-01  1.68714478E-01
  4.38000000E-02  8.00000000E-01  2.51801000E+04  3.78035000E+03  8.60474000E+02
  2.42145000E+02  7.73349000E+01  2.62470000E+01  4.91765000E+02  1.16984000E+02
  3.74153000E+01  1.37834000E+01  5.45215000E+00  2.22588000E+00  3.18649000E+00
  1.14427000E+00  4.20377000E-01  1.42657000E-01  4.83000000E-02  7.50000000E-01
  1.87311370E+01  2.82539436E+00  6.40121692E-01  1.61277759E-01  3.60000000E-02
  1.10000000E+00  1.87311370E+01  2.82539436E+00  6.40121692E-01  1.61277759E-01
  3.60000000E-02  1.10000000E+00  1.87311370E+01  2.82539436E+00  6.40121692E-01
  1.61277759E-01  3.60000000E-02  1.10000000E+00  3.04752488E+03  4.57369518E+02
  1.03948685E+02  2.92101553E+01  9.28666296E+00  3.16392696E+00  7.86827235E+00
  1.88128854E+00  5.44249258E-01  1.68714478E-01  4.38000000E-02  8.00000000E-01
  4.17351146E+03  6.27457911E+02  1.42902093E+02  4.02343293E+01  1.28202129E+01
  4.39043701E+00  1.16263619E+01  2.71627981E+00  7.72218397E-01  2.12031498E-01
  6.39000000E-02  8.00000000E-01
Contraction coefficients                   R   N=          72
  1.83473713E-03  1.40373228E-02  6.88426223E-02  2.32184443E-01  4.67941348E-01
  3.62311985E-01 -1.19332420E-01 -1.60854152E-01  1.14345644E+00  1.00000000E+00
  1.00000000E+00  1.00000000E+00  1.83295985E-03  1.40341988E-02  6.90973943E-02
  2.37451980E-01  4.83033960E-01  3.39855972E-01 -2.29739142E-03 -3.07137189E-02
 -1.12528069E-01  4.50163278E-02  5.89353363E-01  4.65206287E-01 -2.51828028E-01
  6.15892514E-02  1.06018433E+00  1.00000000E+00  1.00000000E+00  1.00000000E+00
  3.34946043E-02  2.34726953E-01  8.13757326E-01  1.00000000E+00  1.00000000E+00
  1.00000000E+00  3.34946043E-02  2.34726953E-01  8.13757326E-01  1.00000000E+00
  1.00000000E+00  1.00000000E+00  3.34946043E-02  2.34726953E-01  8.13757326E-01
  1.00000000E+00  1.00000000E+00  1.00000000E+00  1.83473713E-03  1.40373228E-02
  6.88426223E-02  2.32184443E-01  4.67941348E-01  3.62311985E-01 -1.19332420E-01
 -1.60854152E-01  1.14345644E+00  1.00000000E+00  1.00000000E+00  1.00000000E+00
  1.83477216E-03  1.39946270E-02  6.85865518E-02  2.32240873E-01  4.69069948E-01
  3.60455199E-01 -1.14961182E-01 -1.69117479E-01  1.14585195E+00  1.00000000E+00
  1.00000000E+00  1.00000000E+00
P(S=P) Contraction coefficients            R   N=          72
  0.00000000E+00  0.00000000E+00  0.00000000E+00  0.00000000E+00  0.00000000E+00
  0.00000000E+00  6.89990666E-02  3.16423961E-01  7.44308291E-01  1.00000000E+00
  1.00000000E+00  0.00000000E+00  0.00000000E+00  0.00000000E+00  0.00000000E+00
  0.00000000E+00  0.00000000E+00  0.00000000E+00  3.98940088E-03  3.03177067E-02
  1.29880029E-01  3.27951072E-01  4.53527100E-01  2.52154056E-01 -1.42993147E-02
  3.23572333E-01  7.43507765E-01  1.00000000E+00  1.00000000E+00  0.00000000E+00
  0.00000000E+00  0.00000000E+00  0.00000000E+00  0.00000000E+00  0.00000000E+00
  0.00000000E+00  0.00000000E+00  0.00000000E+00  0.00000000E+00  0.00000000E+00
  0.00000000E+00  0.00000000E+00  0.00000000E+00  0.00000000E+00  0.00000000E+00
  0.00000000E+00  0.00000000E+00  0.00000000E+00  0.00000000E+00  0.00000000E+00
  0.00000000E+00  0.00000000E+00  0.00000000E+00  0.00000000E+00  6.89990666E-02
  3.16423961E-01  7.44308291E-01  1.00000000E+00  1.00000000E+00  0.00000000E+00
  0.00000000E+00  0.00000000E+00  0.00000000E+00  0.00000000E+00  0.00000000E+00
  0.00000000E+00  6.75797439E-02  3.23907296E-01  7.40895140E-01  1.00000000E+00
  1.00000000E+00  0.00000000E+00
Coordinates of each shell                  R   N=          99
  5.42279588E-01  1.32280829E-05 -4.53534270E-04  5.42279588E-01  1.32280829E-05
 -4.53534270E-04  5.42279588E-01  1.32280829E-05 -4.53534270E-04  5.42279588E-01
  1.32280829E-05 -4.53534270E-04  5.42279588E-01  1.32280829E-05 -4.53534270E-04
 -4.23323407E+00 -3.77945225E-06  2.09759600E-04 -4.23323407E+00 -3.77945225E-06
  2.09759600E-04 -4.23323407E+00 -3.77945225E-06  2.09759600E-04 -4.23323407E+00
 -3.77945225E-06  2.09759600E-04 -4.23323407E+00 -3.77945225E-06  2.09759600E-04
 -4.23323407E+00 -3.77945225E-06  2.09759600E-04  2.22666429E-01  4.69785915E-03
 -2.01401152E+00  2.22666429E-01  4.69785915E-03 -2.01401152E+00  2.22666429E-01
  4.69785915E-03 -2.01401152E+00  2.22666429E-01  4.69785915E-03 -2.01401152E+00
  2.22679657E-01  1.74153380E+00  1.01027026E+00  2.22679657E-01  1.74153380E+00
  1.01027026E+00  2.22679657E-01  1.74153380E+00  1.01027026E+00  2.22679657E-01
  1.74153380E+00  1.01027026E+00  2.22649422E-01 -1.74618820E+00  1.00215389E+00
  2.22649422E-01 -1.74618820E+00  1.00215389E+00  2.22649422E-01 -1.74618820E+00
  1.00215389E+00  2.22649422E-01 -1.74618820E+00  1.00215389E+00  4.21660448E+00
  7.55890450E-06 -3.96842486E-04  4.21660448E+00  7.55890450E-06 -3.96842486E-04
  4.21660448E+00  7.55890450E-06 -3.96842486E-04  4.21660448E+00  7.55890450E-06
 -3.96842486E-04  4.21660448E+00  7.55890450E-06 -3.96842486E-04  6.44511882E+00
 -1.13383567E-05  3.21253441E-04  6.44511882E+00 -1.13383567E-05  3.21253441E-04
  6.44511882E+00 -1.13383567E-05  3.21253441E-04  6.44511882E+00 -1.13383567E-05
  3.21253441E-04  6.44511882E+00 -1.13383567E-05  3.21253441E-04
Num ILSW                                   I              100
ILSW                                       I   N=         100
           0           1           0           0           2           0
           0           0           0           0         402          -1
           5           0           0           0           2           0
           0           0           0           0           1           0
           1           1           0           0           0           0
           0           0      100000           0          -1           0
           0           0           0           0           0           0
           0           0           0           1           0           0
           0 -2000000000           1           0           0           0
           0           0           4          52           0           0
           0           0           5           0           0           0
           0           0           0           7           0           1
           0           0           0           0           0           0
           0           0           0           0           0           0
           0           0           0           0           0           0
           0           0           0           0           0           0
           0           0           0           0
Num RLSW                                   I               52
RLSW                                       R   N=          52
  8.00000000E-01  7.20000000E-01  1.00000000E+00  8.10000000E-01  2.00000000E-01
  0.00000000E+00  0.00000000E+00  1.00000000E+00  0.00000000E+00  0.00000000E+00
  0.00000000E+00  0.00000000E+00  1.00000000E+00  0.00000000E+00  0.00000000E+00
  0.00000000E+00  0.00000000E+00  1.00000000E+00  0.00000000E+00  0.00000000E+00
  0.00000000E+00  0.00000000E+00  1.00000000E+00  0.00000000E+00  0.00000000E+00
  0.00000000E+00  0.00000000E+00  1.00000000E+00  0.00000000E+00  0.00000000E+00
  0.00000000E+00  0.00000000E+00  1.00000000E+00  0.00000000E+00  0.00000000E+00
  0.00000000E+00  0.00000000E+00  0.00000000E+00  1.00000000E+00  1.00000000E+00
  0.00000000E+00  1.00000000E+00  0.00000000E+00  0.00000000E+00  0.00000000E+00
  0.00000000E+00  0.00000000E+00  0.00000000E+00  0.00000000E+00  0.00000000E+00
  0.00000000E+00  0.00000000E+00
MxBond                                     I                3
NBond                                      I   N=           7
           3           0           1           1           1           1
           1
IBond                                      I   N=          21
           3           4           5           0           0           0
           1           0           0           1           0           0
           1           0           0           7           0           0
           6           0           0
RBond                                      R   N=          21
  1.00000000E+00  1.00000000E+00  1.00000000E+00  0.00000000E+00  0.00000000E+00
  0.00000000E+00  1.00000000E+00  0.00000000E+00  0.00000000E+00  1.00000000E+00
  0.00000000E+00  0.00000000E+00  1.00000000E+00  0.00000000E+00  0.00000000E+00
  2.00000000E+00  0.00000000E+00  0.00000000E+00  2.00000000E+00  0.00000000E+00
  0.00000000E+00
Virial Ratio                               R      2.004923126247293E+00
SCF Energy                                 R     -5.930050221374430E+02
Total Energy                               R     -5.930050221374430E+02
RMS Force                                  R      1.389528323167424E-02
RMS Density                                R      4.344249055652858E-09
NImag                                      I                1
Job Status                                 I                1
Nuclear derivative order                   I                2
External E-field                           R   N=          35
  0.00000000E+00  0.00000000E+00  0.00000000E+00  0.00000000E+00  0.00000000E+00
  0.00000000E+00  0.00000000E+00  0.00000000E+00  0.00000000E+00  0.00000000E+00
  0.00000000E+00  0.00000000E+00  0.00000000E+00  0.00000000E+00  0.00000000E+00
  0.00000000E+00  0.00000000E+00  0.00000000E+00  0.00000000E+00  0.00000000E+00
  0.00000000E+00  0.00000000E+00  0.00000000E+00  0.00000000E+00  0.00000000E+00
  0.00000000E+00  0.00000000E+00  0.00000000E+00  0.00000000E+00  0.00000000E+00
  0.00000000E+00  0.00000000E+00  0.00000000E+00  0.00000000E+00  0.00000000E+00
IOpCl                                      I                0
IROHF                                      I                0
Alpha Orbital Energies                     R   N=          98
 -1.01282977E+02 -1.41916027E+01 -1.01125566E+01 -1.00785737E+01 -9.19757158E+00
 -6.95614630E+00 -6.95477458E+00 -6.95477453E+00 -7.44351278E-01 -5.86001809E-01
 -5.30581944E-01 -3.07219897E-01 -3.07200893E-01 -2.94942292E-01 -2.07857668E-01
 -1.86670792E-01 -1.86670314E-01 -8.04945810E-02 -8.04941940E-02 -7.94610403E-02
  1.08552180E-01  1.47285580E-01  1.47302289E-01  1.47305088E-01  1.58335243E-01
  1.72952648E-01  1.72956383E-01  2.02601076E-01  2.16461345E-01  2.16462572E-01
  2.38148116E-01  2.38392820E-01  2.38401792E-01  2.57410252E-01  2.57412524E-01
  2.58343430E-01  3.10013176E-01  3.41327953E-01  3.41332180E-01  3.50554855E-01
  3.50561030E-01  3.55459412E-01  3.90229764E-01  4.36488681E-01  4.68123262E-01
  7.42601441E-01  7.93412949E-01  7.93416372E-01  8.15099471E-01  8.15123299E-01
  8.19747109E-01  8.57224573E-01  8.57231573E-01  8.93449561E-01  9.59852354E-01
  9.87048821E-01  1.05283073E+00  1.05283841E+00  1.12340181E+00  1.12340540E+00
  1.12645798E+00  1.12645895E+00  1.13657137E+00  1.15614386E+00  1.15617567E+00
  1.24389618E+00  1.26006612E+00  1.39673722E+00  1.51374692E+00  1.57356246E+00
  1.57357911E+00  1.68475346E+00  1.68475449E+00  1.74362833E+00  1.74363298E+00
  1.82278810E+00  2.09967759E+00  2.10523679E+00  2.10524884E+00  2.12799343E+00
  2.15753359E+00  2.15758303E+00  2.57197997E+00  2.57202256E+00  2.64598312E+00
  2.77831981E+00  2.77835274E+00  2.87617065E+00  2.92206965E+00  2.92216736E+00
  3.20241557E+00  3.45441567E+00  3.57176843E+00  3.57184819E+00  4.18325185E+00
  4.39838250E+00  4.55209340E+00  4.61949445E+00
Alpha MO coefficients                      R   N=        9604
 -4.39108655E-06 -2.59341567E-05  3.09269011E-05  1.79858038E-10 -5.38920305E-09
  4.76607546E-05 -1.83985632E-04 -1.15087680E-09  2.00118545E-08  2.65091039E-04
  3.85624314E-04  1.08765499E-09 -2.45755126E-08 -4.40017350E-06 -8.49154876E-06
 -8.49756483E-06  3.49127622E-10 -3.03843366E-09 -1.51609689E-10  9.95997667E-01
  1.51475365E-02  6.03177431E-06  8.78371224E-12 -1.16505865E-09 -2.10583631E-02
 -4.19324511E-06  1.24156405E-10 -4.80425863E-10  1.89730516E-03 -3.49240278E-05
 -4.93225508E-10  8.87083004E-09 -1.55716914E-04  4.89643079E-05  7.04725222E-10
 -1.89738471E-08  7.50243745E-03  7.52095818E-03  7.52095805E-03 -9.30739373E-11
  2.99861066E-09 -6.74705551E-12 -1.17876601E-05 -5.53575172E-05  7.70535348E-05
  2.77237807E-05  1.78126047E-08 -7.58191314E-06 -1.18063408E-05 -5.53492936E-05
  7.70948335E-05  2.77239127E-05  6.55599365E-06  3.80044642E-06 -1.18083536E-05
 -5.53488808E-05  7.70977543E-05  2.77239312E-05 -6.57356568E-06  3.77007523E-06
 -2.52737404E-06 -7.47544299E-06  4.59943271E-06 -1.22445859E-11 -1.42504344E-09
 -1.65804134E-04 -2.74706528E-04  1.83301142E-09 -5.31842900E-08 -7.38311894E-04
  1.45789287E-04 -3.11788775E-10 -2.10367501E-09 -1.19175314E-05 -3.02621301E-06
 -3.02614256E-06  1.31714146E-10 -7.19810543E-09  1.52469822E-11 -3.90472753E-06
 -1.72963851E-05 -1.68809628E-06 -1.21382606E-11  2.00600344E-09  2.66592855E-04
 -1.20994724E-04  1.21971230E-09 -5.43144092E-08  2.23904813E-04 -5.43127717E-05
  5.19279183E-10 -1.94285625E-08  3.29331948E-06 -9.49898251E-06 -9.49892622E-06
 -1.63680465E-10  7.34042255E-09 -3.59062708E-13 -1.52060534E-05 -9.96969716E-05
 -1.83632417E-05  6.92119507E-11  5.39352301E-09  3.85104616E-04  2.32753096E-04
  1.37570005E-09 -6.86252398E-08  3.71908384E-03  1.65557401E-03  2.00775681E-09
 -1.82780393E-07  4.44929337E-05 -3.58276210E-05 -3.58138909E-05 -1.81562838E-11
 -1.38069256E-09  3.57988067E-10  8.80850812E-09 -4.73173569E-07  1.51474622E-06
 -1.43042847E-12 -4.71397508E-10 -1.65703468E-06 -1.04219526E-05  1.22894720E-11
  2.77513686E-09 -2.82710387E-05  5.20636170E-05 -5.53975745E-12 -1.07522408E-08
  5.56179367E-04  1.39773260E-04  2.45153412E-10  2.37331351E-09  8.89435047E-06
 -4.01252489E-06 -4.01292049E-06 -3.47978015E-11 -8.81612473E-10 -2.23745521E-11
  4.41183841E-06 -1.31522083E-04 -1.18878748E-04 -1.44948250E-05 -1.29319655E-08
  5.51081065E-06  4.42412491E-06 -1.31431001E-04 -1.18971495E-04 -1.44865523E-05
 -4.77547063E-06 -2.76590682E-06  4.42535235E-06 -1.31429279E-04 -1.18974085E-04
 -1.44861138E-05  4.78868930E-06 -2.74401361E-06  8.27189858E-05  2.40622286E-04
 -4.13243484E-04  3.07849445E-09 -1.18069788E-07  1.27391020E-04  1.81771768E-04
  1.48943738E-09 -5.78696229E-08 -1.93013466E-03  2.59125015E-03 -1.24463501E-08
  4.28083367E-07 -8.97850762E-04  6.60857279E-07  6.61140475E-07  8.47207489E-09
 -3.21540274E-07  3.51565860E-11  9.92737340E-01  3.44601942E-02 -1.71511922E-03
  1.54989629E-08 -5.77053778E-07  4.49505867E-03  5.04221373E-04 -5.53331659E-09
  2.01525152E-07 -3.14245957E-03 -2.87215143E-04 -2.15657796E-11  1.35507078E-08
 -7.57103069E-03 -8.36422781E-03 -8.36422796E-03 -7.57389018E-09  2.88512384E-07
  8.08651706E-13  9.93161485E-01  4.95438691E-02  4.49337432E-04  4.48732827E-09
 -1.73846442E-07 -1.87519011E-02 -2.84612790E-03 -8.58586030E-09  7.77501267E-07
  9.87007766E-03  8.84180901E-03  1.53089098E-08  4.62064024E-08 -9.36510659E-03
 -8.38000236E-03 -8.38013839E-03  4.19899058E-09  3.68813121E-08  1.93403491E-09
 -1.59084977E-06 -1.82227972E-06 -1.17672211E-05  4.17432409E-10 -2.07472319E-09
 -7.83153816E-05  1.86061318E-05 -2.82800432E-09  2.18735390E-08  2.27219437E-05
  3.49593920E-04  1.09172743E-08 -1.44329870E-07  4.17231662E-03  1.13417995E-03
  8.49963895E-09 -3.79915349E-07  1.35646385E-04 -1.47651373E-05 -1.47523349E-05
  2.82280108E-09 -5.17647962E-08  5.71010079E-10 -1.50784677E-04  3.09696526E-03
 -1.52707229E-04  3.10549555E-05  5.19092037E-07 -2.22512664E-04 -1.50897167E-04
  3.09629767E-03 -1.53016251E-04  3.10596076E-05  1.92476828E-04  1.11684263E-04
 -1.50900784E-04  3.09629449E-03 -1.52999246E-04  3.10622915E-05 -1.92991761E-04
  1.10787520E-04  3.60566631E-04 -1.74503774E-04 -8.92633533E-06  2.27747179E-09
 -6.57766858E-09 -2.43740245E-03 -7.28865210E-03  2.51565457E-08 -1.21549054E-06
 -1.55665568E-02  4.64175899E-03 -2.43590771E-08 -1.40155926E-07 -1.69844096E-04
 -5.67579998E-05 -5.67564355E-05  3.54292751E-09 -1.17341717E-07 -5.31412913E-10
 -8.26670074E-05 -3.73630232E-04 -6.25289142E-05 -1.65675233E-09  5.48466043E-08
  6.36159215E-03 -2.46126471E-03  3.67522624E-08 -1.35550466E-06  3.34711727E-03
 -1.43950008E-03  1.70566759E-08 -1.23359797E-07  2.71585036E-06 -1.69509070E-04
 -1.69508539E-04 -4.65987393E-09  1.60197551E-07  4.32416374E-11 -4.82277125E-04
 -1.75380997E-04  2.78973710E-05 -1.10249143E-09  3.79817760E-09  2.00180413E-03
  1.29409095E-03 -5.10987085E-09 -1.96508998E-08  2.62421895E-02  2.23080391E-02
  1.34322492E-08 -1.11802132E-06 -6.75338101E-05 -4.84743725E-05 -4.84901807E-05
 -1.84441319E-10  9.21577101E-09 -1.22792888E-09  1.56270362E-07 -1.40756566E-06
  2.16204055E-05  1.19116292E-10 -6.47729733E-09  5.79565235E-06 -1.43067916E-04
 -7.05996319E-10  3.93090842E-08 -3.40332294E-04  6.93335948E-04  2.29968033E-09
 -1.36295786E-07  1.03223874E-02  3.19249469E-03  2.56809948E-08 -8.40609223E-07
  5.40194825E-05 -2.97144570E-05 -2.97153812E-05  6.17226419E-10 -2.81824480E-08
 -9.16601015E-11 -6.63632876E-05 -5.34538444E-04  5.08998613E-04 -1.08747450E-05
  4.03975828E-10 -2.07158274E-07 -6.63485290E-05 -5.34513895E-04  5.09759485E-04
 -1.08521100E-05  1.87057244E-07  1.15782593E-07 -6.63492689E-05 -5.34519527E-04
  5.09783479E-04 -1.08571509E-05 -1.89804210E-07  1.16089743E-07  9.92862388E-01
  4.94933838E-02  9.23605812E-04 -1.05989688E-08  4.55123992E-07 -1.01608875E-02
  2.49913850E-03 -1.18603667E-09 -4.37734968E-08 -4.22013356E-02  1.28147970E-02
 -2.42806917E-08 -5.53195531E-08 -8.56370513E-03 -9.64780828E-03 -9.64780851E-03
 -1.14369004E-08  4.27327867E-07  1.09365779E-10 -4.15359513E-04  3.22463496E-04
  2.11018771E-04 -1.28775537E-09  5.46912992E-08 -4.18370594E-03  1.64745344E-03
 -1.99968916E-08  7.36299138E-07  9.80761719E-03 -5.67804374E-03  3.33203545E-08
 -9.51284240E-07  4.95550760E-05  2.78821322E-04  2.78822016E-04  3.43676352E-09
 -1.33021639E-07 -5.79833763E-13  1.48808349E-05 -4.37912452E-05  2.45900363E-04
 -8.50280253E-10 -2.21566303E-08 -8.61087530E-04 -2.68822182E-03  1.06509436E-08
  6.57411196E-08  8.59118685E-03  1.58551381E-02  1.36311232E-08 -1.53853592E-06
  1.99582214E-04  3.52832299E-05  3.52940066E-05 -1.27519687E-09 -7.60073606E-09
  5.93783427E-10 -2.84628639E-01  1.02271360E+00  6.02420857E-04  4.35365957E-09
 -1.87638662E-07  7.54620882E-02  5.17940373E-04  6.37597094E-10 -6.37037204E-08
 -2.28034003E-02 -1.69736057E-03 -2.46057695E-09  1.92963875E-07  2.10752533E-02
  7.07954983E-03  1.73714946E-08 -9.28115101E-07 -1.55877863E-02 -1.55260454E-02
 -1.55260526E-02 -1.57517883E-10  7.52132186E-09 -3.35201147E-11 -4.09908354E-05
 -2.09954069E-04 -1.94851993E-03  1.09380755E-05 -8.31319511E-08  3.52732022E-05
 -4.10305415E-05 -2.09500340E-04 -1.94972907E-03  1.08369383E-05 -3.05458328E-05
 -1.77136117E-05 -4.10318602E-05 -2.09469935E-04 -1.94984156E-03  1.08272517E-05
  3.06298830E-05 -1.75736395E-05 -9.43040806E-06 -8.45391673E-05  1.37606819E-07
 -3.11522556E-10  1.18377479E-09 -1.33309625E-03 -2.54616187E-03  1.36210856E-08
 -4.21197965E-07 -1.51737090E-02  5.81330078E-03 -4.96015446E-08  1.36680089E-06
  8.46563354E-05 -1.75469685E-06 -1.75371158E-06  6.74352073E-10 -2.77659702E-08
  1.05582945E-10 -7.88572919E-05 -2.98997539E-04  8.00340919E-06 -7.30064230E-10
  4.02413163E-08  3.30029577E-03 -8.99435888E-04  1.11843187E-08 -5.00676780E-07
 -1.51435261E-03 -2.40144609E-04  1.22257137E-08 -2.81044333E-07 -1.41344724E-04
 -1.66524495E-04 -1.66526471E-04 -7.87109174E-10  3.72695188E-08 -4.45519424E-11
  2.30264650E-06 -2.67465316E-04 -3.16083308E-04 -1.90932892E-09  6.54162482E-08
 -2.19088423E-04 -9.89106556E-04  1.51856816E-08 -1.94808337E-07 -6.24204409E-02
 -5.80799643E-02 -3.21650790E-08  2.53584938E-06  4.71001687E-04 -2.17424445E-05
 -2.16505907E-05 -3.70218312E-09 -5.10475455E-08  2.03903929E-09  2.18228744E-04
 -6.88597903E-04  9.90623966E-01  8.40229302E-06 -2.07136116E-04  3.83452988E-04
  3.05984733E-02  2.54614861E-07 -6.35955513E-06 -6.58866258E-04 -1.40039853E-02
 -1.04127316E-07  2.79474121E-06 -2.52106878E-02 -3.39306424E-03 -2.65651163E-08
  1.22119360E-06  1.49547788E-04  2.02847081E-04  2.02853121E-04 -8.68979192E-10
  3.47704490E-08  9.94894197E-11 -7.43925873E-05  1.17361999E-03 -3.47232524E-03
 -1.54714616E-04 -3.61304620E-07  1.54377126E-04 -7.41829541E-05  1.17385804E-03
 -3.47292766E-03 -1.54907313E-04 -1.33570818E-04 -7.74641075E-05 -7.41619434E-05
  1.17386324E-03 -3.47292231E-03 -1.54921835E-04  1.33932327E-04 -7.68456485E-05
 -9.18777331E-05 -3.81188257E-04 -3.63337661E-05  3.49859591E-09 -1.34545865E-07
  2.58004173E-03 -6.45614791E-04 -1.57231116E-08  5.50015052E-07  1.00669148E-01
 -3.50492105E-02  1.18619129E-07 -1.50148411E-06 -1.33348989E-04 -1.43554930E-04
 -1.43551881E-04 -4.52758833E-10  2.56708603E-08 -1.25700217E-10 -2.03978934E-05
 -9.46900174E-05  2.34444138E-05 -3.01211418E-10 -2.72989228E-08  8.06411859E-04
 -2.74725583E-04  7.24922543E-09 -8.65667592E-08 -8.09086823E-03  7.34209188E-03
 -4.78452880E-08  8.45597910E-07  1.61885646E-06 -3.35839460E-05 -3.35855301E-05
 -1.06488236E-09  3.46725453E-08  2.98741185E-11 -2.44871421E-09 -9.00637000E-09
  4.27950027E-09 -3.59559261E-05  4.39484906E-07  8.00739535E-08 -1.98070920E-08
 -2.52022545E-04  3.09341088E-06  1.59505512E-07  1.35972934E-08  3.29357695E-04
 -4.03172020E-06 -6.00867672E-09  5.66243400E-07 -5.73279024E-07 -7.73311122E-05
  9.45992018E-07 -3.41611962E-05 -4.23901810E-10  9.57837803E-10 -1.09380956E-05
  9.90737285E-01 -1.21319626E-02 -3.16283389E-09 -3.31278899E-07  2.96896862E-02
 -3.63562270E-04  7.06418835E-09  1.26309743E-07 -1.15720071E-02  1.41705792E-04
 -4.90250676E-08 -6.66665090E-08  5.15711915E-03 -6.31549069E-05 -3.78964965E-09
 -3.81346681E-08  3.87322437E-08  7.78430357E-05 -9.53178917E-07  2.29424609E-06
 -2.21086167E-06  1.52103289E-05 -6.50997512E-05 -2.15787666E-06  1.51062484E-05
  1.55469170E-06 -1.30318085E-04  8.98779996E-04 -3.83481124E-03 -1.27389110E-04
 -7.36405216E-05 -5.16960229E-05  1.32525601E-04 -9.14143853E-04  3.89986848E-03
  1.29562174E-04 -7.53940408E-05  5.17822973E-05  1.48310188E-10  1.08978065E-09
  7.92654871E-10  5.65526171E-05 -6.92156313E-07 -4.45627179E-09  3.92917599E-09
 -2.31308779E-04  2.83005934E-06 -2.39801309E-08  6.23908752E-09  1.05857769E-03
 -1.29635149E-05 -3.93794313E-10  3.14152175E-08 -3.12412759E-08 -5.00569361E-06
  6.15435362E-08 -1.88312346E-06 -1.35157484E-10 -3.73439271E-10 -4.84722292E-10
 -2.10935406E-05  2.58233699E-07  1.10886492E-09  3.36671884E-09  1.34968573E-04
 -1.65219753E-06 -8.63002348E-09  7.23341935E-09 -3.64501143E-04  4.46552270E-06
 -9.38849017E-10 -5.69198930E-08  5.68702894E-08 -1.78989005E-05  2.19029187E-07
  3.41656803E-06  1.82863476E-08  5.74410545E-08 -5.19982887E-08 -4.41862258E-07
 -3.60178865E-05 -6.30475084E-07  1.86771057E-07 -3.07126858E-06 -2.51406592E-04
  4.14382454E-06  4.56435466E-06  4.02267250E-06  3.28389296E-04  4.92982605E-08
 -2.95294600E-05  2.95944349E-05 -9.48610184E-07 -7.73884829E-05 -6.55219503E-07
 -1.26194401E-08  5.81958153E-08  2.07043701E-04  1.21319649E-02  9.90737277E-01
  6.70017409E-08  6.22246906E-06  3.63560439E-04  2.96896189E-02 -2.21028553E-07
 -2.33372117E-06 -1.41699372E-04 -1.15718191E-02  2.58375213E-06  1.83539985E-06
  6.31428585E-05  5.15678375E-03  5.76413352E-08  2.01163501E-06 -2.03708152E-06
  9.53353232E-07  7.78508533E-05  4.47725152E-08  1.51875558E-04 -1.04584853E-03
  4.46403059E-03  1.48220868E-04  4.62563347E-07 -1.04351576E-04 -7.78420356E-05
  5.36750085E-04 -2.28788561E-03 -7.60619265E-05 -5.28051867E-05 -1.56289539E-05
 -7.40060512E-05  5.10357299E-04 -2.17523954E-03 -7.23213815E-05  5.07044177E-05
 -1.38795791E-05  9.89069276E-09  3.46262344E-08 -2.01171787E-08  6.92684586E-07
  5.65381747E-05 -3.45266850E-07 -2.85237125E-08 -2.83476115E-06 -2.31299608E-04
 -7.99548444E-06  3.35851545E-06  1.29616715E-05  1.05856199E-03  1.66227918E-08