 Entering Gaussian System, Link 0=g16
 Initial command:
 /usr/local/g16_AVX//g16/l1.exe "/scratch/alanqf/0081-54523.ixchel.mda.cinvestav.mx/Gau-38407.inp" -scrdir="/scratch/alanqf/0081-54523.ixchel.mda.cinvestav.mx/"
 Entering Link 1 = /usr/local/g16_AVX//g16/l1.exe PID=     38408.
  
 Copyright (c) 1988-2017, Gaussian, Inc.  All Rights Reserved.
  
 This is part of the Gaussian(R) 16 program.  It is based on
 the Gaussian(R) 09 system (copyright 2009, Gaussian, Inc.),
 the Gaussian(R) 03 system (copyright 2003, Gaussian, Inc.),
 the Gaussian(R) 98 system (copyright 1998, Gaussian, Inc.),
 the Gaussian(R) 94 system (copyright 1995, Gaussian, Inc.),
 the Gaussian 92(TM) system (copyright 1992, Gaussian, Inc.),
 the Gaussian 90(TM) system (copyright 1990, Gaussian, Inc.),
 the Gaussian 88(TM) system (copyright 1988, Gaussian, Inc.),
 the Gaussian 86(TM) system (copyright 1986, Carnegie Mellon
 University), and the Gaussian 82(TM) system (copyright 1983,
 Carnegie Mellon University). Gaussian is a federally registered
 trademark of Gaussian, Inc.
  
 This software contains proprietary and confidential information,
 including trade secrets, belonging to Gaussian, Inc.
  
 This software is provided under written license and may be
 used, copied, transmitted, or stored only in accord with that
 written license.
  
 The following legend is applicable only to US Government
 contracts under FAR:
  
                    RESTRICTED RIGHTS LEGEND
  
 Use, reproduction and disclosure by the US Government is
 subject to restrictions as set forth in subparagraphs (a)
 and (c) of the Commercial Computer Software - Restricted
 Rights clause in FAR 52.227-19.
  
 Gaussian, Inc.
 340 Quinnipiac St., Bldg. 40, Wallingford CT 06492
  
  
 ---------------------------------------------------------------
 Warning -- This program may not be used in any manner that
 competes with the business of Gaussian, Inc. or will provide
 assistance to any competitor of Gaussian, Inc.  The licensee
 of this program is prohibited from giving any competitor of
 Gaussian, Inc. access to this program.  By using this program,
 the user acknowledges that Gaussian, Inc. is engaged in the
 business of creating and licensing software in the field of
 computational chemistry and represents and warrants to the
 licensee that it is not a competitor of Gaussian, Inc. and that
 it will not use this program in any manner prohibited above.
 ---------------------------------------------------------------
  

 Cite this work as:
 Gaussian 16, Revision B.01,
 M. J. Frisch, G. W. Trucks, H. B. Schlegel, G. E. Scuseria, 
 M. A. Robb, J. R. Cheeseman, G. Scalmani, V. Barone, 
 G. A. Petersson, H. Nakatsuji, X. Li, M. Caricato, A. V. Marenich, 
 J. Bloino, B. G. Janesko, R. Gomperts, B. Mennucci, H. P. Hratchian, 
 J. V. Ortiz, A. F. Izmaylov, J. L. Sonnenberg, D. Williams-Young, 
 F. Ding, F. Lipparini, F. Egidi, J. Goings, B. Peng, A. Petrone, 
 T. Henderson, D. Ranasinghe, V. G. Zakrzewski, J. Gao, N. Rega, 
 G. Zheng, W. Liang, M. Hada, M. Ehara, K. Toyota, R. Fukuda, 
 J. Hasegawa, M. Ishida, T. Nakajima, Y. Honda, O. Kitao, H. Nakai, 
 T. Vreven, K. Throssell, J. A. Montgomery, Jr., J. E. Peralta, 
 F. Ogliaro, M. J. Bearpark, J. J. Heyd, E. N. Brothers, K. N. Kudin, 
 V. N. Staroverov, T. A. Keith, R. Kobayashi, J. Normand, 
 K. Raghavachari, A. P. Rendell, J. C. Burant, S. S. Iyengar, 
 J. Tomasi, M. Cossi, J. M. Millam, M. Klene, C. Adamo, R. Cammi, 
 J. W. Ochterski, R. L. Martin, K. Morokuma, O. Farkas, 
 J. B. Foresman, and D. J. Fox, Gaussian, Inc., Wallingford CT, 2016.
 
 ******************************************
 Gaussian 16:  ES64L-G16RevB.01 20-Dec-2017
                13-Oct-2024 
 ******************************************
 %NProcShared=26
 Will use up to   26 processors via shared memory.
 %MEM=20GB
 %chk=CHKfiles/0081.chk
 ---------------------------------------------------------------------
 #p b3lyp 6-31++g(d,p) scf=verytight NoSymm freq=noraman int=ultrafine
 ---------------------------------------------------------------------
 1/10=4,30=1,38=1/1,3;
 2/12=2,15=1,17=6,18=5,40=1/2;
 3/5=1,6=6,7=1111,11=2,25=1,30=1,71=2,74=-5,75=-5,140=1/1,2,3;
 4//1;
 5/5=2,17=3,38=5,98=1/2;
 8/6=4,10=90,11=11/1;
 11/6=1,8=1,9=11,15=111,16=1,31=1/1,2,10;
 10/6=1,31=1/2;
 6/7=2,8=2,9=2,10=2,28=1/1;
 7/8=1,10=1,25=1,30=1/1,2,3,16;
 1/10=4,30=1/3;
 99//99;
 Leave Link    1 at Sun Oct 13 09:49:51 2024, MaxMem=  2684354560 cpu:               1.3 elap:               0.1
 (Enter /usr/local/g16_AVX//g16/l101.exe)
 -------------------------
 RxCoord=-1.99953 DE=41.60
 -------------------------
 Symbolic Z-matrix:
 Charge = -1 Multiplicity = 1
 C                     0.28696   0.00001  -0.00024 
 Cl                   -2.24013  0.         0.00011 
 H                     0.11783   0.00249  -1.06577 
 H                     0.11784   0.92158   0.53461 
 H                     0.11782  -0.92404   0.53032 
 C                     2.23133   0.       -0.00021 
 N                     3.41061  -0.00001   0.00017 
 
 ITRead=  0  0  0  0  0  0  0
 MicOpt= -1 -1 -1 -1 -1 -1 -1
 NAtoms=      7 NQM=        7 NQMF=       0 NMMI=      0 NMMIF=      0
                NMic=       0 NMicF=      0.
                    Isotopes and Nuclear Properties:
 (Nuclear quadrupole moments (NQMom) in fm**2, nuclear magnetic moments (NMagM)
  in nuclear magnetons)

  Atom         1           2           3           4           5           6           7
 IAtWgt=          12          35           1           1           1          12          14
 AtmWgt=  12.0000000  34.9688527   1.0078250   1.0078250   1.0078250  12.0000000  14.0030740
 NucSpn=           0           3           1           1           1           0           2
 AtZEff=  -0.0000000  -0.0000000  -0.0000000  -0.0000000  -0.0000000  -0.0000000  -0.0000000
 NQMom=    0.0000000  -8.1650000   0.0000000   0.0000000   0.0000000   0.0000000   2.0440000
 NMagM=    0.0000000   0.8218740   2.7928460   2.7928460   2.7928460   0.0000000   0.4037610
 AtZNuc=   6.0000000  17.0000000   1.0000000   1.0000000   1.0000000   6.0000000   7.0000000
 Leave Link  101 at Sun Oct 13 09:49:51 2024, MaxMem=  2684354560 cpu:               1.8 elap:               0.1
 (Enter /usr/local/g16_AVX//g16/l103.exe)

 GradGradGradGradGradGradGradGradGradGradGradGradGradGradGradGradGradGrad
 Berny optimization.
 Initialization pass.
 Trust Radius=3.00D-01 FncErr=1.00D-07 GrdErr=1.00D-07 EigMax=2.50D+02 EigMin=1.00D-04
 Number of steps in this run=      2 maximum allowed number of steps=      2.
 GradGradGradGradGradGradGradGradGradGradGradGradGradGradGradGradGradGrad

 Leave Link  103 at Sun Oct 13 09:49:51 2024, MaxMem=  2684354560 cpu:               0.3 elap:               0.0
 (Enter /usr/local/g16_AVX//g16/l202.exe)
                          Input orientation:                          
 ---------------------------------------------------------------------
 Center     Atomic      Atomic             Coordinates (Angstroms)
 Number     Number       Type             X           Y           Z
 ---------------------------------------------------------------------
      1          6           0        0.286962    0.000007   -0.000240
      2         17           0       -2.240131   -0.000002    0.000111
      3          1           0        0.117830    0.002486   -1.065769
      4          1           0        0.117837    0.921580    0.534612
      5          1           0        0.117821   -0.924043    0.530317
      6          6           0        2.231331    0.000004   -0.000210
      7          7           0        3.410610   -0.000006    0.000170
 ---------------------------------------------------------------------
                    Distance matrix (angstroms):
                    1          2          3          4          5
     1  C    0.000000
     2  Cl   2.527093   0.000000
     3  H    1.078872   2.587680   0.000000
     4  H    1.078873   2.587473   1.845522   0.000000
     5  H    1.078873   2.587452   1.845521   1.845628   0.000000
     6  C    1.944369   4.471462   2.366920   2.366895   2.366906
     7  N    3.123648   5.650741   3.461016   3.460824   3.460832
                    6          7
     6  C    0.000000
     7  N    1.179279   0.000000
 Symmetry turned off by external request.
 This structure is nearly, but not quite of a higher symmetry.
 Consider Symm=Loose if the higher symmetry is desired.
 Stoichiometry    C2H3ClN(1-)
 Framework group  C1[X(C2H3ClN)]
 Deg. of freedom    15
 Full point group                 C1      NOp   1
 Rotational constants (GHZ):         147.2233985           1.2607367           1.2607359
 Leave Link  202 at Sun Oct 13 09:49:51 2024, MaxMem=  2684354560 cpu:               0.2 elap:               0.0
 (Enter /usr/local/g16_AVX//g16/l301.exe)
 Standard basis: 6-31++G(d,p) (6D, 7F)
 Ernie: Thresh=  0.10000D-02 Tol=  0.10000D-05 Strict=F.
    98 basis functions,   176 primitive gaussians,    98 cartesian basis functions
    20 alpha electrons       20 beta electrons
       nuclear repulsion energy       107.6881174657 Hartrees.
 IExCor=  402 DFT=T Ex+Corr=B3LYP ExCW=0 ScaHFX=  0.200000
 ScaDFX=  0.800000  0.720000  1.000000  0.810000 ScalE2=  1.000000  1.000000
 IRadAn=      5 IRanWt=     -1 IRanGd=            0 ICorTp=0 IEmpDi=  4
 NAtoms=    7 NActive=    7 NUniq=    7 SFac= 1.00D+00 NAtFMM=   60 NAOKFM=F Big=F
 Integral buffers will be    131072 words long.
 Raffenetti 2 integral format.
 Two-electron integral symmetry is turned off.
 Leave Link  301 at Sun Oct 13 09:49:51 2024, MaxMem=  2684354560 cpu:               0.9 elap:               0.1
 (Enter /usr/local/g16_AVX//g16/l302.exe)
 NPDir=0 NMtPBC=     1 NCelOv=     1 NCel=       1 NClECP=     1 NCelD=      1
         NCelK=      1 NCelE2=     1 NClLst=     1 CellRange=     0.0.
 One-electron integrals computed using PRISM.
 NBasis=    98 RedAO= T EigKep=  5.24D-05  NBF=    98
 NBsUse=    98 1.00D-06 EigRej= -1.00D+00 NBFU=    98
 Precomputing XC quadrature grid using
 IXCGrd= 4 IRadAn=           5 IRanWt=          -1 IRanGd=           0 AccXCQ= 0.00D+00.
 Generated NRdTot=       0 NPtTot=           0 NUsed=           0 NTot=          32
 NSgBfM=    98    98    98    98    98 MxSgAt=     7 MxSgA2=     7.
 Leave Link  302 at Sun Oct 13 09:49:52 2024, MaxMem=  2684354560 cpu:               3.4 elap:               0.2
 (Enter /usr/local/g16_AVX//g16/l303.exe)
 DipDrv:  MaxL=1.
 Leave Link  303 at Sun Oct 13 09:49:52 2024, MaxMem=  2684354560 cpu:               0.5 elap:               0.1
 (Enter /usr/local/g16_AVX//g16/l401.exe)
 ExpMin= 3.60D-02 ExpMax= 2.52D+04 ExpMxC= 3.78D+03 IAcc=3 IRadAn=         5 AccDes= 0.00D+00
 Harris functional with IExCor=  402 and IRadAn=       5 diagonalized for initial guess.
 HarFok:  IExCor=  402 AccDes= 0.00D+00 IRadAn=         5 IDoV= 1 UseB2=F ITyADJ=14
 ICtDFT=  3500011 ScaDFX=  1.000000  1.000000  1.000000  1.000000
 FoFCou: FMM=F IPFlag=           0 FMFlag=      100000 FMFlg1=           0
         NFxFlg=           0 DoJE=T BraDBF=F KetDBF=T FulRan=T
         wScrn=  0.000000 ICntrl=       500 IOpCl=  0 I1Cent=   200000004 NGrid=           0
         NMat0=    1 NMatS0=      1 NMatT0=    0 NMatD0=    1 NMtDS0=    0 NMtDT0=    0
 Symmetry not used in FoFCou.
 Harris En= -593.043543374116    
 JPrj=0 DoOrth=F DoCkMO=F.
 Leave Link  401 at Sun Oct 13 09:49:52 2024, MaxMem=  2684354560 cpu:               6.1 elap:               0.3
 (Enter /usr/local/g16_AVX//g16/l502.exe)
 Keep R1 ints in memory in canonical form, NReq=35752921.
 FoFCou: FMM=F IPFlag=           0 FMFlag=           0 FMFlg1=           0
         NFxFlg=           0 DoJE=F BraDBF=F KetDBF=F FulRan=T
         wScrn=  0.000000 ICntrl=       600 IOpCl=  0 I1Cent=           0 NGrid=           0
         NMat0=    1 NMatS0=   4851 NMatT0=    0 NMatD0=    1 NMtDS0=    0 NMtDT0=    0
 Symmetry not used in FoFCou.
 Two-electron integral symmetry not used.
 Closed shell SCF:
 Using DIIS extrapolation, IDIIS=  1040.
 NGot=  2684354560 LenX=  2672563419 LenY=  2672553374
 Requested convergence on RMS density matrix=1.00D-08 within 128 cycles.
 Requested convergence on MAX density matrix=1.00D-06.
 Requested convergence on             energy=1.00D-06.
 No special actions if energy rises.

 Cycle   1  Pass 1  IDiag  1:
 E= -592.909752395797    
 DIIS: error= 2.77D-02 at cycle   1 NSaved=   1.
 NSaved= 1 IEnMin= 1 EnMin= -592.909752395797     IErMin= 1 ErrMin= 2.77D-02
 ErrMax= 2.77D-02  0.00D+00 EMaxC= 1.00D-01 BMatC= 9.24D-02 BMatP= 9.24D-02
 IDIUse=3 WtCom= 7.23D-01 WtEn= 2.77D-01
 Coeff-Com:  0.100D+01
 Coeff-En:   0.100D+01
 Coeff:      0.100D+01
 Gap=     0.236 Goal=   None    Shift=    0.000
 GapD=    0.236 DampG=1.000 DampE=0.500 DampFc=0.5000 IDamp=-1.
 Damping current iteration by 5.00D-01
 RMSDP=9.20D-03 MaxDP=1.95D-01              OVMax= 2.12D-01

 Cycle   2  Pass 1  IDiag  1:
 E= -592.932602289954     Delta-E=       -0.022849894157 Rises=F Damp=T
 DIIS: error= 1.99D-02 at cycle   2 NSaved=   2.
 NSaved= 2 IEnMin= 2 EnMin= -592.932602289954     IErMin= 2 ErrMin= 1.99D-02
 ErrMax= 1.99D-02  0.00D+00 EMaxC= 1.00D-01 BMatC= 2.29D-02 BMatP= 9.24D-02
 IDIUse=3 WtCom= 8.01D-01 WtEn= 1.99D-01
 Coeff-Com:  0.258D+00 0.742D+00
 Coeff-En:   0.367D+00 0.633D+00
 Coeff:      0.280D+00 0.720D+00
 Gap=     0.175 Goal=   None    Shift=    0.000
 RMSDP=2.97D-03 MaxDP=5.21D-02 DE=-2.28D-02 OVMax= 1.85D-01

 Cycle   3  Pass 1  IDiag  1:
 E= -592.984883583483     Delta-E=       -0.052281293529 Rises=F Damp=F
 DIIS: error= 1.97D-02 at cycle   3 NSaved=   3.
 NSaved= 3 IEnMin= 3 EnMin= -592.984883583483     IErMin= 3 ErrMin= 1.97D-02
 ErrMax= 1.97D-02  0.00D+00 EMaxC= 1.00D-01 BMatC= 2.05D-02 BMatP= 2.29D-02
 IDIUse=3 WtCom= 8.03D-01 WtEn= 1.97D-01
 Coeff-Com:  0.567D-01 0.473D+00 0.470D+00
 Coeff-En:   0.000D+00 0.000D+00 0.100D+01
 Coeff:      0.455D-01 0.380D+00 0.575D+00
 Gap=     0.193 Goal=   None    Shift=    0.000
 RMSDP=2.84D-03 MaxDP=4.65D-02 DE=-5.23D-02 OVMax= 7.86D-02

 Cycle   4  Pass 1  IDiag  1:
 E= -592.996492823536     Delta-E=       -0.011609240054 Rises=F Damp=F
 DIIS: error= 1.41D-02 at cycle   4 NSaved=   4.
 NSaved= 4 IEnMin= 4 EnMin= -592.996492823536     IErMin= 4 ErrMin= 1.41D-02
 ErrMax= 1.41D-02  0.00D+00 EMaxC= 1.00D-01 BMatC= 9.30D-03 BMatP= 2.05D-02
 IDIUse=3 WtCom= 8.59D-01 WtEn= 1.41D-01
 Coeff-Com:  0.323D-01 0.723D-02 0.379D+00 0.581D+00
 Coeff-En:   0.000D+00 0.000D+00 0.345D+00 0.655D+00
 Coeff:      0.278D-01 0.621D-02 0.374D+00 0.592D+00
 Gap=     0.190 Goal=   None    Shift=    0.000
 RMSDP=1.17D-03 MaxDP=1.73D-02 DE=-1.16D-02 OVMax= 3.24D-02

 Cycle   5  Pass 1  IDiag  1:
 E= -593.004914879286     Delta-E=       -0.008422055749 Rises=F Damp=F
 DIIS: error= 1.03D-03 at cycle   5 NSaved=   5.
 NSaved= 5 IEnMin= 5 EnMin= -593.004914879286     IErMin= 5 ErrMin= 1.03D-03
 ErrMax= 1.03D-03  0.00D+00 EMaxC= 1.00D-01 BMatC= 1.00D-04 BMatP= 9.30D-03
 IDIUse=3 WtCom= 9.90D-01 WtEn= 1.03D-02
 Coeff-Com:  0.119D-01-0.134D-01 0.169D+00 0.303D+00 0.529D+00
 Coeff-En:   0.000D+00 0.000D+00 0.000D+00 0.000D+00 0.100D+01
 Coeff:      0.117D-01-0.132D-01 0.167D+00 0.300D+00 0.534D+00
 Gap=     0.188 Goal=   None    Shift=    0.000
 RMSDP=1.49D-04 MaxDP=2.37D-03 DE=-8.42D-03 OVMax= 4.26D-03

 Cycle   6  Pass 1  IDiag  1:
 E= -593.005017664140     Delta-E=       -0.000102784854 Rises=F Damp=F
 DIIS: error= 2.16D-04 at cycle   6 NSaved=   6.
 NSaved= 6 IEnMin= 6 EnMin= -593.005017664140     IErMin= 6 ErrMin= 2.16D-04
 ErrMax= 2.16D-04  0.00D+00 EMaxC= 1.00D-01 BMatC= 3.68D-06 BMatP= 1.00D-04
 IDIUse=3 WtCom= 9.98D-01 WtEn= 2.16D-03
 Coeff-Com:  0.199D-02-0.435D-02 0.288D-01 0.549D-01 0.210D+00 0.708D+00
 Coeff-En:   0.000D+00 0.000D+00 0.000D+00 0.000D+00 0.000D+00 0.100D+01
 Coeff:      0.198D-02-0.434D-02 0.287D-01 0.548D-01 0.210D+00 0.709D+00
 Gap=     0.188 Goal=   None    Shift=    0.000
 RMSDP=7.94D-05 MaxDP=2.04D-03 DE=-1.03D-04 OVMax= 9.17D-04

 Cycle   7  Pass 1  IDiag  1:
 E= -593.005022070627     Delta-E=       -0.000004406487 Rises=F Damp=F
 DIIS: error= 2.63D-05 at cycle   7 NSaved=   7.
 NSaved= 7 IEnMin= 7 EnMin= -593.005022070627     IErMin= 7 ErrMin= 2.63D-05
 ErrMax= 2.63D-05  0.00D+00 EMaxC= 1.00D-01 BMatC= 5.35D-08 BMatP= 3.68D-06
 IDIUse=1 WtCom= 1.00D+00 WtEn= 0.00D+00
 Coeff-Com:  0.145D-03-0.752D-03 0.895D-03 0.185D-02 0.301D-01 0.180D+00
 Coeff-Com:  0.788D+00
 Coeff:      0.145D-03-0.752D-03 0.895D-03 0.185D-02 0.301D-01 0.180D+00
 Coeff:      0.788D+00
 Gap=     0.188 Goal=   None    Shift=    0.000
 RMSDP=1.16D-05 MaxDP=2.91D-04 DE=-4.41D-06 OVMax= 1.92D-04

 Cycle   8  Pass 1  IDiag  1:
 E= -593.005022127092     Delta-E=       -0.000000056464 Rises=F Damp=F
 DIIS: error= 7.50D-06 at cycle   8 NSaved=   8.
 NSaved= 8 IEnMin= 8 EnMin= -593.005022127092     IErMin= 8 ErrMin= 7.50D-06
 ErrMax= 7.50D-06  0.00D+00 EMaxC= 1.00D-01 BMatC= 8.20D-09 BMatP= 5.35D-08
 IDIUse=1 WtCom= 1.00D+00 WtEn= 0.00D+00
 Coeff-Com:  0.305D-05-0.155D-03-0.920D-03-0.160D-02 0.594D-02 0.649D-01
 Coeff-Com:  0.390D+00 0.542D+00
 Coeff:      0.305D-05-0.155D-03-0.920D-03-0.160D-02 0.594D-02 0.649D-01
 Coeff:      0.390D+00 0.542D+00
 Gap=     0.188 Goal=   None    Shift=    0.000
 RMSDP=3.29D-06 MaxDP=8.33D-05 DE=-5.65D-08 OVMax= 5.76D-05

 Cycle   9  Pass 1  IDiag  1:
 E= -593.005022136673     Delta-E=       -0.000000009581 Rises=F Damp=F
 DIIS: error= 1.98D-06 at cycle   9 NSaved=   9.
 NSaved= 9 IEnMin= 9 EnMin= -593.005022136673     IErMin= 9 ErrMin= 1.98D-06
 ErrMax= 1.98D-06  0.00D+00 EMaxC= 1.00D-01 BMatC= 5.82D-10 BMatP= 8.20D-09
 IDIUse=1 WtCom= 1.00D+00 WtEn= 0.00D+00
 Coeff-Com: -0.717D-05-0.903D-05-0.431D-03-0.693D-03-0.981D-03 0.735D-02
 Coeff-Com:  0.725D-01 0.231D+00 0.692D+00
 Coeff:     -0.717D-05-0.903D-05-0.431D-03-0.693D-03-0.981D-03 0.735D-02
 Coeff:      0.725D-01 0.231D+00 0.692D+00
 Gap=     0.188 Goal=   None    Shift=    0.000
 RMSDP=7.31D-07 MaxDP=1.60D-05 DE=-9.58D-09 OVMax= 1.60D-05

 Cycle  10  Pass 1  IDiag  1:
 E= -593.005022137426     Delta-E=       -0.000000000753 Rises=F Damp=F
 DIIS: error= 4.39D-07 at cycle  10 NSaved=  10.
 NSaved=10 IEnMin=10 EnMin= -593.005022137426     IErMin=10 ErrMin= 4.39D-07
 ErrMax= 4.39D-07  0.00D+00 EMaxC= 1.00D-01 BMatC= 1.66D-11 BMatP= 5.82D-10
 IDIUse=1 WtCom= 1.00D+00 WtEn= 0.00D+00
 Coeff-Com: -0.167D-05 0.596D-05-0.760D-04-0.101D-03-0.742D-03-0.228D-02
 Coeff-Com: -0.459D-02 0.329D-01 0.211D+00 0.764D+00
 Coeff:     -0.167D-05 0.596D-05-0.760D-04-0.101D-03-0.742D-03-0.228D-02
 Coeff:     -0.459D-02 0.329D-01 0.211D+00 0.764D+00
 Gap=     0.188 Goal=   None    Shift=    0.000
 RMSDP=1.31D-07 MaxDP=2.31D-06 DE=-7.53D-10 OVMax= 1.45D-06

 Cycle  11  Pass 1  IDiag  1:
 E= -593.005022137446     Delta-E=       -0.000000000019 Rises=F Damp=F
 DIIS: error= 5.28D-08 at cycle  11 NSaved=  11.
 NSaved=11 IEnMin=11 EnMin= -593.005022137446     IErMin=11 ErrMin= 5.28D-08
 ErrMax= 5.28D-08  0.00D+00 EMaxC= 1.00D-01 BMatC= 2.24D-13 BMatP= 1.66D-11
 IDIUse=1 WtCom= 1.00D+00 WtEn= 0.00D+00
 Coeff-Com: -0.398D-06 0.100D-05 0.779D-07-0.151D-05-0.405D-04-0.407D-03
 Coeff-Com: -0.153D-02-0.320D-02 0.402D-02 0.564D-01 0.945D+00
 Coeff:     -0.398D-06 0.100D-05 0.779D-07-0.151D-05-0.405D-04-0.407D-03
 Coeff:     -0.153D-02-0.320D-02 0.402D-02 0.564D-01 0.945D+00
 Gap=     0.188 Goal=   None    Shift=    0.000
 RMSDP=3.37D-08 MaxDP=9.36D-07 DE=-1.93D-11 OVMax= 3.12D-07

 Cycle  12  Pass 1  IDiag  1:
 E= -593.005022137443     Delta-E=        0.000000000003 Rises=F Damp=F
 DIIS: error= 1.22D-08 at cycle  12 NSaved=  12.
 NSaved=12 IEnMin=11 EnMin= -593.005022137446     IErMin=12 ErrMin= 1.22D-08
 ErrMax= 1.22D-08  0.00D+00 EMaxC= 1.00D-01 BMatC= 6.40D-15 BMatP= 2.24D-13
 IDIUse=1 WtCom= 1.00D+00 WtEn= 0.00D+00
 Coeff-Com: -0.812D-07 0.109D-06 0.707D-06 0.102D-05 0.317D-05 0.529D-05
 Coeff-Com: -0.693D-05-0.717D-03-0.238D-02-0.656D-02 0.479D-01 0.962D+00
 Coeff:     -0.812D-07 0.109D-06 0.707D-06 0.102D-05 0.317D-05 0.529D-05
 Coeff:     -0.693D-05-0.717D-03-0.238D-02-0.656D-02 0.479D-01 0.962D+00
 Gap=     0.188 Goal=   None    Shift=    0.000
 RMSDP=4.34D-09 MaxDP=1.21D-07 DE= 2.50D-12 OVMax= 3.04D-08

 SCF Done:  E(RB3LYP) =  -593.005022137     A.U. after   12 cycles
            NFock= 12  Conv=0.43D-08     -V/T= 2.0049
 KE= 5.900998859006D+02 PE=-1.625680119961D+03 EE= 3.348870944568D+02
 Leave Link  502 at Sun Oct 13 09:49:54 2024, MaxMem=  2684354560 cpu:              50.2 elap:               2.2
 (Enter /usr/local/g16_AVX//g16/l801.exe)
 DoSCS=F DFT=T ScalE2(SS,OS)=  1.000000  1.000000
 Range of M.O.s used for correlation:     1    98
 NBasis=    98 NAE=    20 NBE=    20 NFC=     0 NFV=     0
 NROrb=     98 NOA=    20 NOB=    20 NVA=    78 NVB=    78

 **** Warning!!: The largest alpha MO coefficient is  0.69525081D+02

 Leave Link  801 at Sun Oct 13 09:49:54 2024, MaxMem=  2684354560 cpu:               0.6 elap:               0.1
 (Enter /usr/local/g16_AVX//g16/l1101.exe)
 Using compressed storage, NAtomX=     7.
 Will process      8 centers per pass.
 Leave Link 1101 at Sun Oct 13 09:49:55 2024, MaxMem=  2684354560 cpu:               3.4 elap:               0.2
 (Enter /usr/local/g16_AVX//g16/l1102.exe)
 Symmetrizing basis deriv contribution to polar:
 IMax=3 JMax=2 DiffMx= 0.00D+00
 Leave Link 1102 at Sun Oct 13 09:49:55 2024, MaxMem=  2684354560 cpu:               0.4 elap:               0.1
 (Enter /usr/local/g16_AVX//g16/l1110.exe)
 Forming Gx(P) for the SCF density, NAtomX=     7.
 Integral derivatives from FoFJK, PRISM(SPDF).
 Do as many integral derivatives as possible in FoFJK.
 G2DrvN: MDV=    2684353878.
 G2DrvN: will do     8 centers at a time, making    1 passes.
 Calling FoFCou, ICntrl=  3107 FMM=F I1Cent=   0 AccDes= 0.00D+00.
 FoFJK:  IHMeth= 1 ICntrl=    3107 DoSepK=F KAlg= 0 I1Cent=           0 FoldK=F
 IRaf=         0 NMat=       1 IRICut=       1 DoRegI=T DoRafI=F ISym2E= 0 IDoP0=0 IntGTp=1.
 FoFCou: FMM=F IPFlag=           0 FMFlag=      100000 FMFlg1=           0
         NFxFlg=           0 DoJE=F BraDBF=F KetDBF=F FulRan=T
         wScrn=  0.000000 ICntrl=      3107 IOpCl=  0 I1Cent=           0 NGrid=           0
         NMat0=    1 NMatS0=      1 NMatT0=    0 NMatD0=    1 NMtDS0=    0 NMtDT0=    0
 Symmetry not used in FoFCou.
 End of G2Drv F.D. properties file   721 does not exist.
 End of G2Drv F.D. properties file   722 does not exist.
 End of G2Drv F.D. properties file   788 does not exist.
 Leave Link 1110 at Sun Oct 13 09:49:57 2024, MaxMem=  2684354560 cpu:              63.6 elap:               2.5
 (Enter /usr/local/g16_AVX//g16/l1002.exe)
 Minotr:  Closed shell wavefunction.
          IDoAtm=1111111
          Direct CPHF calculation.
          Differentiating once with respect to electric field.
                with respect to dipole field.
          Differentiating once with respect to nuclear coordinates.
          Requested convergence is 1.0D-08 RMS, and 1.0D-07 maximum.
          Secondary convergence is 1.0D-12 RMS, and 1.0D-12 maximum.
          NewPWx=T KeepS1=F KeepF1=F KeepIn=T MapXYZ=F SortEE=F KeepMc=T.
         2129 words used for storage of precomputed grid.
 Keep R1 ints in memory in canonical form, NReq=35668376.
 FoFCou: FMM=F IPFlag=           0 FMFlag=           0 FMFlg1=           0
         NFxFlg=           0 DoJE=F BraDBF=F KetDBF=F FulRan=T
         wScrn=  0.000000 ICntrl=       600 IOpCl=  0 I1Cent=           0 NGrid=           0
         NMat0=    1 NMatS0=   4851 NMatT0=    0 NMatD0=    1 NMtDS0=    0 NMtDT0=    0
 Symmetry not used in FoFCou.
 Two-electron integral symmetry not used.
          MDV=    2684354560 using IRadAn=       1.
          Solving linear equations simultaneously, MaxMat=       0.
          There are    24 degrees of freedom in the 1st order CPHF.  IDoFFX=6 NUNeed=     3.
     21 vectors produced by pass  0 Test12= 6.50D-15 4.17D-09 XBig12= 1.24D+02 6.32D+00.
 AX will form    21 AO Fock derivatives at one time.
     21 vectors produced by pass  1 Test12= 6.50D-15 4.17D-09 XBig12= 4.76D+01 2.53D+00.
     21 vectors produced by pass  2 Test12= 6.50D-15 4.17D-09 XBig12= 3.55D+00 5.61D-01.
     21 vectors produced by pass  3 Test12= 6.50D-15 4.17D-09 XBig12= 2.89D-02 3.47D-02.
     21 vectors produced by pass  4 Test12= 6.50D-15 4.17D-09 XBig12= 1.02D-04 1.84D-03.
     19 vectors produced by pass  5 Test12= 6.50D-15 4.17D-09 XBig12= 1.84D-07 9.31D-05.
      6 vectors produced by pass  6 Test12= 6.50D-15 4.17D-09 XBig12= 2.40D-10 3.15D-06.
      1 vectors produced by pass  7 Test12= 6.50D-15 4.17D-09 XBig12= 2.69D-13 9.36D-08.
      1 vectors produced by pass  8 Test12= 6.50D-15 4.17D-09 XBig12= 3.78D-16 5.03D-09.
 InvSVY:  IOpt=1 It=  1 EMax= 7.11D-15
 Solved reduced A of dimension   132 with    24 vectors.
 FullF1:  Do perturbations      1 to       3.
 Isotropic polarizability for W=    0.000000       64.68 Bohr**3.
 End of Minotr F.D. properties file   721 does not exist.
 End of Minotr F.D. properties file   722 does not exist.
 End of Minotr F.D. properties file   788 does not exist.
 Leave Link 1002 at Sun Oct 13 09:50:01 2024, MaxMem=  2684354560 cpu:              83.7 elap:               3.3
 (Enter /usr/local/g16_AVX//g16/l601.exe)
 Copying SCF densities to generalized density rwf, IOpCl= 0 IROHF=0.

 **********************************************************************

            Population analysis using the SCF Density.

 **********************************************************************

 Alpha  occ. eigenvalues -- -101.28298 -14.19160 -10.11256 -10.07857  -9.19757
 Alpha  occ. eigenvalues --   -6.95615  -6.95477  -6.95477  -0.74435  -0.58600
 Alpha  occ. eigenvalues --   -0.53058  -0.30722  -0.30720  -0.29494  -0.20786
 Alpha  occ. eigenvalues --   -0.18667  -0.18667  -0.08049  -0.08049  -0.07946
 Alpha virt. eigenvalues --    0.10855   0.14729   0.14730   0.14731   0.15834
 Alpha virt. eigenvalues --    0.17295   0.17296   0.20260   0.21646   0.21646
 Alpha virt. eigenvalues --    0.23815   0.23839   0.23840   0.25741   0.25741
 Alpha virt. eigenvalues --    0.25834   0.31001   0.34133   0.34133   0.35055
 Alpha virt. eigenvalues --    0.35056   0.35546   0.39023   0.43649   0.46812
 Alpha virt. eigenvalues --    0.74260   0.79341   0.79342   0.81510   0.81512
 Alpha virt. eigenvalues --    0.81975   0.85722   0.85723   0.89345   0.95985
 Alpha virt. eigenvalues --    0.98705   1.05283   1.05284   1.12340   1.12341
 Alpha virt. eigenvalues --    1.12646   1.12646   1.13657   1.15614   1.15618
 Alpha virt. eigenvalues --    1.24390   1.26007   1.39674   1.51375   1.57356
 Alpha virt. eigenvalues --    1.57358   1.68475   1.68475   1.74363   1.74363
 Alpha virt. eigenvalues --    1.82279   2.09968   2.10524   2.10525   2.12799
 Alpha virt. eigenvalues --    2.15753   2.15758   2.57198   2.57202   2.64598
 Alpha virt. eigenvalues --    2.77832   2.77835   2.87617   2.92207   2.92217
 Alpha virt. eigenvalues --    3.20242   3.45442   3.57177   3.57185   4.18325
 Alpha virt. eigenvalues --    4.39838   4.55209   4.61949
          Condensed to atoms (all electrons):
               1          2          3          4          5          6
     1  C    5.393131  -0.123174   0.431822   0.431805   0.431806  -0.322008
     2  Cl  -0.123174  17.917622  -0.036954  -0.036982  -0.036982   0.082007
     3  H    0.431822  -0.036954   0.485555  -0.019059  -0.019060  -0.056797
     4  H    0.431805  -0.036982  -0.019059   0.485512  -0.019045  -0.056721
     5  H    0.431806  -0.036982  -0.019060  -0.019045   0.485509  -0.056719
     6  C   -0.322008   0.082007  -0.056797  -0.056721  -0.056719   5.901978
     7  N   -0.060440   0.000782  -0.003904  -0.003913  -0.003913   0.663228
               7
     1  C   -0.060440
     2  Cl   0.000782
     3  H   -0.003904
     4  H   -0.003913
     5  H   -0.003913
     6  C    0.663228
     7  N    6.959136
 Mulliken charges:
               1
     1  C   -0.182942
     2  Cl  -0.766318
     3  H    0.218397
     4  H    0.218403
     5  H    0.218404
     6  C   -0.154968
     7  N   -0.550976
 Sum of Mulliken charges =  -1.00000
 Mulliken charges with hydrogens summed into heavy atoms:
               1
     1  C    0.472262
     2  Cl  -0.766318
     6  C   -0.154968
     7  N   -0.550976
 APT charges:
               1
     1  C    1.047598
     2  Cl  -1.068312
     3  H    0.005313
     4  H    0.005334
     5  H    0.005336
     6  C   -0.441411
     7  N   -0.553857
 Sum of APT charges =  -1.00000
 APT charges with hydrogens summed into heavy atoms:
               1
     1  C    1.063581
     2  Cl  -1.068312
     6  C   -0.441411
     7  N   -0.553857
 Electronic spatial extent (au):  <R**2>=            832.7235
 Charge=             -1.0000 electrons
 Dipole moment (field-independent basis, Debye):
    X=              1.5474    Y=              0.0000    Z=             -0.0010  Tot=              1.5474
 Quadrupole moment (field-independent basis, Debye-Ang):
   XX=            -86.0516   YY=            -35.3538   ZZ=            -35.3544
   XY=              0.0000   XZ=             -0.0002   YZ=              0.0000
 Traceless Quadrupole moment (field-independent basis, Debye-Ang):
   XX=            -33.7983   YY=             16.8994   ZZ=             16.8989
   XY=              0.0000   XZ=             -0.0002   YZ=              0.0000
 Octapole moment (field-independent basis, Debye-Ang**2):
  XXX=            -56.1133  YYY=             -0.0072  ZZZ=             -1.0378  XYY=             -0.3268
  XXY=              0.0002  XXZ=             -0.0068  XZZ=             -0.3268  YZZ=              0.0072
  YYZ=              1.0378  XYZ=              0.0000
 Hexadecapole moment (field-independent basis, Debye-Ang**3):
 XXXX=          -1666.9017 YYYY=            -56.4042 ZZZZ=            -56.4036 XXXY=              0.0006
 XXXZ=             -0.0058 YYYX=             -0.0004 YYYZ=              0.0000 ZZZX=             -0.0457
 ZZZY=             -0.0000 XXYY=           -211.2191 XXZZ=           -211.2190 YYZZ=            -18.8021
 XXYZ=              0.0000 YYXZ=              0.0609 ZZXY=              0.0004
 N-N= 1.076881174657D+02 E-N=-1.625680119597D+03  KE= 5.900998859006D+02
  Exact polarizability: 114.319  -0.000  39.855   0.000  -0.000  39.855
 Approx polarizability: 141.433  -0.000  49.469   0.003   0.000  49.468
 No NMR shielding tensors so no spin-rotation constants.
 Leave Link  601 at Sun Oct 13 09:50:01 2024, MaxMem=  2684354560 cpu:               2.7 elap:               0.1
 (Enter /usr/local/g16_AVX//g16/l701.exe)
 ... and contract with generalized density number  0.
 Compute integral second derivatives.
 Leave Link  701 at Sun Oct 13 09:50:01 2024, MaxMem=  2684354560 cpu:               4.6 elap:               0.2
 (Enter /usr/local/g16_AVX//g16/l702.exe)
 L702 exits ... SP integral derivatives will be done elsewhere.
 Leave Link  702 at Sun Oct 13 09:50:01 2024, MaxMem=  2684354560 cpu:               0.4 elap:               0.0
 (Enter /usr/local/g16_AVX//g16/l703.exe)
 Integral derivatives from FoFJK, PRISM(SPDF).
 Compute integral second derivatives, UseDBF=F ICtDFT=           0.
 Calling FoFJK, ICntrl=    100127 FMM=F ISym2X=0 I1Cent= 0 IOpClX= 0 NMat=1 NMatS=1 NMatT=0.
 FoFJK:  IHMeth= 1 ICntrl=  100127 DoSepK=F KAlg= 0 I1Cent=           0 FoldK=F
 IRaf=         0 NMat=       1 IRICut=       1 DoRegI=T DoRafI=F ISym2E= 0 IDoP0=0 IntGTp=1.
 FoFCou: FMM=F IPFlag=           0 FMFlag=      100000 FMFlg1=         800
         NFxFlg=           0 DoJE=F BraDBF=F KetDBF=F FulRan=T
         wScrn=  0.000000 ICntrl=    100127 IOpCl=  0 I1Cent=           0 NGrid=           0
         NMat0=    1 NMatS0=      1 NMatT0=    0 NMatD0=    1 NMtDS0=    0 NMtDT0=    0
 Symmetry not used in FoFCou.
 Leave Link  703 at Sun Oct 13 09:50:05 2024, MaxMem=  2684354560 cpu:             109.2 elap:               4.2
 (Enter /usr/local/g16_AVX//g16/l716.exe)
 Dipole        = 6.08788378D-01 1.00920259D-05-3.93474111D-04
 Polarizability= 1.14319010D+02-8.43706516D-06 3.98545304D+01
                 4.71166083D-04-3.69608776D-06 3.98546159D+01
 Full mass-weighted force constant matrix:
 Low frequencies --- -464.2912  -37.4020  -37.3626   -0.0034    0.0014    0.0030
 Low frequencies ---  142.9329  168.3292  168.3406
 ******    1 imaginary frequencies (negative Signs) ****** 
 Diagonal vibrational polarizability:
      122.1869499      21.0240675      21.0287003
 Harmonic frequencies (cm**-1), IR intensities (KM/Mole), Raman scattering
 activities (A**4/AMU), depolarization ratios for plane and unpolarized
 incident light, reduced masses (AMU), force constants (mDyne/A),
 and normal coordinates:
                      1                      2                      3
                      A                      A                      A
 Frequencies --   -464.2912               158.6800               158.6970
 Red. masses --     11.6538                 5.5767                 5.5770
 Frc consts  --      1.4801                 0.0827                 0.0828
 IR Inten    --    876.8991                19.3717                19.3714
  Atom  AN      X      Y      Z        X      Y      Z        X      Y      Z
     1   6     0.85   0.00  -0.00     0.00   0.04   0.45    -0.00   0.45  -0.04
     2  17    -0.06  -0.00   0.00    -0.00  -0.01  -0.12     0.00  -0.12   0.01
     3   1     0.10  -0.00   0.09    -0.04   0.04   0.46     0.00   0.46  -0.04
     4   1     0.10  -0.08  -0.05     0.02   0.05   0.46     0.03   0.46  -0.04
     5   1     0.10   0.08  -0.05     0.02   0.04   0.46    -0.04   0.46  -0.04
     6   6    -0.33  -0.00   0.00    -0.00   0.02   0.18     0.00   0.18  -0.02
     7   7    -0.32   0.00  -0.00     0.00  -0.03  -0.34    -0.00  -0.34   0.03
                      4                      5                      6
                      A                      A                      A
 Frequencies --    235.9383               386.3685               386.3913
 Red. masses --     17.2012                 4.8353                 4.8354
 Frc consts  --      0.5642                 0.4253                 0.4253
 IR Inten    --     23.9856                 1.3561                 1.3568
  Atom  AN      X      Y      Z        X      Y      Z        X      Y      Z
     1   6    -0.31   0.00   0.00    -0.00  -0.01  -0.25     0.00  -0.25   0.01
     2  17     0.51  -0.00  -0.00     0.00   0.00   0.04    -0.00   0.04  -0.00
     3   1    -0.20   0.00  -0.01     0.45  -0.01  -0.34    -0.02  -0.35   0.01
     4   1    -0.19   0.01   0.01    -0.24  -0.01  -0.35    -0.38  -0.34   0.01
     5   1    -0.19  -0.01   0.01    -0.21  -0.01  -0.35     0.40  -0.34   0.01
     6   6    -0.51   0.00  -0.00    -0.00   0.02   0.48     0.00   0.48  -0.02
     7   7    -0.52  -0.00   0.00     0.00  -0.01  -0.21    -0.00  -0.21   0.01
                      7                      8                      9
                      A                      A                      A
 Frequencies --    996.1955               996.2015              1117.1474
 Red. masses --      1.1204                 1.1204                 1.0558
 Frc consts  --      0.6551                 0.6551                 0.7763
 IR Inten    --      0.0164                 0.0164                50.7920
  Atom  AN      X      Y      Z        X      Y      Z        X      Y      Z
     1   6    -0.00  -0.01   0.07     0.00  -0.07  -0.01    -0.04   0.00  -0.00
     2  17     0.00  -0.00   0.00     0.00  -0.00  -0.00    -0.01   0.00   0.00
     3   1     0.79   0.01  -0.05    -0.07   0.14   0.00     0.57   0.00  -0.09
     4   1    -0.34   0.05  -0.12     0.72   0.07  -0.03     0.57   0.08   0.04
     5   1    -0.46  -0.03  -0.12    -0.65   0.08   0.05     0.57  -0.08   0.04
     6   6     0.00   0.01  -0.07    -0.00   0.07   0.01    -0.02  -0.00   0.00
     7   7    -0.00  -0.00   0.01     0.00  -0.01  -0.00    -0.04   0.00  -0.00
                     10                     11                     12
                      A                      A                      A
 Frequencies --   1417.8538              1417.8885              2153.9831
 Red. masses --      1.0847                 1.0847                12.5726
 Frc consts  --      1.2848                 1.2848                34.3683
 IR Inten    --      5.5975                 5.5973                 2.9212
  Atom  AN      X      Y      Z        X      Y      Z        X      Y      Z
     1   6    -0.00   0.00  -0.08    -0.00  -0.08  -0.00     0.01   0.00  -0.00
     2  17     0.00  -0.00   0.00    -0.00   0.00   0.00    -0.00  -0.00   0.00
     3   1     0.19  -0.01  -0.10     0.00   0.78   0.00    -0.08  -0.00   0.03
     4   1    -0.10  -0.38   0.57    -0.17   0.12  -0.38    -0.08  -0.02  -0.01
     5   1    -0.10   0.38   0.56     0.17   0.13   0.39    -0.08   0.02  -0.01
     6   6     0.00   0.00  -0.00    -0.00  -0.00  -0.00     0.76  -0.00   0.00
     7   7    -0.00  -0.00   0.00    -0.00   0.00   0.00    -0.64   0.00  -0.00
                     13                     14                     15
                      A                      A                      A
 Frequencies --   3172.0081              3350.7808              3350.8213
 Red. masses --      1.0117                 1.1208                 1.1209
 Frc consts  --      5.9977                 7.4146                 7.4149
 IR Inten    --      2.8546                 1.9791                 1.9842
  Atom  AN      X      Y      Z        X      Y      Z        X      Y      Z
     1   6    -0.02  -0.00   0.00    -0.00   0.00  -0.10    -0.00  -0.10  -0.00
     2  17    -0.00  -0.00  -0.00    -0.00  -0.00   0.00     0.00   0.00   0.00
     3   1     0.08  -0.00   0.57     0.12  -0.00   0.80     0.00  -0.02   0.02
     4   1     0.08  -0.49  -0.29    -0.06   0.34   0.18    -0.11   0.61   0.36
     5   1     0.08   0.50  -0.28    -0.07  -0.37   0.20     0.11   0.59  -0.35
     6   6    -0.00   0.00  -0.00     0.00  -0.00   0.00     0.00   0.00   0.00
     7   7     0.00  -0.00  -0.00    -0.00   0.00  -0.00    -0.00  -0.00  -0.00

 -------------------
 - Thermochemistry -
 -------------------
 Temperature   298.150 Kelvin.  Pressure   1.00000 Atm.
 Atom     1 has atomic number  6 and mass  12.00000
 Atom     2 has atomic number 17 and mass  34.96885
 Atom     3 has atomic number  1 and mass   1.00783
 Atom     4 has atomic number  1 and mass   1.00783
 Atom     5 has atomic number  1 and mass   1.00783
 Atom     6 has atomic number  6 and mass  12.00000
 Atom     7 has atomic number  7 and mass  14.00307
 Molecular mass:    75.99540 amu.
 Principal axes and moments of inertia in atomic units:
                           1         2         3
     Eigenvalues --    12.258521431.497341431.49827
           X            1.00000   0.00000   0.00002
           Y            0.00000   0.99996  -0.00948
           Z           -0.00002   0.00948   0.99996
 This molecule is an asymmetric top.
 Rotational symmetry number  1.
 Rotational temperatures (Kelvin)      7.06561     0.06051     0.06051
 Rotational constants (GHZ):         147.22340     1.26074     1.26074
    1 imaginary frequencies ignored.
 Zero-point vibrational energy     115433.4 (Joules/Mol)
                                   27.58924 (Kcal/Mol)
 Warning -- explicit consideration of   5 degrees of freedom as
           vibrations may cause significant error
 Vibrational temperatures:    228.31   228.33   339.46   555.90   555.93
          (Kelvin)           1433.30  1433.31  1607.33  2039.98  2040.03
                             3099.10  4563.81  4821.03  4821.08
 
 Zero-point correction=                           0.043966 (Hartree/Particle)
 Thermal correction to Energy=                    0.049320
 Thermal correction to Enthalpy=                  0.050264
 Thermal correction to Gibbs Free Energy=         0.015624
 Sum of electronic and zero-point Energies=           -592.961056
 Sum of electronic and thermal Energies=              -592.955702
 Sum of electronic and thermal Enthalpies=            -592.954758
 Sum of electronic and thermal Free Energies=         -592.989399
 
                     E (Thermal)             CV                S
                      KCal/Mol        Cal/Mol-Kelvin    Cal/Mol-Kelvin
 Total                   30.949             15.766             72.907
 Electronic               0.000              0.000              0.000
 Translational            0.889              2.981             38.900
 Rotational               0.889              2.981             24.733
 Vibrational             29.171              9.804              9.274
 Vibration     1          0.621              1.893              2.565
 Vibration     2          0.621              1.893              2.565
 Vibration     3          0.655              1.786              1.833
 Vibration     4          0.755              1.499              1.014
 Vibration     5          0.755              1.499              1.014
                       Q            Log10(Q)             Ln(Q)
 Total Bot       0.651106D-07         -7.186348        -16.547178
 Total V=0       0.108820D+14         13.036707         30.018128
 Vib (Bot)       0.440719D-19        -19.355838        -44.568465
 Vib (Bot)    1  0.127456D+01          0.105360          0.242601
 Vib (Bot)    2  0.127442D+01          0.105311          0.242488
 Vib (Bot)    3  0.832594D+00         -0.079567         -0.183209
 Vib (Bot)    4  0.465866D+00         -0.331739         -0.763857
 Vib (Bot)    5  0.465831D+00         -0.331771         -0.763932
 Vib (V=0)       0.736575D+01          0.867217          1.996842
 Vib (V=0)    1  0.186912D+01          0.271638          0.625470
 Vib (V=0)    2  0.186899D+01          0.271607          0.625399
 Vib (V=0)    3  0.147119D+01          0.167669          0.386073
 Vib (V=0)    4  0.118340D+01          0.073130          0.168389
 Vib (V=0)    5  0.118337D+01          0.073122          0.168369
 Electronic      0.100000D+01          0.000000          0.000000
 Translational   0.260396D+08          7.415635         17.075130
 Rotational      0.567356D+05          4.753855         10.946156
 
                                                      RxCoord=-1.99953 DE=41.60
                                                             IR Spectrum
 
      3     3                                      2                           1          1                                          
      3     1                                      1                           4          1    9                      3     2 1      
      5     7                                      5                           1          1    9                      8     3 5      
      1     2                                      4                           8          7    6                      6     6 9      
 
      X     X                                      X                           X          X                           X     X X      
      X                                                                        X          X                                 X X      
                                                                               X          X                                 X X      
                                                                               X          X                                 X X      
                                                                                          X                                 X X      
                                                                                          X                                 X X      
                                                                                          X                                 X X      
                                                                                          X                                 X X      
                                                                                          X                                 X X      
                                                                                          X                                   X      
                                                                                          X                                   X      
                                                                                          X                                   X      
                                                                                          X                                   X      
                                                                                          X                                   X      
                                                                                          X                                   X      
                                                                                          X                                          
                                                                                          X                                          
                                                                                          X                                          
                                                                                          X                                          
                                                                                          X                                          
 
 -------------------------------------------------------------------
 Center     Atomic                   Forces (Hartrees/Bohr)
 Number     Number              X              Y              Z
 -------------------------------------------------------------------
      1        6           0.055049838   -0.000000198   -0.000011602
      2       17          -0.017105258    0.000000070    0.000002873
      3        1          -0.000079590   -0.000003446    0.001557418
      4        1          -0.000078195   -0.001357029   -0.000778105
      5        1          -0.000076987    0.001360949   -0.000771703
      6        6          -0.016283095   -0.000000674    0.000011988
      7        7          -0.021426713    0.000000328   -0.000010868
 -------------------------------------------------------------------
 Cartesian Forces:  Max     0.055049838 RMS     0.013895283
 Z-matrix is all fixed cartesians, so copy forces.
 Force constants in Cartesian coordinates: 
                1             2             3             4             5 
      1 -0.408573D-01
      2  0.367221D-05  0.673040D+00
      3  0.234727D-04  0.110387D-05  0.672967D+00
      4  0.179321D-01  0.000000D+00 -0.225491D-05  0.444615D-01
      5  0.000000D+00 -0.571382D-02  0.000000D+00  0.000000D+00  0.447644D-03
      6 -0.749938D-05  0.000000D+00 -0.571172D-02  0.177215D-05  0.000000D+00
      7 -0.207377D-01  0.115567D-03 -0.496866D-01 -0.121039D-01 -0.841109D-05
      8  0.110211D-03 -0.510198D-01  0.732207D-03  0.298709D-05 -0.349568D-03
      9 -0.474845D-01  0.732187D-03 -0.365880D+00 -0.134554D-02 -0.498690D-05
     10 -0.207257D-01  0.429683D-01  0.249354D-01 -0.121125D-01 -0.303272D-02
     11  0.410621D-01 -0.286555D+00 -0.136702D+00  0.116158D-02  0.131218D-02
     12  0.238314D-01 -0.136700D+00 -0.130358D+00  0.674661D-03  0.967627D-03
     13 -0.207268D-01 -0.430877D-01  0.247371D-01 -0.121133D-01  0.304125D-02
     14 -0.411766D-01 -0.287822D+00  0.135969D+00 -0.116411D-02  0.132054D-02
     15  0.236419D-01  0.135966D+00 -0.129089D+00  0.669311D-03 -0.962346D-03
     16  0.570677D-01  0.000000D+00  0.000000D+00 -0.189243D-01  0.000000D+00
     17  0.000000D+00 -0.517659D-01  0.000000D+00  0.000000D+00  0.369208D-02
     18 -0.205782D-04  0.000000D+00 -0.517649D-01  0.657341D-05  0.000000D+00
     19  0.280476D-01  0.000000D+00 -0.791985D-05 -0.713974D-02  0.000000D+00
     20  0.000000D+00  0.983612D-02  0.000000D+00  0.000000D+00 -0.709058D-03
     21  0.158495D-04  0.000000D+00  0.983634D-02 -0.452757D-05  0.000000D+00
                6             7             8             9            10 
      6  0.444728D-03
      7  0.350682D-02  0.479994D-01
      8 -0.497039D-05 -0.118947D-03  0.450379D-01
      9  0.187003D-02  0.512797D-01 -0.765456D-03  0.374066D+00
     10 -0.175992D-02  0.212520D-02 -0.515815D-02 -0.216710D-02  0.479988D-01
     11  0.967768D-03 -0.727935D-03  0.373089D-02  0.369813D-02 -0.443451D-01
     12  0.211656D-03  0.554796D-02 -0.233989D-01 -0.776615D-02 -0.257366D-01
     13 -0.174569D-02  0.212535D-02  0.516807D-02 -0.214319D-02  0.212517D-02
     14 -0.962511D-03  0.702011D-03  0.363884D-02 -0.364495D-02 -0.444164D-02
     15  0.202635D-03  0.555148D-02  0.234519D-01 -0.767431D-02 -0.340371D-02
     16  0.325613D-05 -0.168870D-01  0.000000D+00  0.454170D-03 -0.168917D-01
     17  0.000000D+00  0.433295D-04 -0.147022D-02 -0.198134D-04  0.161099D-01
     18  0.369165D-02 -0.186271D-01 -0.197019D-04  0.705807D-02  0.935279D-02
     19  0.124953D-05 -0.252149D-02 -0.324470D-05  0.140643D-02 -0.251924D-02
     20  0.000000D+00 -0.561533D-05  0.431956D-03  0.488293D-05 -0.210061D-02
     21 -0.708983D-03  0.242773D-02  0.488216D-05 -0.167388D-02 -0.122085D-02
               11            12            13            14            15 
     11  0.291163D+00
     12  0.142849D+00  0.127944D+00
     13  0.445728D-02 -0.338293D-02  0.480000D-01
     14 -0.134162D-01  0.134941D-01  0.444677D-01  0.292487D+00
     15 -0.136001D-01  0.938752D-02 -0.255318D-01 -0.142082D+00  0.126619D+00
     16 -0.392153D-03 -0.228708D-03 -0.168914D-01  0.393565D-03 -0.226969D-03
     17  0.490912D-02  0.370270D-02 -0.161528D-01  0.494374D-02 -0.368294D-02
     18  0.370282D-02  0.679836D-03  0.927756D-02 -0.368316D-02  0.645441D-03
     19 -0.121579D-02 -0.705821D-03 -0.251907D-02  0.121911D-02 -0.700153D-03
     20 -0.114349D-02 -0.914380D-03  0.210626D-02 -0.115203D-02  0.909497D-03
     21 -0.914909D-03 -0.992888D-04 -0.121101D-02  0.910028D-03 -0.907867D-04
               16            17            18            19            20 
     16  0.114478D+01
     17 -0.960905D-05  0.634655D-01
     18  0.352655D-03  0.000000D+00  0.634643D-01
     19 -0.113225D+01  0.892225D-05 -0.341897D-03  0.111891D+01
     20  0.935935D-05 -0.237743D-01  0.000000D+00 -0.912487D-05  0.165108D-01
     21 -0.355301D-03  0.000000D+00 -0.237744D-01  0.348112D-03  0.000000D+00
               21 
     21  0.165110D-01
 Leave Link  716 at Sun Oct 13 09:50:05 2024, MaxMem=  2684354560 cpu:               0.6 elap:               0.1
 (Enter /usr/local/g16_AVX//g16/l103.exe)

 GradGradGradGradGradGradGradGradGradGradGradGradGradGradGradGradGradGrad
 Berny optimization.
 Search for a local minimum.
 Step number   1 out of a maximum of    2
 All quantities printed in internal units (Hartrees-Bohrs-Radians)
 Second derivative matrix not updated -- analytic derivatives used.
 ITU=  0
     Eigenvalues ---   -0.09828   0.00612   0.00612   0.02598   0.02598
     Eigenvalues ---    0.04797   0.06643   0.08510   0.08510   0.11267
     Eigenvalues ---    0.11268   0.39793   0.97530   0.97538   2.26366
 Eigenvalue     1 is  -9.83D-02 should be greater than     0.000000 Eigenvector:
                          X1        X6        X7        X2        Z3
   1                    0.85232  -0.34449  -0.33801  -0.11862   0.08179
                          Y5        Y4        X3        X4        X5
   1                    0.07097  -0.07077   0.04655   0.04644   0.04644
 Quadratic step=6.599D-01 exceeds max=3.000D-01 adjusted using Lamda=-1.131D-01.
 Angle between NR and scaled steps=   5.52 degrees.
 Angle between quadratic step and forces=   7.32 degrees.
 Linear search not attempted -- first point.
 B after Tr=    -0.009313    0.000000   -0.000004
         Rot=    1.000000    0.000000    0.000000    0.000000 Ang=   0.00 deg.
 Variable       Old X    -DE/DX   Delta X   Delta X   Delta X     New X
                                 (Linear)    (Quad)   (Total)
    X1        0.54228   0.05505   0.00000   0.26970   0.26039   0.80267
    Y1        0.00001  -0.00000   0.00000  -0.00000  -0.00000   0.00001
    Z1       -0.00045  -0.00001   0.00000  -0.00003  -0.00003  -0.00049
    X2       -4.23323  -0.01711   0.00000  -0.07337  -0.08269  -4.31592
    Y2       -0.00000   0.00000   0.00000   0.00000   0.00000  -0.00000
    Z2        0.00021   0.00000   0.00000   0.00001  -0.00000   0.00021
    X3        0.22267  -0.00008   0.00000   0.00517  -0.00414   0.21852
    Y3        0.00470  -0.00000   0.00000  -0.00004  -0.00004   0.00465
    Z3       -2.01401   0.00156   0.00000   0.01928   0.01928  -1.99473
    X4        0.22268  -0.00008   0.00000   0.00519  -0.00413   0.21855
    Y4        1.74153  -0.00136   0.00000  -0.01673  -0.01673   1.72480
    Z4        1.01027  -0.00078   0.00000  -0.00966  -0.00966   1.00061
    X5        0.22265  -0.00008   0.00000   0.00519  -0.00412   0.21853
    Y5       -1.74619   0.00136   0.00000   0.01678   0.01678  -1.72941
    Z5        1.00215  -0.00077   0.00000  -0.00958  -0.00959   0.99257
    X6        4.21660  -0.01628   0.00000  -0.07361  -0.08292   4.13368
    Y6        0.00001  -0.00000   0.00000  -0.00000  -0.00000   0.00000
    Z6       -0.00040   0.00001   0.00000   0.00005   0.00005  -0.00035
    X7        6.44512  -0.02143   0.00000  -0.07308  -0.08240   6.36272
    Y7       -0.00001   0.00000   0.00000   0.00000   0.00000  -0.00001
    Z7        0.00032  -0.00001   0.00000  -0.00004  -0.00004   0.00028
         Item               Value     Threshold  Converged?
 Maximum Force            0.055050     0.000450     NO 
 RMS     Force            0.013895     0.000300     NO 
 Maximum Displacement     0.260389     0.001800     NO 
 RMS     Displacement     0.065274     0.001200     NO 
 Predicted change in Energy=-2.307351D-02
 GradGradGradGradGradGradGradGradGradGradGradGradGradGradGradGradGradGrad

 Leave Link  103 at Sun Oct 13 09:50:05 2024, MaxMem=  2684354560 cpu:               0.5 elap:               0.1
 (Enter /usr/local/g16_AVX//g16/l9999.exe)

 ----------------------------------------------------------------------

 Electric dipole moment (input orientation):
 (Debye = 10**-18 statcoulomb cm , SI units = C m)
                  (au)            (Debye)         (10**-30 SI)
   Tot        0.608789D+00      0.154739D+01      0.516152D+01
   x          0.608788D+00      0.154739D+01      0.516152D+01
   y          0.100920D-04      0.256514D-04      0.855638D-04
   z         -0.393474D-03     -0.100011D-02     -0.333601D-02

 Dipole polarizability, Alpha (input orientation).
 (esu units = cm**3 , SI units = C**2 m**2 J**-1)
 Alpha(0;0):
               (au)            (10**-24 esu)      (10**-40 SI)
   iso        0.646761D+02      0.958400D+01      0.106636D+02
   aniso      0.744644D+02      0.110345D+02      0.122775D+02
   xx         0.114319D+03      0.169403D+02      0.188487D+02
   yx         0.000000D+00      0.000000D+00      0.000000D+00
   yy         0.398545D+02      0.590583D+01      0.657112D+01
   zx         0.471166D-03      0.698196D-04      0.776848D-04
   zy         0.000000D+00      0.000000D+00      0.000000D+00
   zz         0.398546D+02      0.590584D+01      0.657114D+01

 ----------------------------------------------------------------------

 Dipole orientation:
     6          0.00010305          0.00000424          0.54227977
    17          0.00252628          0.00006644         -4.23323332
     1          2.01386711          0.00472755          0.22396816
     1         -1.01044286          1.74151336          0.22205552
     1         -1.00226862         -1.74620850          0.22197271
     6         -0.00232845         -0.00006238          4.21660386
     7         -0.00448688         -0.00011825          6.44511726

 Electric dipole moment (dipole orientation):
 (Debye = 10**-18 statcoulomb cm , SI units = C m)
                  (au)            (Debye)         (10**-30 SI)
   Tot        0.608789D+00      0.154739D+01      0.516152D+01
   x          0.000000D+00      0.000000D+00      0.000000D+00
   y          0.000000D+00      0.000000D+00      0.000000D+00
   z          0.608789D+00      0.154739D+01      0.516152D+01

 Dipole polarizability, Alpha (dipole orientation).
 (esu units = cm**3 , SI units = C**2 m**2 J**-1)
 Alpha(0;0):
               (au)            (10**-24 esu)      (10**-40 SI)
   iso        0.646761D+02      0.958400D+01      0.106636D+02
   aniso      0.744644D+02      0.110345D+02      0.122775D+02
   xx         0.398546D+02      0.590585D+01      0.657114D+01
   yx         0.000000D+00      0.000000D+00      0.000000D+00
   yy         0.398545D+02      0.590583D+01      0.657112D+01
   zx        -0.485992D-01     -0.720166D-02     -0.801293D-02
   zy        -0.124365D-02     -0.184291D-03     -0.205051D-03
   zz         0.114319D+03      0.169403D+02      0.188487D+02

 ----------------------------------------------------------------------
 1\1\GINC-NODO11\Freq\RB3LYP\6-31++G(d,p)\C2H3Cl1N1(1-)\ALANQF\13-Oct-2
 024\0\\#p b3lyp 6-31++g(d,p) scf=verytight NoSymm freq=noraman int=ult
 rafine\\RxCoord=-1.99953 DE=41.60\\-1,1\C,0.286962,0.000007,-0.00024\C
 l,-2.240131,-0.000002,0.000111\H,0.11783,0.002486,-1.065769\H,0.117837
 ,0.92158,0.534612\H,0.117821,-0.924043,0.530317\C,2.231331,0.000004,-0
 .00021\N,3.41061,-0.000006,0.00017\\Version=ES64L-G16RevB.01\HF=-593.0
 050221\RMSD=4.344e-09\RMSF=1.390e-02\ZeroPoint=0.0439663\Thermal=0.049
 32\Dipole=0.6696128,0.0000107,-0.0004159\DipoleDeriv=2.9491363,0.00000
 23,-0.0001528,-0.0000045,0.0967987,0.0000004,-0.0001178,0.0000003,0.09
 68584,-1.6126834,0.,0.0000414,-0.0000021,-0.796126,0.,0.0000911,0.,-0.
 7961275,-0.1080595,-0.0000315,0.0134765,-0.0000334,0.0766471,0.0000681
 ,0.0150521,0.0000684,0.0473518,-0.1080474,-0.0116518,-0.0067569,-0.013
 0652,0.0547749,-0.0126964,-0.0075786,-0.0126898,0.0692731,-0.1080397,0
 .0116822,-0.0067018,0.0131074,0.0546578,0.012628,-0.00752,0.0126213,0.
 0693913,-1.1078341,0.0000007,0.0000131,-0.0000113,-0.1082013,-0.000000
 2,0.0004184,-0.0000002,-0.1081988,-0.9044721,-0.0000019,0.0000804,0.00
 0009,-0.3785513,0.,-0.0003453,0.,-0.3785484\Polar=114.31901,-0.0000084
 ,39.8545304,0.0004712,-0.0000037,39.8546159\Quadrupole=-25.1282149,12.
 5643131,12.5639018,0.0000322,-0.0001352,0.0000022\PG=C01 [X(C2H3Cl1N1)
 ]\NImag=1\\-0.04085734,0.00000367,0.67304028,0.00002347,0.00000110,0.6
 7296708,0.01793211,0.00000006,-0.00000225,0.04446153,0.00000047,-0.005
 71382,0.,-0.00000042,0.00044764,-0.00000750,0.00000002,-0.00571172,0.0
 0000177,-0.00000029,0.00044473,-0.02073765,0.00011557,-0.04968663,-0.0
 1210385,-0.00000841,0.00350682,0.04799942,0.00011021,-0.05101979,0.000
 73221,0.00000299,-0.00034957,-0.00000497,-0.00011895,0.04503790,-0.047
 48451,0.00073219,-0.36587970,-0.00134554,-0.00000499,0.00187003,0.0512
 7974,-0.00076546,0.37406593,-0.02072569,0.04296834,0.02493536,-0.01211
 251,-0.00303272,-0.00175992,0.00212520,-0.00515815,-0.00216710,0.04799
 876,0.04106210,-0.28655514,-0.13670227,0.00116158,0.00131218,0.0009677
 7,-0.00072793,0.00373089,0.00369813,-0.04434507,0.29116259,0.02383140,
 -0.13669972,-0.13035798,0.00067466,0.00096763,0.00021166,0.00554796,-0
 .02339889,-0.00776615,-0.02573657,0.14284858,0.12794440,-0.02072681,-0
 .04308771,0.02473708,-0.01211326,0.00304125,-0.00174569,0.00212535,0.0
 0516807,-0.00214319,0.00212517,0.00445728,-0.00338293,0.04800004,-0.04
 117658,-0.28782173,0.13596894,-0.00116411,0.00132054,-0.00096251,0.000
 70201,0.00363884,-0.00364495,-0.00444164,-0.01341615,0.01349408,0.0444
 6765,0.29248679,0.02364187,0.13596641,-0.12908907,0.00066931,-0.000962
 35,0.00020264,0.00555148,0.02345192,-0.00767431,-0.00340371,-0.0136001
 2,0.00938752,-0.02553182,-0.14208243,0.12661856,0.05706774,-0.00000011
 ,0.00000090,-0.01892427,-0.00000012,0.00000326,-0.01688698,-0.00000093
 ,0.00045417,-0.01689169,-0.00039215,-0.00022871,-0.01689143,0.00039357
 ,-0.00022697,1.14478042,0.00000052,-0.05176593,0.,-0.00000022,0.003692
 08,-0.00000001,0.00004333,-0.00147022,-0.00001981,0.01610986,0.0049091
 2,0.00370270,-0.01615281,0.00494374,-0.00368294,-0.00000961,0.06346552
 ,-0.00002058,0.,-0.05176495,0.00000657,-0.00000001,0.00369165,-0.01862
 711,-0.00001970,0.00705807,0.00935279,0.00370282,0.00067984,0.00927756
 ,-0.00368316,0.00064544,0.00035265,0.00000007,0.06346430,0.02804764,0.
 00000018,-0.00000792,-0.00713974,-0.00000004,0.00000125,-0.00252149,-0
 .00000324,0.00140643,-0.00251924,-0.00121579,-0.00070582,-0.00251907,0
 .00121911,-0.00070015,-1.13225379,0.00000892,-0.00034190,1.11890569,-0
 .00000039,0.00983612,0.,0.00000013,-0.00070906,0.,-0.00000562,0.000431
 96,0.00000488,-0.00210061,-0.00114349,-0.00091438,0.00210626,-0.001152
 03,0.00090950,0.00000936,-0.02377431,0.,-0.00000912,0.01651081,0.00001
 585,0.,0.00983634,-0.00000453,0.,-0.00070898,0.00242773,0.00000488,-0.
 00167388,-0.00122085,-0.00091491,-0.00009929,-0.00121101,0.00091003,-0
 .00009079,-0.00035530,0.,-0.02377435,0.00034811,0.,0.01651095\\-0.0550
 4984,0.00000020,0.00001160,0.01710526,-0.00000007,-0.00000287,0.000079
 59,0.00000345,-0.00155742,0.00007819,0.00135703,0.00077811,0.00007699,
 -0.00136095,0.00077170,0.01628310,0.00000067,-0.00001199,0.02142671,-0
 .00000033,0.00001087\\\@


 QUANTUM MECHANICS IS BOHRING -- M.S. GORDON
 Job cpu time:       0 days  0 hours  5 minutes 35.8 seconds.
 Elapsed time:       0 days  0 hours  0 minutes 14.0 seconds.
 File lengths (MBytes):  RWF=     88 Int=      0 D2E=      0 Chk=      2 Scr=      2
 Normal termination of Gaussian 16 at Sun Oct 13 09:50:06 2024.
