RxCoord=-1.89955 DE=42.92                                               
Freq      RB3LYP                                                      6-31++G(d,p)        
Number of atoms                            I                7
Info1-9                                    I   N=           9
          16          16           0           0           0         100
           6          18        -502
Full Title                                 C   N=           3
RxCoord=-1.89955 DE=42.92           
Route                                      C   N=           6
#p b3lyp 6-31++g(d,p) scf=verytight NoSymm freq=noraman int=
ultrafine   
Charge                                     I               -1
Multiplicity                               I                1
Number of electrons                        I               40
Number of alpha electrons                  I               20
Number of beta electrons                   I               20
Number of basis functions                  I               98
Number of independent functions            I               98
Number of point charges in /Mol/           I                0
Number of translation vectors              I                0
Atomic numbers                             I   N=           7
           6          17           1           1           1           6
           7
Nuclear charges                            R   N=           7
  6.00000000E+00  1.70000000E+01  1.00000000E+00  1.00000000E+00  1.00000000E+00
  6.00000000E+00  7.00000000E+00
Current cartesian coordinates              R   N=          21
  5.16654902E-01  1.32280829E-05 -4.53534270E-04 -4.23026531E+00 -3.77945225E-06
  2.07869874E-04  2.19402872E-01  4.70541805E-03 -2.01666092E+00  2.19414211E-01
  1.74382982E+00  1.01160063E+00  2.19385865E-01 -1.74849177E+00  1.00347103E+00
  4.22497975E+00  7.55890450E-06 -4.00621938E-04  6.45319551E+00 -1.13383567E-05
  3.25032893E-04
Number of symbols in /Mol/                 I                0
Force Field                                I                0
Atom Types                                 C   N=           7
                                                            
                        
Int Atom Types                             I   N=           7
           0           0           0           0           0           0
           0
MM charges                                 R   N=           7
  0.00000000E+00  0.00000000E+00  0.00000000E+00  0.00000000E+00  0.00000000E+00
  0.00000000E+00  0.00000000E+00
Integer atomic weights                     I   N=           7
          12          35           1           1           1          12
          14
Real atomic weights                        R   N=           7
  1.20000000E+01  3.49688527E+01  1.00782504E+00  1.00782504E+00  1.00782504E+00
  1.20000000E+01  1.40030740E+01
Atom fragment info                         I   N=           7
           0           0           0           0           0           0
           0
Atom residue num                           I   N=           7
           0           0           0           0           0           0
           0
Nuclear spins                              I   N=           7
           0           3           1           1           1           0
           2
Nuclear ZEff                               R   N=           7
 -3.60000000E+00 -1.42400000E+01 -1.00000000E+00 -1.00000000E+00 -1.00000000E+00
 -3.60000000E+00 -4.55000000E+00
Nuclear ZNuc                               R   N=           7
  6.00000000E+00  1.70000000E+01  1.00000000E+00  1.00000000E+00  1.00000000E+00
  6.00000000E+00  7.00000000E+00
Nuclear QMom                               R   N=           7
  0.00000000E+00 -8.16500000E+00  0.00000000E+00  0.00000000E+00  0.00000000E+00
  0.00000000E+00  2.04400000E+00
Nuclear GFac                               R   N=           7
  0.00000000E+00  8.21874000E-01  2.79284600E+00  2.79284600E+00  2.79284600E+00
  0.00000000E+00  4.03761000E-01
MicOpt                                     I   N=           7
          -1          -1          -1          -1          -1          -1
          -1
Number of residues                         I                0
Number of secondary structures             I                0
Number of contracted shells                I               33
Number of primitive shells                 I               72
Pure/Cartesian d shells                    I                1
Pure/Cartesian f shells                    I                0
Highest angular momentum                   I                2
Largest degree of contraction              I                6
Shell types                                I   N=          33
           0          -1          -1          -1           2           0
          -1          -1          -1          -1           2           0
           0           0           1           0           0           0
           1           0           0           0           1           0
          -1          -1          -1           2           0          -1
          -1          -1           2
Number of primitives per shell             I   N=          33
           6           3           1           1           1           6
           6           3           1           1           1           3
           1           1           1           3           1           1
           1           3           1           1           1           6
           3           1           1           1           6           3
           1           1           1
Shell to atom map                          I   N=          33
           1           1           1           1           1           2
           2           2           2           2           2           3
           3           3           3           4           4           4
           4           5           5           5           5           6
           6           6           6           6           7           7
           7           7           7
Primitive exponents                        R   N=          72
  3.04752488E+03  4.57369518E+02  1.03948685E+02  2.92101553E+01  9.28666296E+00
  3.16392696E+00  7.86827235E+00  1.88128854E+00  5.44249258E-01  1.68714478E-01
  4.38000000E-02  8.00000000E-01  2.51801000E+04  3.78035000E+03  8.60474000E+02
  2.42145000E+02  7.73349000E+01  2.62470000E+01  4.91765000E+02  1.16984000E+02
  3.74153000E+01  1.37834000E+01  5.45215000E+00  2.22588000E+00  3.18649000E+00
  1.14427000E+00  4.20377000E-01  1.42657000E-01  4.83000000E-02  7.50000000E-01
  1.87311370E+01  2.82539436E+00  6.40121692E-01  1.61277759E-01  3.60000000E-02
  1.10000000E+00  1.87311370E+01  2.82539436E+00  6.40121692E-01  1.61277759E-01
  3.60000000E-02  1.10000000E+00  1.87311370E+01  2.82539436E+00  6.40121692E-01
  1.61277759E-01  3.60000000E-02  1.10000000E+00  3.04752488E+03  4.57369518E+02
  1.03948685E+02  2.92101553E+01  9.28666296E+00  3.16392696E+00  7.86827235E+00
  1.88128854E+00  5.44249258E-01  1.68714478E-01  4.38000000E-02  8.00000000E-01
  4.17351146E+03  6.27457911E+02  1.42902093E+02  4.02343293E+01  1.28202129E+01
  4.39043701E+00  1.16263619E+01  2.71627981E+00  7.72218397E-01  2.12031498E-01
  6.39000000E-02  8.00000000E-01
Contraction coefficients                   R   N=          72
  1.83473713E-03  1.40373228E-02  6.88426223E-02  2.32184443E-01  4.67941348E-01
  3.62311985E-01 -1.19332420E-01 -1.60854152E-01  1.14345644E+00  1.00000000E+00
  1.00000000E+00  1.00000000E+00  1.83295985E-03  1.40341988E-02  6.90973943E-02
  2.37451980E-01  4.83033960E-01  3.39855972E-01 -2.29739142E-03 -3.07137189E-02
 -1.12528069E-01  4.50163278E-02  5.89353363E-01  4.65206287E-01 -2.51828028E-01
  6.15892514E-02  1.06018433E+00  1.00000000E+00  1.00000000E+00  1.00000000E+00
  3.34946043E-02  2.34726953E-01  8.13757326E-01  1.00000000E+00  1.00000000E+00
  1.00000000E+00  3.34946043E-02  2.34726953E-01  8.13757326E-01  1.00000000E+00
  1.00000000E+00  1.00000000E+00  3.34946043E-02  2.34726953E-01  8.13757326E-01
  1.00000000E+00  1.00000000E+00  1.00000000E+00  1.83473713E-03  1.40373228E-02
  6.88426223E-02  2.32184443E-01  4.67941348E-01  3.62311985E-01 -1.19332420E-01
 -1.60854152E-01  1.14345644E+00  1.00000000E+00  1.00000000E+00  1.00000000E+00
  1.83477216E-03  1.39946270E-02  6.85865518E-02  2.32240873E-01  4.69069948E-01
  3.60455199E-01 -1.14961182E-01 -1.69117479E-01  1.14585195E+00  1.00000000E+00
  1.00000000E+00  1.00000000E+00
P(S=P) Contraction coefficients            R   N=          72
  0.00000000E+00  0.00000000E+00  0.00000000E+00  0.00000000E+00  0.00000000E+00
  0.00000000E+00  6.89990666E-02  3.16423961E-01  7.44308291E-01  1.00000000E+00
  1.00000000E+00  0.00000000E+00  0.00000000E+00  0.00000000E+00  0.00000000E+00
  0.00000000E+00  0.00000000E+00  0.00000000E+00  3.98940088E-03  3.03177067E-02
  1.29880029E-01  3.27951072E-01  4.53527100E-01  2.52154056E-01 -1.42993147E-02
  3.23572333E-01  7.43507765E-01  1.00000000E+00  1.00000000E+00  0.00000000E+00
  0.00000000E+00  0.00000000E+00  0.00000000E+00  0.00000000E+00  0.00000000E+00
  0.00000000E+00  0.00000000E+00  0.00000000E+00  0.00000000E+00  0.00000000E+00
  0.00000000E+00  0.00000000E+00  0.00000000E+00  0.00000000E+00  0.00000000E+00
  0.00000000E+00  0.00000000E+00  0.00000000E+00  0.00000000E+00  0.00000000E+00
  0.00000000E+00  0.00000000E+00  0.00000000E+00  0.00000000E+00  6.89990666E-02
  3.16423961E-01  7.44308291E-01  1.00000000E+00  1.00000000E+00  0.00000000E+00
  0.00000000E+00  0.00000000E+00  0.00000000E+00  0.00000000E+00  0.00000000E+00
  0.00000000E+00  6.75797439E-02  3.23907296E-01  7.40895140E-01  1.00000000E+00
  1.00000000E+00  0.00000000E+00
Coordinates of each shell                  R   N=          99
  5.16654902E-01  1.32280829E-05 -4.53534270E-04  5.16654902E-01  1.32280829E-05
 -4.53534270E-04  5.16654902E-01  1.32280829E-05 -4.53534270E-04  5.16654902E-01
  1.32280829E-05 -4.53534270E-04  5.16654902E-01  1.32280829E-05 -4.53534270E-04
 -4.23026531E+00 -3.77945225E-06  2.07869874E-04 -4.23026531E+00 -3.77945225E-06
  2.07869874E-04 -4.23026531E+00 -3.77945225E-06  2.07869874E-04 -4.23026531E+00
 -3.77945225E-06  2.07869874E-04 -4.23026531E+00 -3.77945225E-06  2.07869874E-04
 -4.23026531E+00 -3.77945225E-06  2.07869874E-04  2.19402872E-01  4.70541805E-03
 -2.01666092E+00  2.19402872E-01  4.70541805E-03 -2.01666092E+00  2.19402872E-01
  4.70541805E-03 -2.01666092E+00  2.19402872E-01  4.70541805E-03 -2.01666092E+00
  2.19414211E-01  1.74382982E+00  1.01160063E+00  2.19414211E-01  1.74382982E+00
  1.01160063E+00  2.19414211E-01  1.74382982E+00  1.01160063E+00  2.19414211E-01
  1.74382982E+00  1.01160063E+00  2.19385865E-01 -1.74849177E+00  1.00347103E+00
  2.19385865E-01 -1.74849177E+00  1.00347103E+00  2.19385865E-01 -1.74849177E+00
  1.00347103E+00  2.19385865E-01 -1.74849177E+00  1.00347103E+00  4.22497975E+00
  7.55890450E-06 -4.00621938E-04  4.22497975E+00  7.55890450E-06 -4.00621938E-04
  4.22497975E+00  7.55890450E-06 -4.00621938E-04  4.22497975E+00  7.55890450E-06
 -4.00621938E-04  4.22497975E+00  7.55890450E-06 -4.00621938E-04  6.45319551E+00
 -1.13383567E-05  3.25032893E-04  6.45319551E+00 -1.13383567E-05  3.25032893E-04
  6.45319551E+00 -1.13383567E-05  3.25032893E-04  6.45319551E+00 -1.13383567E-05
  3.25032893E-04  6.45319551E+00 -1.13383567E-05  3.25032893E-04
Num ILSW                                   I              100
ILSW                                       I   N=         100
           0           1           0           0           2           0
           0           0           0           0         402          -1
           5           0           0           0           2           0
           0           0           0           0           1           0
           1           1           0           0           0           0
           0           0      100000           0          -1           0
           0           0           0           0           0           0
           0           0           0           1           0           0
           0 -2000000000           1           0           0           0
           0           0           4          52           0           0
           0           0           5           0           0           0
           0           0           0           7           0           1
           0           0           0           0           0           0
           0           0           0           0           0           0
           0           0           0           0           0           0
           0           0           0           0           0           0
           0           0           0           0
Num RLSW                                   I               52
RLSW                                       R   N=          52
  8.00000000E-01  7.20000000E-01  1.00000000E+00  8.10000000E-01  2.00000000E-01
  0.00000000E+00  0.00000000E+00  1.00000000E+00  0.00000000E+00  0.00000000E+00
  0.00000000E+00  0.00000000E+00  1.00000000E+00  0.00000000E+00  0.00000000E+00
  0.00000000E+00  0.00000000E+00  1.00000000E+00  0.00000000E+00  0.00000000E+00
  0.00000000E+00  0.00000000E+00  1.00000000E+00  0.00000000E+00  0.00000000E+00
  0.00000000E+00  0.00000000E+00  1.00000000E+00  0.00000000E+00  0.00000000E+00
  0.00000000E+00  0.00000000E+00  1.00000000E+00  0.00000000E+00  0.00000000E+00
  0.00000000E+00  0.00000000E+00  0.00000000E+00  1.00000000E+00  1.00000000E+00
  0.00000000E+00  1.00000000E+00  0.00000000E+00  0.00000000E+00  0.00000000E+00
  0.00000000E+00  0.00000000E+00  0.00000000E+00  0.00000000E+00  0.00000000E+00
  0.00000000E+00  0.00000000E+00
MxBond                                     I                3
NBond                                      I   N=           7
           3           0           1           1           1           1
           1
IBond                                      I   N=          21
           3           4           5           0           0           0
           1           0           0           1           0           0
           1           0           0           7           0           0
           6           0           0
RBond                                      R   N=          21
  1.00000000E+00  1.00000000E+00  1.00000000E+00  0.00000000E+00  0.00000000E+00
  0.00000000E+00  1.00000000E+00  0.00000000E+00  0.00000000E+00  1.00000000E+00
  0.00000000E+00  0.00000000E+00  1.00000000E+00  0.00000000E+00  0.00000000E+00
  2.00000000E+00  0.00000000E+00  0.00000000E+00  2.00000000E+00  0.00000000E+00
  0.00000000E+00
Virial Ratio                               R      2.004911120014205E+00
SCF Energy                                 R     -5.930032803906364E+02
Total Energy                               R     -5.930032803906364E+02
RMS Force                                  R      1.326811831427005E-02
RMS Density                                R      4.566516790270005E-09
NImag                                      I                1
Job Status                                 I                1
Nuclear derivative order                   I                2
External E-field                           R   N=          35
  0.00000000E+00  0.00000000E+00  0.00000000E+00  0.00000000E+00  0.00000000E+00
  0.00000000E+00  0.00000000E+00  0.00000000E+00  0.00000000E+00  0.00000000E+00
  0.00000000E+00  0.00000000E+00  0.00000000E+00  0.00000000E+00  0.00000000E+00
  0.00000000E+00  0.00000000E+00  0.00000000E+00  0.00000000E+00  0.00000000E+00
  0.00000000E+00  0.00000000E+00  0.00000000E+00  0.00000000E+00  0.00000000E+00
  0.00000000E+00  0.00000000E+00  0.00000000E+00  0.00000000E+00  0.00000000E+00
  0.00000000E+00  0.00000000E+00  0.00000000E+00  0.00000000E+00  0.00000000E+00
IOpCl                                      I                0
IROHF                                      I                0
Alpha Orbital Energies                     R   N=          98
 -1.01285296E+02 -1.41889931E+01 -1.01130956E+01 -1.00752025E+01 -9.19989486E+00
 -6.95856533E+00 -6.95704677E+00 -6.95704672E+00 -7.41823380E-01 -5.86270949E-01
 -5.31794595E-01 -3.07619805E-01 -3.07600540E-01 -2.91615536E-01 -2.05144671E-01
 -1.84458465E-01 -1.84458013E-01 -8.24066031E-02 -8.24062393E-02 -8.13958126E-02
  1.08696091E-01  1.46521844E-01  1.47398430E-01  1.47401267E-01  1.56752901E-01
  1.74688375E-01  1.74692318E-01  2.02017831E-01  2.17190625E-01  2.17191626E-01
  2.38168404E-01  2.38178351E-01  2.38683036E-01  2.57150725E-01  2.57153137E-01
  2.58072760E-01  3.09764200E-01  3.41313923E-01  3.41318773E-01  3.51242927E-01
  3.51248183E-01  3.56099559E-01  3.90118715E-01  4.37434454E-01  4.67433866E-01
  7.43895904E-01  7.94264615E-01  7.94268336E-01  8.13325012E-01  8.13348880E-01
  8.17829170E-01  8.57091575E-01  8.57098299E-01  8.94553114E-01  9.57545320E-01
  9.86831809E-01  1.05350799E+00  1.05351562E+00  1.12329751E+00  1.12329989E+00
  1.12468977E+00  1.12468994E+00  1.13722196E+00  1.15516874E+00  1.15520040E+00
  1.24366001E+00  1.26202728E+00  1.39981007E+00  1.51342637E+00  1.57794092E+00
  1.57795795E+00  1.68735377E+00  1.68735483E+00  1.74166624E+00  1.74167095E+00
  1.82151827E+00  2.10542249E+00  2.10797258E+00  2.10798592E+00  2.12684211E+00
  2.15331243E+00  2.15336537E+00  2.58226464E+00  2.58230839E+00  2.63371453E+00
  2.77908356E+00  2.77911594E+00  2.87269125E+00  2.91604229E+00  2.91614486E+00
  3.20489670E+00  3.45485906E+00  3.57404482E+00  3.57413077E+00  4.18205633E+00
  4.40152407E+00  4.54991702E+00  4.61812953E+00
Alpha MO coefficients                      R   N=        9604
 -4.40398828E-06 -2.92847504E-05  3.05049273E-05  1.64688465E-10 -5.17316243E-09
  5.21532431E-05 -1.81092233E-04 -1.15574174E-09  2.01239127E-08  2.39776302E-04
  3.79134733E-04  1.08246940E-09 -2.50824348E-08 -9.00955829E-07 -8.23513445E-06
 -8.24146509E-06  3.60595338E-10 -3.54442180E-09 -1.56003141E-10  9.95997670E-01
  1.51476473E-02  6.41384918E-06  1.45799729E-11 -1.26503158E-09 -2.10581378E-02
 -4.29182917E-06  1.16367101E-10 -4.45945212E-10  1.89526565E-03 -3.60809563E-05
 -4.81461228E-10  9.01383100E-09 -1.52226100E-04  5.02600904E-05  6.99954149E-10
 -1.90826076E-08  7.50241460E-03  7.52121926E-03  7.52121913E-03 -9.26810708E-11
  3.04362182E-09 -6.53660711E-12 -1.15417388E-05 -5.45655985E-05  7.68175452E-05
  2.78523770E-05  1.69743801E-08 -7.22015314E-06 -1.15607247E-05 -5.45572186E-05
  7.68587467E-05  2.78525369E-05  6.24334195E-06  3.61899272E-06 -1.15626656E-05
 -5.45568911E-05  7.68616260E-05  2.78525672E-05 -6.26008627E-06  3.59007217E-06
 -2.46064493E-06 -6.99495652E-06  4.46123335E-06 -7.44626082E-12 -1.51425406E-09
 -1.65382114E-04 -2.67681928E-04  1.77189423E-09 -5.23418620E-08 -7.14218648E-04
  1.38944497E-04 -3.00003512E-10 -2.46409626E-09 -1.21332789E-05 -2.90129945E-06
 -2.90122642E-06  1.32996121E-10 -7.22755126E-09  1.37383545E-11 -3.80243270E-06
 -1.68394800E-05 -1.76484885E-06 -1.15969205E-11  1.93834559E-09  2.60784873E-04
 -1.18960917E-04  1.20339748E-09 -5.38637114E-08  2.21525737E-04 -5.29337719E-05
  5.23533478E-10 -1.95461597E-08  3.44660428E-06 -9.30075842E-06 -9.30070142E-06
 -1.64741069E-10  7.38958676E-09 -2.52361224E-13 -1.52216092E-05 -9.29405027E-05
 -2.15482634E-05  8.38350287E-11  5.34498566E-09  3.70896657E-04  2.21403694E-04
  1.24643904E-09 -6.74065030E-08  3.55423498E-03  1.59953871E-03  2.04092706E-09
 -1.83913045E-07  3.61066948E-05 -3.60484284E-05 -3.60351788E-05 -2.17592234E-11
 -1.03043138E-09  3.44319993E-10  1.50585712E-08 -3.11751552E-07  1.48194388E-06
 -9.46475260E-13 -4.49188219E-10 -1.24375892E-06 -1.00568942E-05  9.92861618E-12
  2.62173571E-09 -3.01307939E-05  4.97057600E-05 -2.06982955E-12 -1.01034444E-08
  5.48995444E-04  1.37342461E-04  2.26383549E-10  3.71399079E-09  8.70306940E-06
 -3.59319153E-06 -3.59360130E-06 -3.44613627E-11 -7.04474028E-10 -2.18882823E-11
  4.11375906E-06 -1.32066611E-04 -1.19214899E-04 -1.45546877E-05 -1.14566335E-08
  4.88022087E-06  4.12546606E-06 -1.31975361E-04 -1.19306616E-04 -1.45467233E-05
 -4.22995409E-06 -2.44941579E-06  4.12662041E-06 -1.31973779E-04 -1.19309245E-04
 -1.45463299E-05  4.24171943E-06 -2.43005060E-06  8.26172616E-05  2.37558175E-04
 -4.09789328E-04  3.06348583E-09 -1.18548371E-07  1.11973194E-04  1.46082793E-04
  1.65442566E-09 -6.51113624E-08 -1.76089334E-03  2.52607990E-03 -1.22842738E-08
  4.24862779E-07 -8.93303568E-04  3.79381350E-08  3.82110353E-08  8.44596232E-09
 -3.23958723E-07  3.24309606E-11  9.92735582E-01  3.44597659E-02 -1.70582605E-03
  1.53575381E-08 -5.78866275E-07  4.53426556E-03  4.85406413E-04 -5.30229473E-09
  1.95455291E-07 -3.13610942E-03 -2.76239065E-04 -4.47594422E-11  1.55166384E-08
 -7.57541986E-03 -8.36728480E-03 -8.36728495E-03 -7.56871253E-09  2.91226988E-07
  2.90315444E-13  9.93161114E-01  4.95188500E-02  4.34055716E-04  3.95518637E-09
 -1.74317393E-07 -1.85950658E-02 -2.75980508E-03 -6.97481151E-09  7.88588072E-07
  9.06074869E-03  8.22652291E-03  1.41851099E-08  6.58954143E-08 -9.36409038E-03
 -8.37284101E-03 -8.37298023E-03  4.08034589E-09  3.80458380E-08  1.60325097E-09
 -1.84184348E-06 -3.94751223E-06 -1.26837711E-05  3.97016068E-10 -2.06327527E-09
 -9.05777114E-05  2.22466912E-05 -2.70890035E-09  2.21364418E-08  7.20355219E-05
  3.69459783E-04  1.06647439E-08 -1.50063299E-07  3.93842030E-03  1.04350265E-03
  7.83167212E-09 -3.58495957E-07  1.41905410E-04 -1.87233095E-05 -1.87104374E-05
  2.77851273E-09 -5.38065101E-08  5.53531824E-10 -1.55402077E-04  3.09418468E-03
 -1.83727901E-04  3.25517079E-05  5.28006655E-07 -2.26365787E-04 -1.55514847E-04
  3.09349589E-03 -1.84050712E-04  3.25582094E-05  1.95812775E-04  1.13620497E-04
 -1.55518590E-04  3.09349527E-03 -1.84035991E-04  3.25606281E-05 -1.96336952E-04
  1.12707754E-04  2.96200550E-04 -1.88259127E-04 -4.99275953E-06  2.16845237E-09
 -8.11744650E-09 -2.50499499E-03 -7.14408334E-03  2.51431763E-08 -1.20131196E-06
 -1.43609694E-02  4.30892604E-03 -2.24674183E-08 -1.57137745E-07 -1.44701198E-04
 -5.50709384E-05 -5.50695938E-05  3.45128169E-09 -1.17794587E-07 -4.76918299E-10
 -8.40738513E-05 -3.80286596E-04 -5.37324808E-05 -1.71691307E-09  5.93738481E-08
  6.31423473E-03 -2.44614956E-03  3.61732688E-08 -1.35621103E-06  3.21526790E-03
 -1.37396953E-03  1.60938405E-08 -1.13609902E-07 -4.85917317E-06 -1.72089346E-04
 -1.72088833E-04 -4.45697223E-09  1.55671081E-07  3.93928528E-11 -4.14444057E-04
 -1.81506675E-04  2.92594247E-05 -1.00570622E-09  3.91494980E-09  1.90044010E-03
  1.26606962E-03 -4.97598121E-09 -2.36277455E-08  2.47851076E-02  2.18500973E-02
  1.40467812E-08 -1.13042711E-06 -4.42894865E-05 -4.73095109E-05 -4.73254038E-05
 -2.67579171E-10  9.55658177E-09 -1.13274435E-09  1.63857463E-07 -9.40247846E-07
  2.11608858E-05  1.22277205E-10 -6.35996618E-09  6.32713745E-06 -1.40524082E-04
 -7.28829263E-10  3.86838575E-08 -3.45154768E-04  6.88954617E-04  2.41278813E-09
 -1.35423226E-07  1.03727740E-02  3.19514794E-03  2.55840737E-08 -8.38250991E-07
  5.53812663E-05 -2.86321481E-05 -2.86330250E-05  6.39468060E-10 -2.80942720E-08
 -8.68177161E-11 -6.29920378E-05 -5.27587464E-04  5.01985114E-04 -1.05937358E-05
 -3.57579816E-09  1.50682421E-06 -6.29782780E-05 -5.27557006E-04  5.02747287E-04
 -1.05726125E-05 -1.29538450E-06 -7.44440281E-07 -6.29789581E-05 -5.27562436E-04
  5.02770569E-04 -1.05770732E-05  1.29676266E-06 -7.37292533E-07  9.92861270E-01
  4.94907154E-02  9.54081544E-04 -1.08910119E-08  4.68930242E-07 -1.01496733E-02
  2.39030112E-03 -8.58209504E-10 -6.05534589E-08 -4.07600380E-02  1.23726227E-02
 -2.33111282E-08 -1.05208082E-07 -8.56204394E-03 -9.65089541E-03 -9.65089556E-03
 -1.14562138E-08  4.33852010E-07  9.91400827E-11 -4.17732938E-04  3.16727959E-04
  2.16936388E-04 -1.33697590E-09  5.72589330E-08 -4.10610142E-03  1.62256569E-03
 -1.96271894E-08  7.30467960E-07  9.79499016E-03 -5.62762325E-03  3.33780345E-08
 -9.51556644E-07  4.06069654E-05  2.77048841E-04  2.77049532E-04  3.45425173E-09
 -1.35667972E-07 -1.17560440E-13  1.31586212E-05 -5.11258181E-05  2.39832699E-04
 -7.00049640E-10 -2.18424370E-08 -7.65756257E-04 -2.64094378E-03  1.00471013E-08
  6.22947548E-08  8.38413092E-03  1.62548251E-02  1.51101162E-08 -1.56985080E-06
  2.03305756E-04  3.21077179E-05  3.21218013E-05 -1.21594962E-09 -7.15404887E-09
  6.87845558E-10 -2.84628491E-01  1.02271510E+00  6.52380261E-04  4.95764764E-09
 -1.99924719E-07  7.54680724E-02  5.18309763E-04  7.20527916E-10 -6.38903550E-08
 -2.28478263E-02 -1.69934251E-03 -2.65835700E-09  1.93706639E-07  2.14946819E-02
  7.21029914E-03  1.87338336E-08 -9.58518621E-07 -1.55824685E-02 -1.55257456E-02
 -1.55257528E-02 -1.07353440E-10  6.04482519E-09 -2.61659518E-11 -3.89526463E-05
 -2.10252224E-04 -1.90973847E-03  8.38957921E-06 -8.76795200E-08  3.72359837E-05
 -3.89904329E-05 -2.09793489E-04 -1.91092763E-03  8.28844936E-06 -3.22444549E-05
 -1.86992075E-05 -3.89914128E-05 -2.09764208E-04 -1.91103648E-03  8.27919922E-06
  3.23331291E-05 -1.85512400E-05 -8.09031674E-06 -7.87262665E-05  1.02372555E-06
 -3.39219153E-10  3.18808297E-09 -1.33238157E-03 -2.43207459E-03  1.32130712E-08
 -4.13429140E-07 -1.55058526E-02  6.01985702E-03 -5.00889126E-08  1.34650274E-06
  8.79428717E-05 -2.57341202E-07 -2.56332364E-07  6.39229561E-10 -2.70804246E-08
  9.74529162E-11 -7.72176852E-05 -2.92045213E-04  8.26478416E-06 -7.21343709E-10
  4.09383058E-08  3.19729529E-03 -8.60094212E-04  1.06889288E-08 -4.88950464E-07
 -1.47975258E-03 -3.05465414E-04  1.24272187E-08 -2.71562147E-07 -1.40877238E-04
 -1.63116812E-04 -1.63118770E-04 -7.24383810E-10  3.49775813E-08 -4.31402468E-11
  6.40466460E-06 -2.52281702E-04 -3.38746644E-04 -1.73718750E-09  6.54725769E-08
 -2.30527730E-04 -9.09636030E-04  1.55228188E-08 -1.89552942E-07 -6.00227082E-02
 -5.81779292E-02 -3.49657773E-08  2.62183706E-06  4.79315609E-04 -1.22378582E-05
 -1.21390008E-05 -3.63446805E-09 -4.94931800E-08  2.26919409E-09  2.32317719E-04
 -7.44120337E-04  9.90620239E-01  8.22999665E-06 -2.06662352E-04  3.75978863E-04
  3.06109083E-02  2.49585988E-07 -6.34779038E-06 -5.90778650E-04 -1.40083721E-02
 -1.02318509E-07  2.79038110E-06 -2.59748344E-02 -3.60815420E-03 -2.88706851E-08
  1.27255202E-06  1.51178067E-04  1.94983616E-04  1.94989522E-04 -8.29891602E-10
  3.31756908E-08  9.91994708E-11 -7.27644747E-05  1.20454727E-03 -3.51579120E-03
 -1.61114197E-04 -3.64025779E-07  1.55513220E-04 -7.25494497E-05  1.20476844E-03
 -3.51641302E-03 -1.61307390E-04 -1.34554978E-04 -7.80358793E-05 -7.25284915E-05
  1.20477448E-03 -3.51641122E-03 -1.61321362E-04  1.34919429E-04 -7.74127117E-05
 -9.01036367E-05 -3.76884115E-04 -3.83960572E-05  3.43919907E-09 -1.37158483E-07
  2.59075331E-03 -5.47556935E-04 -1.59369471E-08  5.78661197E-07  9.91391228E-02
 -3.47411955E-02  1.17289469E-07 -1.40645626E-06 -1.25111302E-04 -1.40662979E-04
 -1.40660143E-04 -5.24162369E-10  2.87436901E-08 -1.16111839E-10 -1.99235940E-05
 -9.19453015E-05  2.50566759E-05 -2.92906456E-10 -2.82885404E-08  7.37278395E-04
 -2.39921285E-04  6.74998184E-09 -6.83500453E-08 -8.15736823E-03  7.37250487E-03
 -4.80687965E-08  8.24627830E-07 -1.72028678E-06 -3.22885613E-05 -3.22901843E-05
 -9.74295698E-10  3.28487144E-08  2.72559883E-11 -2.34740337E-09 -8.59498643E-09
  4.12821294E-09 -3.65705015E-05  3.84679003E-07  7.60425974E-08 -1.87210219E-08
 -2.29718146E-04  2.42939069E-06  1.46204643E-07  1.29146338E-08  3.23827195E-04
 -3.41354316E-06 -5.76526080E-09  5.19404989E-07 -5.26217251E-07 -8.22300732E-05
  8.65834604E-07 -3.43856561E-05 -3.37365635E-10  7.00390403E-10 -1.04081551E-05
  9.90757732E-01 -1.04440976E-02 -2.81700835E-09 -3.15175982E-07  2.96864034E-02
 -3.12940541E-04  6.20898252E-09  1.19847573E-07 -1.15704779E-02  1.21972649E-04
 -4.59296130E-08 -6.30403301E-08  5.15580326E-03 -5.43542734E-05 -3.74089224E-09
 -3.58066870E-08  3.64705470E-08  8.06843283E-05 -8.50500641E-07  2.37136762E-06
 -1.94800876E-06  1.31925310E-05 -5.72359441E-05 -1.91842094E-06  1.34053597E-05
  1.35658216E-06 -1.30163291E-04  8.83768979E-04 -3.82131441E-03 -1.28379905E-04
 -7.32113902E-05 -5.04156377E-05  1.32108062E-04 -8.97106466E-04  3.87851152E-03
  1.30312824E-04 -7.47491321E-05  5.04784676E-05  1.26580829E-10  1.00162464E-09
  7.65881959E-10  5.67913080E-05 -5.98363852E-07 -4.21086382E-09  3.24194456E-09
 -2.34409358E-04  2.46887102E-06 -2.05730168E-08  4.24425480E-09  1.05509081E-03
 -1.11232231E-05 -4.36289923E-10  2.51827392E-08 -2.50671294E-08 -4.28542963E-06
  4.54217812E-08 -1.65597000E-06 -1.24413340E-10 -3.45314674E-10 -4.82865962E-10
 -2.13883847E-05  2.25391044E-07  1.25857199E-09  3.05972089E-09  1.36287358E-04
 -1.43613690E-06 -7.48433251E-09  7.14612225E-09 -3.63238724E-04  3.83092472E-06
 -8.60911604E-10 -5.13035511E-08  5.12775829E-08 -1.79735036E-05  1.89340794E-07
  3.37951841E-06  1.92756621E-08  6.27775311E-08 -5.32503299E-08 -3.86988737E-07
 -3.66321711E-05 -6.53622848E-07  1.79739296E-07 -2.40727113E-06 -2.29102331E-04
  3.86110153E-06  4.52355535E-06  3.40348002E-06  3.22853236E-04  4.84194758E-08
 -2.97224246E-05  2.97908916E-05 -8.68423082E-07 -8.22866315E-05 -6.01059843E-07
 -1.33082135E-08  6.05196731E-08  2.06591135E-04  1.04440999E-02  9.90757724E-01
  6.40511792E-08  6.20773828E-06  3.12938763E-04  2.96863364E-02 -2.16808763E-07
 -2.32394536E-06 -1.21966384E-04 -1.15702915E-02  2.62013062E-06  1.84171164E-06
  5.43423019E-05  5.15547071E-03  5.98392583E-08  2.07929431E-06 -2.10467458E-06
  8.50646166E-07  8.06914424E-05  4.22477867E-08  1.51545314E-04 -1.02734172E-03
  4.44392662E-03  1.49224488E-04  4.12057197E-07 -1.03069347E-04 -7.74489034E-05
  5.25755244E-04 -2.27100564E-03 -7.63564884E-05 -5.13772804E-05 -1.64759675E-05
 -7.40681538E-05  5.02861899E-04 -2.17198077E-03 -7.30310929E-05  4.95485175E-05
 -1.49420851E-05  9.62031853E-09  3.32544933E-08 -2.01200716E-08  5.98816424E-07
  5.67766968E-05 -3.70111980E-07 -6.09650166E-08 -2.47306826E-06 -2.34397409E-04
 -7.79901687E-06  3.29660916E-06  1.11211525E-05  1.05507687E-03  1.54181523E-08