RxCoord=-1.79957 DE=44.18                                               
Freq      RB3LYP                                                      6-31++G(d,p)        
Number of atoms                            I                7
Info1-9                                    I   N=           9
          16          16           0           0           0         100
           6          18        -502
Full Title                                 C   N=           3
RxCoord=-1.79957 DE=44.18           
Route                                      C   N=           6
#p b3lyp 6-31++g(d,p) scf=verytight NoSymm freq=noraman int=
ultrafine   
Charge                                     I               -1
Multiplicity                               I                1
Number of electrons                        I               40
Number of alpha electrons                  I               20
Number of beta electrons                   I               20
Number of basis functions                  I               98
Number of independent functions            I               98
Number of point charges in /Mol/           I                0
Number of translation vectors              I                0
Atomic numbers                             I   N=           7
           6          17           1           1           1           6
           7
Nuclear charges                            R   N=           7
  6.00000000E+00  1.70000000E+01  1.00000000E+00  1.00000000E+00  1.00000000E+00
  6.00000000E+00  7.00000000E+00
Current cartesian coordinates              R   N=          21
  4.90973524E-01  1.32280829E-05 -4.51644544E-04 -4.22724175E+00 -3.77945225E-06
  2.07869874E-04  2.16496473E-01  4.71297695E-03 -2.01915158E+00  2.16507812E-01
  1.74598789E+00  1.01285352E+00  2.16479466E-01 -1.75065551E+00  1.00471447E+00
  4.23326998E+00  7.55890450E-06 -4.04401391E-04  6.46117582E+00 -1.13383567E-05
  3.30702072E-04
Number of symbols in /Mol/                 I                0
Force Field                                I                0
Atom Types                                 C   N=           7
                                                            
                        
Int Atom Types                             I   N=           7
           0           0           0           0           0           0
           0
MM charges                                 R   N=           7
  0.00000000E+00  0.00000000E+00  0.00000000E+00  0.00000000E+00  0.00000000E+00
  0.00000000E+00  0.00000000E+00
Integer atomic weights                     I   N=           7
          12          35           1           1           1          12
          14
Real atomic weights                        R   N=           7
  1.20000000E+01  3.49688527E+01  1.00782504E+00  1.00782504E+00  1.00782504E+00
  1.20000000E+01  1.40030740E+01
Atom fragment info                         I   N=           7
           0           0           0           0           0           0
           0
Atom residue num                           I   N=           7
           0           0           0           0           0           0
           0
Nuclear spins                              I   N=           7
           0           3           1           1           1           0
           2
Nuclear ZEff                               R   N=           7
 -3.60000000E+00 -1.42400000E+01 -1.00000000E+00 -1.00000000E+00 -1.00000000E+00
 -3.60000000E+00 -4.55000000E+00
Nuclear ZNuc                               R   N=           7
  6.00000000E+00  1.70000000E+01  1.00000000E+00  1.00000000E+00  1.00000000E+00
  6.00000000E+00  7.00000000E+00
Nuclear QMom                               R   N=           7
  0.00000000E+00 -8.16500000E+00  0.00000000E+00  0.00000000E+00  0.00000000E+00
  0.00000000E+00  2.04400000E+00
Nuclear GFac                               R   N=           7
  0.00000000E+00  8.21874000E-01  2.79284600E+00  2.79284600E+00  2.79284600E+00
  0.00000000E+00  4.03761000E-01
MicOpt                                     I   N=           7
          -1          -1          -1          -1          -1          -1
          -1
Number of residues                         I                0
Number of secondary structures             I                0
Number of contracted shells                I               33
Number of primitive shells                 I               72
Pure/Cartesian d shells                    I                1
Pure/Cartesian f shells                    I                0
Highest angular momentum                   I                2
Largest degree of contraction              I                6
Shell types                                I   N=          33
           0          -1          -1          -1           2           0
          -1          -1          -1          -1           2           0
           0           0           1           0           0           0
           1           0           0           0           1           0
          -1          -1          -1           2           0          -1
          -1          -1           2
Number of primitives per shell             I   N=          33
           6           3           1           1           1           6
           6           3           1           1           1           3
           1           1           1           3           1           1
           1           3           1           1           1           6
           3           1           1           1           6           3
           1           1           1
Shell to atom map                          I   N=          33
           1           1           1           1           1           2
           2           2           2           2           2           3
           3           3           3           4           4           4
           4           5           5           5           5           6
           6           6           6           6           7           7
           7           7           7
Primitive exponents                        R   N=          72
  3.04752488E+03  4.57369518E+02  1.03948685E+02  2.92101553E+01  9.28666296E+00
  3.16392696E+00  7.86827235E+00  1.88128854E+00  5.44249258E-01  1.68714478E-01
  4.38000000E-02  8.00000000E-01  2.51801000E+04  3.78035000E+03  8.60474000E+02
  2.42145000E+02  7.73349000E+01  2.62470000E+01  4.91765000E+02  1.16984000E+02
  3.74153000E+01  1.37834000E+01  5.45215000E+00  2.22588000E+00  3.18649000E+00
  1.14427000E+00  4.20377000E-01  1.42657000E-01  4.83000000E-02  7.50000000E-01
  1.87311370E+01  2.82539436E+00  6.40121692E-01  1.61277759E-01  3.60000000E-02
  1.10000000E+00  1.87311370E+01  2.82539436E+00  6.40121692E-01  1.61277759E-01
  3.60000000E-02  1.10000000E+00  1.87311370E+01  2.82539436E+00  6.40121692E-01
  1.61277759E-01  3.60000000E-02  1.10000000E+00  3.04752488E+03  4.57369518E+02
  1.03948685E+02  2.92101553E+01  9.28666296E+00  3.16392696E+00  7.86827235E+00
  1.88128854E+00  5.44249258E-01  1.68714478E-01  4.38000000E-02  8.00000000E-01
  4.17351146E+03  6.27457911E+02  1.42902093E+02  4.02343293E+01  1.28202129E+01
  4.39043701E+00  1.16263619E+01  2.71627981E+00  7.72218397E-01  2.12031498E-01
  6.39000000E-02  8.00000000E-01
Contraction coefficients                   R   N=          72
  1.83473713E-03  1.40373228E-02  6.88426223E-02  2.32184443E-01  4.67941348E-01
  3.62311985E-01 -1.19332420E-01 -1.60854152E-01  1.14345644E+00  1.00000000E+00
  1.00000000E+00  1.00000000E+00  1.83295985E-03  1.40341988E-02  6.90973943E-02
  2.37451980E-01  4.83033960E-01  3.39855972E-01 -2.29739142E-03 -3.07137189E-02
 -1.12528069E-01  4.50163278E-02  5.89353363E-01  4.65206287E-01 -2.51828028E-01
  6.15892514E-02  1.06018433E+00  1.00000000E+00  1.00000000E+00  1.00000000E+00
  3.34946043E-02  2.34726953E-01  8.13757326E-01  1.00000000E+00  1.00000000E+00
  1.00000000E+00  3.34946043E-02  2.34726953E-01  8.13757326E-01  1.00000000E+00
  1.00000000E+00  1.00000000E+00  3.34946043E-02  2.34726953E-01  8.13757326E-01
  1.00000000E+00  1.00000000E+00  1.00000000E+00  1.83473713E-03  1.40373228E-02
  6.88426223E-02  2.32184443E-01  4.67941348E-01  3.62311985E-01 -1.19332420E-01
 -1.60854152E-01  1.14345644E+00  1.00000000E+00  1.00000000E+00  1.00000000E+00
  1.83477216E-03  1.39946270E-02  6.85865518E-02  2.32240873E-01  4.69069948E-01
  3.60455199E-01 -1.14961182E-01 -1.69117479E-01  1.14585195E+00  1.00000000E+00
  1.00000000E+00  1.00000000E+00
P(S=P) Contraction coefficients            R   N=          72
  0.00000000E+00  0.00000000E+00  0.00000000E+00  0.00000000E+00  0.00000000E+00
  0.00000000E+00  6.89990666E-02  3.16423961E-01  7.44308291E-01  1.00000000E+00
  1.00000000E+00  0.00000000E+00  0.00000000E+00  0.00000000E+00  0.00000000E+00
  0.00000000E+00  0.00000000E+00  0.00000000E+00  3.98940088E-03  3.03177067E-02
  1.29880029E-01  3.27951072E-01  4.53527100E-01  2.52154056E-01 -1.42993147E-02
  3.23572333E-01  7.43507765E-01  1.00000000E+00  1.00000000E+00  0.00000000E+00
  0.00000000E+00  0.00000000E+00  0.00000000E+00  0.00000000E+00  0.00000000E+00
  0.00000000E+00  0.00000000E+00  0.00000000E+00  0.00000000E+00  0.00000000E+00
  0.00000000E+00  0.00000000E+00  0.00000000E+00  0.00000000E+00  0.00000000E+00
  0.00000000E+00  0.00000000E+00  0.00000000E+00  0.00000000E+00  0.00000000E+00
  0.00000000E+00  0.00000000E+00  0.00000000E+00  0.00000000E+00  6.89990666E-02
  3.16423961E-01  7.44308291E-01  1.00000000E+00  1.00000000E+00  0.00000000E+00
  0.00000000E+00  0.00000000E+00  0.00000000E+00  0.00000000E+00  0.00000000E+00
  0.00000000E+00  6.75797439E-02  3.23907296E-01  7.40895140E-01  1.00000000E+00
  1.00000000E+00  0.00000000E+00
Coordinates of each shell                  R   N=          99
  4.90973524E-01  1.32280829E-05 -4.51644544E-04  4.90973524E-01  1.32280829E-05
 -4.51644544E-04  4.90973524E-01  1.32280829E-05 -4.51644544E-04  4.90973524E-01
  1.32280829E-05 -4.51644544E-04  4.90973524E-01  1.32280829E-05 -4.51644544E-04
 -4.22724175E+00 -3.77945225E-06  2.07869874E-04 -4.22724175E+00 -3.77945225E-06
  2.07869874E-04 -4.22724175E+00 -3.77945225E-06  2.07869874E-04 -4.22724175E+00
 -3.77945225E-06  2.07869874E-04 -4.22724175E+00 -3.77945225E-06  2.07869874E-04
 -4.22724175E+00 -3.77945225E-06  2.07869874E-04  2.16496473E-01  4.71297695E-03
 -2.01915158E+00  2.16496473E-01  4.71297695E-03 -2.01915158E+00  2.16496473E-01
  4.71297695E-03 -2.01915158E+00  2.16496473E-01  4.71297695E-03 -2.01915158E+00
  2.16507812E-01  1.74598789E+00  1.01285352E+00  2.16507812E-01  1.74598789E+00
  1.01285352E+00  2.16507812E-01  1.74598789E+00  1.01285352E+00  2.16507812E-01
  1.74598789E+00  1.01285352E+00  2.16479466E-01 -1.75065551E+00  1.00471447E+00
  2.16479466E-01 -1.75065551E+00  1.00471447E+00  2.16479466E-01 -1.75065551E+00
  1.00471447E+00  2.16479466E-01 -1.75065551E+00  1.00471447E+00  4.23326998E+00
  7.55890450E-06 -4.04401391E-04  4.23326998E+00  7.55890450E-06 -4.04401391E-04
  4.23326998E+00  7.55890450E-06 -4.04401391E-04  4.23326998E+00  7.55890450E-06
 -4.04401391E-04  4.23326998E+00  7.55890450E-06 -4.04401391E-04  6.46117582E+00
 -1.13383567E-05  3.30702072E-04  6.46117582E+00 -1.13383567E-05  3.30702072E-04
  6.46117582E+00 -1.13383567E-05  3.30702072E-04  6.46117582E+00 -1.13383567E-05
  3.30702072E-04  6.46117582E+00 -1.13383567E-05  3.30702072E-04
Num ILSW                                   I              100
ILSW                                       I   N=         100
           0           1           0           0           2           0
           0           0           0           0         402          -1
           5           0           0           0           2           0
           0           0           0           0           1           0
           1           1           0           0           0           0
           0           0      100000           0          -1           0
           0           0           0           0           0           0
           0           0           0           1           0           0
           0 -2000000000           1           0           0           0
           0           0           4          52           0           0
           0           0           5           0           0           0
           0           0           0           7           0           1
           0           0           0           0           0           0
           0           0           0           0           0           0
           0           0           0           0           0           0
           0           0           0           0           0           0
           0           0           0           0
Num RLSW                                   I               52
RLSW                                       R   N=          52
  8.00000000E-01  7.20000000E-01  1.00000000E+00  8.10000000E-01  2.00000000E-01
  0.00000000E+00  0.00000000E+00  1.00000000E+00  0.00000000E+00  0.00000000E+00
  0.00000000E+00  0.00000000E+00  1.00000000E+00  0.00000000E+00  0.00000000E+00
  0.00000000E+00  0.00000000E+00  1.00000000E+00  0.00000000E+00  0.00000000E+00
  0.00000000E+00  0.00000000E+00  1.00000000E+00  0.00000000E+00  0.00000000E+00
  0.00000000E+00  0.00000000E+00  1.00000000E+00  0.00000000E+00  0.00000000E+00
  0.00000000E+00  0.00000000E+00  1.00000000E+00  0.00000000E+00  0.00000000E+00
  0.00000000E+00  0.00000000E+00  0.00000000E+00  1.00000000E+00  1.00000000E+00
  0.00000000E+00  1.00000000E+00  0.00000000E+00  0.00000000E+00  0.00000000E+00
  0.00000000E+00  0.00000000E+00  0.00000000E+00  0.00000000E+00  0.00000000E+00
  0.00000000E+00  0.00000000E+00
MxBond                                     I                3
NBond                                      I   N=           7
           3           0           1           1           1           1
           1
IBond                                      I   N=          21
           3           4           5           0           0           0
           1           0           0           1           0           0
           1           0           0           7           0           0
           6           0           0
RBond                                      R   N=          21
  1.00000000E+00  1.00000000E+00  1.00000000E+00  0.00000000E+00  0.00000000E+00
  0.00000000E+00  1.00000000E+00  0.00000000E+00  0.00000000E+00  1.00000000E+00
  0.00000000E+00  0.00000000E+00  1.00000000E+00  0.00000000E+00  0.00000000E+00
  2.00000000E+00  0.00000000E+00  0.00000000E+00  2.00000000E+00  0.00000000E+00
  0.00000000E+00
Virial Ratio                               R      2.004898929551276E+00
SCF Energy                                 R     -5.930016219763863E+02
Total Energy                               R     -5.930016219763863E+02
RMS Force                                  R      1.261979382245230E-02
RMS Density                                R      4.820480169337647E-09
NImag                                      I                1
Job Status                                 I                1
Nuclear derivative order                   I                2
External E-field                           R   N=          35
  0.00000000E+00  0.00000000E+00  0.00000000E+00  0.00000000E+00  0.00000000E+00
  0.00000000E+00  0.00000000E+00  0.00000000E+00  0.00000000E+00  0.00000000E+00
  0.00000000E+00  0.00000000E+00  0.00000000E+00  0.00000000E+00  0.00000000E+00
  0.00000000E+00  0.00000000E+00  0.00000000E+00  0.00000000E+00  0.00000000E+00
  0.00000000E+00  0.00000000E+00  0.00000000E+00  0.00000000E+00  0.00000000E+00
  0.00000000E+00  0.00000000E+00  0.00000000E+00  0.00000000E+00  0.00000000E+00
  0.00000000E+00  0.00000000E+00  0.00000000E+00  0.00000000E+00  0.00000000E+00
IOpCl                                      I                0
IROHF                                      I                0
Alpha Orbital Energies                     R   N=          98
 -1.01287700E+02 -1.41863317E+01 -1.01135823E+01 -1.00717694E+01 -9.20230239E+00
 -6.96107173E+00 -6.95940160E+00 -6.95940155E+00 -7.39254123E-01 -5.86698315E-01
 -5.32982383E-01 -3.08006528E-01 -3.07987159E-01 -2.88298012E-01 -2.02447225E-01
 -1.82187376E-01 -1.82186950E-01 -8.43827810E-02 -8.43824463E-02 -8.33590714E-02
  1.08838572E-01  1.45408981E-01  1.47494130E-01  1.47496881E-01  1.55693498E-01
  1.76419125E-01  1.76423326E-01  2.01410822E-01  2.17951286E-01  2.17952045E-01
  2.37942171E-01  2.37952569E-01  2.39270578E-01  2.56898101E-01  2.56900586E-01
  2.57805582E-01  3.09527010E-01  3.41297348E-01  3.41302742E-01  3.51978263E-01
  3.51982662E-01  3.56768436E-01  3.89997177E-01  4.38360500E-01  4.66803701E-01
  7.45113203E-01  7.95154379E-01  7.95158324E-01  8.11511677E-01  8.11535233E-01
  8.15885600E-01  8.56985252E-01  8.56991625E-01  8.95704030E-01  9.55252029E-01
  9.86710420E-01  1.05414124E+00  1.05414875E+00  1.12232988E+00  1.12233050E+00
  1.12363739E+00  1.12364017E+00  1.13770733E+00  1.15430271E+00  1.15433378E+00
  1.24341054E+00  1.26409069E+00  1.40276511E+00  1.51313656E+00  1.58210384E+00
  1.58212098E+00  1.68999183E+00  1.68999290E+00  1.73998906E+00  1.73999373E+00
  1.82045708E+00  2.11073523E+00  2.11075021E+00  2.11166042E+00  2.12576662E+00
  2.14926803E+00  2.14932176E+00  2.59250347E+00  2.59254797E+00  2.62168476E+00
  2.77995375E+00  2.77998526E+00  2.86933864E+00  2.90991558E+00  2.91002067E+00
  3.20749158E+00  3.45544895E+00  3.57633642E+00  3.57642571E+00  4.18102496E+00
  4.40479867E+00  4.54774697E+00  4.61706245E+00
Alpha MO coefficients                      R   N=        9604
 -4.39442036E-06 -3.26575152E-05  2.99667789E-05  1.49487785E-10 -4.95881995E-09
  5.59447849E-05 -1.78203970E-04 -1.09479139E-09  2.05774443E-08  2.15115643E-04
  3.72583695E-04  1.11810660E-09 -2.56394671E-08  2.78900377E-06 -7.91937367E-06
 -7.92598187E-06  3.64688926E-10 -4.10769575E-09 -1.73356141E-10  9.95997674E-01
  1.51477578E-02  6.81297228E-06  2.15632880E-11 -1.36090426E-09 -2.10579309E-02
 -4.38948027E-06  1.11200215E-10 -4.09522098E-10  1.89322904E-03 -3.72312654E-05
 -4.78268511E-10  9.14168185E-09 -1.48789778E-04  5.15208582E-05  6.93023368E-10
 -1.91828112E-08  7.50241056E-03  7.52148385E-03  7.52148372E-03 -9.34121371E-11
  3.08171682E-09 -6.54230928E-12 -1.12577968E-05 -5.36400287E-05  7.65514837E-05
  2.79617897E-05  1.60715897E-08 -6.83281530E-06 -1.12770797E-05 -5.36318782E-05
  7.65926413E-05  2.79620409E-05  5.90855973E-06  3.42467413E-06 -1.12790167E-05
 -5.36315013E-05  7.65955649E-05  2.79620805E-05 -5.92441806E-06  3.39731637E-06
 -2.39036957E-06 -6.56322555E-06  4.32387216E-06 -3.55664710E-12 -1.60287053E-09
 -1.64711697E-04 -2.60780560E-04  1.71565452E-09 -5.15805708E-08 -6.90635951E-04
  1.32191054E-04 -3.10685704E-10 -3.06543286E-09 -1.22549671E-05 -2.76727260E-06
 -2.76719786E-06  1.33311900E-10 -7.26278166E-09  1.32600505E-11 -3.70118910E-06
 -1.63935299E-05 -1.81689178E-06 -1.06563930E-11  1.88917645E-09  2.54973935E-04
 -1.16885595E-04  1.18354978E-09 -5.35492003E-08  2.19094405E-04 -5.15487937E-05
  5.33551220E-10 -1.96284870E-08  3.56967007E-06 -9.09651213E-06 -9.09645473E-06
 -1.64934969E-10  7.44192009E-09 -9.32249650E-14 -1.51791078E-05 -8.63796683E-05
 -2.44189512E-05  8.67260746E-11  5.24004770E-09  3.57039561E-04  2.10567768E-04
  1.36285025E-09 -6.59674235E-08  3.39838978E-03  1.54610297E-03  2.29291787E-09
 -1.85527108E-07  2.82729189E-05 -3.60568940E-05 -3.60440586E-05 -1.45036536E-11
 -7.43711405E-10  3.43402882E-10  2.16463781E-08 -1.58299545E-07  1.45236241E-06
 -1.73089564E-12 -4.27304295E-10 -8.19385411E-07 -9.71718171E-06  1.52939397E-11
  2.47133663E-09 -3.19416150E-05  4.74235098E-05 -2.85603468E-11 -9.47756775E-09
  5.42069760E-04  1.34963164E-04  2.13809728E-10  5.28751364E-09  8.49924770E-06
 -3.19897897E-06 -3.19940047E-06 -3.91440685E-11 -5.20266739E-10 -2.24515954E-11
  3.79864026E-06 -1.32428309E-04 -1.19604530E-04 -1.45758752E-05 -9.92476726E-09
  4.21941170E-06  3.80982449E-06 -1.32337586E-04 -1.19696610E-04 -1.45682153E-05
 -3.65833336E-06 -2.11776930E-06  3.81097151E-06 -1.32335800E-04 -1.19698821E-04
 -1.45678422E-05  3.66857946E-06 -2.10108295E-06  8.25328922E-05  2.34715008E-04
 -4.06356760E-04  3.04757144E-09 -1.19295956E-07  9.63997120E-05  1.11912787E-04
  1.79886059E-09 -7.26592800E-08 -1.60079381E-03  2.46339158E-03 -1.20953698E-08
  4.21818170E-07 -8.89018709E-04 -5.60859791E-07 -5.60595432E-07  8.42199920E-09
 -3.27184353E-07  3.16227187E-11  9.92733844E-01  3.44595365E-02 -1.69659427E-03
  1.52390978E-08 -5.82232829E-07  4.57218738E-03  4.67017394E-04 -5.08332408E-09
  1.89992963E-07 -3.12971291E-03 -2.65485355E-04 -8.36017020E-11  1.78884719E-08
 -7.57972103E-03 -8.37030917E-03 -8.37030931E-03 -7.56333474E-09  2.94713724E-07
  7.87651124E-13  9.93160456E-01  4.94943275E-02  4.18068724E-04  4.24394114E-09
 -1.71923971E-07 -1.84423185E-02 -2.67206659E-03 -1.04680052E-08  7.89206274E-07
  8.30667384E-03  7.61440140E-03  1.05603106E-08  7.88311512E-08 -9.36239603E-03
 -8.36665505E-03 -8.36679713E-03  4.19851224E-09  3.94903005E-08  7.95354366E-10
 -2.09996102E-06 -6.12658715E-06 -1.36402746E-05  3.93295679E-10 -2.08379503E-09
 -1.03156948E-04  2.62234415E-05 -2.70103225E-09  2.25663183E-08  1.23579736E-04
  3.90089766E-04  1.08849750E-08 -1.56372314E-07  3.69201590E-03  9.49355085E-04
  7.24384665E-09 -3.35417428E-07  1.48268643E-04 -2.27303120E-05 -2.27173686E-05
  2.83898194E-09 -5.59410246E-08  5.61180056E-10 -1.59774972E-04  3.09139822E-03
 -2.15117589E-04  3.41708973E-05  5.36315693E-07 -2.29892861E-04 -1.59888886E-04
  3.09070944E-03 -2.15444435E-04  3.41799925E-05  1.98865352E-04  1.15392474E-04
 -1.59893359E-04  3.09070435E-03 -2.15436213E-04  3.41820970E-05 -1.99398222E-04
  1.14465739E-04  2.45546262E-04 -2.00562612E-04 -9.41591529E-07  2.12480304E-09
 -9.96232172E-09 -2.56348778E-03 -6.99630946E-03  2.50792383E-08 -1.18545570E-06
 -1.31967300E-02  3.98565504E-03 -2.06882281E-08 -1.75026884E-07 -1.21227929E-04
 -5.35775243E-05 -5.35763716E-05  3.31675631E-09 -1.18874243E-07 -4.59350351E-10
 -8.53457851E-05 -3.86188315E-04 -4.53360135E-05 -1.77777530E-09  6.41097678E-08
  6.26076012E-03 -2.42837266E-03  3.56024400E-08 -1.36046996E-06  3.08122547E-03
 -1.30838661E-03  1.53386036E-08 -1.03501594E-07 -1.20083916E-05 -1.74477277E-04
 -1.74476773E-04 -4.28247969E-09  1.51746813E-07  3.51496033E-11 -3.60413964E-04
 -1.87858805E-04  2.99465879E-05 -1.04551355E-09  3.95475221E-09  1.80403153E-03
  1.23900174E-03 -4.07924954E-09 -2.59648058E-08  2.33788903E-02  2.13973543E-02
  1.49322665E-08 -1.14791944E-06 -2.23331080E-05 -4.62952766E-05 -4.63112034E-05
 -3.76145476E-10  9.72791297E-09 -1.15851670E-09  1.70101339E-07 -4.55444822E-07
  2.06915496E-05  1.22015350E-10 -6.21902965E-09  6.81715559E-06 -1.37895655E-04
 -7.28647341E-10  3.79212007E-08 -3.49870039E-04  6.84269121E-04  2.43095334E-09
 -1.34222111E-07  1.04196697E-02  3.19643404E-03  2.55087851E-08 -8.34783369E-07
  5.67587474E-05 -2.74895892E-05 -2.74904106E-05  6.41628132E-10 -2.79295109E-08
 -8.58094514E-11 -5.96829950E-05 -5.20887326E-04  4.95019257E-04 -1.03736133E-05
 -7.72719715E-09  3.26507022E-06 -5.96704181E-05 -5.20854143E-04  4.95787048E-04
 -1.03540025E-05 -2.81611044E-06 -1.62695879E-06 -5.96710032E-05 -5.20858551E-04
  4.95810601E-04 -1.03583059E-05  2.82157028E-06 -1.61278414E-06  9.92860091E-01
  4.94884939E-02  9.84916290E-04 -1.11430174E-08  4.84414138E-07 -1.01400908E-02
  2.28382743E-03 -5.60171848E-10 -7.92215792E-08 -3.93660838E-02  1.19397743E-02
 -2.24099412E-08 -1.69090390E-07 -8.55958187E-03 -9.65416853E-03 -9.65416858E-03
 -1.14852643E-08  4.41796975E-07  9.13617805E-11 -4.20180081E-04  3.10775817E-04
  2.23187580E-04 -1.39343111E-09  6.02456095E-08 -4.02929059E-03  1.59825180E-03
 -1.92668896E-08  7.26458595E-07  9.78124620E-03 -5.57691063E-03  3.34211447E-08
 -9.48725284E-07  3.12594731E-05  2.75234835E-04  2.75235523E-04  3.48331100E-09
 -1.39088464E-07  1.10330435E-12  1.14280967E-05 -5.76554299E-05  2.33514113E-04
 -6.53902628E-10 -2.17513474E-08 -6.72791803E-04 -2.59555281E-03  1.06473635E-08
  6.09070845E-08  8.15536372E-03  1.66650435E-02  1.73010792E-08 -1.60163271E-06
  2.05848339E-04  2.89877132E-05  2.90050712E-05 -1.27425092E-09 -6.57484426E-09
  8.33996589E-10 -2.84628342E-01  1.02271666E+00  7.04635094E-04  5.78329261E-09
 -2.11513737E-07  7.54741618E-02  5.18584477E-04  7.86589697E-10 -6.39654897E-08
 -2.28938309E-02 -1.70124014E-03 -2.83618660E-09  1.94327187E-07  2.19335078E-02
  7.34617743E-03  1.99133195E-08 -9.89892230E-07 -1.55769834E-02 -1.55254380E-02
 -1.55254452E-02 -5.08713432E-11  4.59192927E-09 -3.67045546E-11 -3.69895515E-05
 -2.11406704E-04 -1.86995245E-03  5.79456375E-06 -9.19196622E-08  3.90286409E-05
 -3.70252255E-05 -2.10947146E-04 -1.87112535E-03  5.69383946E-06 -3.37957987E-05
 -1.95994393E-05 -3.70259838E-05 -2.10916546E-04 -1.87123168E-03  5.68462189E-06
  3.38887796E-05 -1.94443704E-05 -6.79244035E-06 -7.30304795E-05  1.94499459E-06
 -3.56196284E-10  5.42575818E-09 -1.32914633E-03 -2.32142937E-03  1.26977939E-08
 -4.07134983E-07 -1.58376919E-02  6.22720434E-03 -5.04620709E-08  1.31817210E-06
  9.10673090E-05  1.15720622E-06  1.15823546E-06  6.16890469E-10 -2.65452446E-08
  9.73609161E-11 -7.55764110E-05 -2.85100696E-04  8.47373211E-06 -7.18861670E-10
  4.18994213E-08  3.09567122E-03 -8.21181868E-04  1.02462922E-08 -4.79131991E-07
 -1.44375247E-03 -3.71936877E-04  1.25977744E-08 -2.58471111E-07 -1.40363164E-04
 -1.59697128E-04 -1.59699062E-04 -6.67398137E-10  3.27451063E-08 -4.42758513E-11
  1.06681234E-05 -2.35165555E-04 -3.61085372E-04 -1.50174629E-09  6.52708653E-08
 -2.46827566E-04 -8.32986446E-04  1.47371796E-08 -1.87979587E-07 -5.76408144E-02
 -5.82916884E-02 -3.65325737E-08  2.72749486E-06  4.85589524E-04 -2.09652625E-06
 -1.99052168E-06 -3.72485613E-09 -4.73246713E-08  2.63665171E-09  2.47033004E-04
 -8.02096341E-04  9.90616428E-01  8.30491143E-06 -2.05578058E-04  3.67974592E-04
  3.06236197E-02  2.51965903E-07 -6.31746088E-06 -5.19912659E-04 -1.40123331E-02
 -1.03346141E-07  2.77815848E-06 -2.67653978E-02 -3.82943004E-03 -2.98521433E-08
  1.32713882E-06  1.52908310E-04  1.86881550E-04  1.86887314E-04 -7.48225494E-10
  3.15495468E-08  1.02218840E-10 -7.15694706E-05  1.23504582E-03 -3.56114093E-03
 -1.67577405E-04 -3.65644413E-07  1.56176272E-04 -7.13484917E-05  1.23525462E-03
 -3.56180455E-03 -1.67770828E-04 -1.35130330E-04 -7.83703696E-05 -7.13271421E-05
  1.23526017E-03 -3.56180236E-03 -1.67784762E-04  1.35496628E-04 -7.77446741E-05
 -8.84038847E-05 -3.72861368E-04 -4.04122297E-05  3.46426909E-09 -1.40673942E-07
  2.60198738E-03 -4.54895453E-04 -1.65035729E-08  6.10791841E-07  9.76567077E-02
 -3.44379896E-02  1.17047663E-07 -1.27215965E-06 -1.16991011E-04 -1.37921216E-04
 -1.37918619E-04 -6.10525529E-10  3.16901838E-08 -1.13865219E-10 -1.95356758E-05
 -8.95599141E-05  2.66345062E-05 -3.13861981E-10 -2.96777940E-08  6.72880229E-04
 -2.06606585E-04  6.47654699E-09 -4.91465462E-08 -8.22477818E-03  7.40216225E-03
 -4.86664780E-08  7.89090232E-07 -5.12211225E-06 -3.11748062E-05 -3.11764665E-05
 -9.16934164E-10  3.12780102E-08  2.38402363E-11 -2.41048415E-09 -8.80742535E-09
  4.29262671E-09 -3.71991183E-05  4.66402995E-07  7.74605806E-08 -1.84281382E-08
 -2.07125606E-04  2.60885544E-06  1.38548750E-07  2.92601938E-09  3.18188295E-04
 -3.99596837E-06 -5.88796945E-09  5.84827647E-07 -5.91901659E-07 -8.70411110E-05
  1.09218027E-06 -3.47066314E-05 -2.05749076E-10  2.16061116E-10 -1.08862094E-05
  9.90735921E-01 -1.24426354E-02 -2.79415912E-09 -3.29524301E-07  2.96816817E-02
 -3.72772246E-04  6.13401564E-09  1.25006736E-07 -1.15684021E-02  1.45289347E-04
 -5.12524331E-08 -6.70230580E-08  5.15411371E-03 -6.47344425E-05 -3.99557942E-09
 -4.13333113E-08  4.21104965E-08  8.35978837E-05 -1.04989561E-06  2.45328800E-06
 -2.24709583E-06  1.49834571E-05 -6.59035978E-05 -2.23275280E-06  1.16500079E-05
  1.54264484E-06 -1.29635345E-04  8.66446492E-04 -3.79935584E-03 -1.28986248E-04
 -7.26673345E-05 -4.90862634E-05  1.31879255E-04 -8.81577661E-04  3.86521592E-03
  1.31233750E-04 -7.43646082E-05  4.92448167E-05  1.09373450E-10  9.64444342E-10
  7.86493392E-10  5.70280930E-05 -7.15916649E-07 -3.14555438E-09  3.95566327E-09
 -2.37305756E-04  2.97829206E-06 -7.85366449E-10 -3.64279799E-09  1.05167609E-03
 -1.32095162E-05 -4.75054459E-10  2.42218231E-08 -2.41947880E-08 -3.59408501E-06
  4.53827797E-08 -1.43247162E-06 -1.16549489E-10 -3.05794728E-10 -5.14679163E-10
 -2.16711327E-05  2.72138875E-07  5.73227987E-10  3.55956354E-09  1.37525844E-04
 -1.72687714E-06 -9.46877950E-09  9.37195518E-09 -3.62001768E-04  4.54884640E-06
 -8.99747116E-10 -5.65536701E-08  5.66045209E-08 -1.80389243E-05  2.26424655E-07
  3.34244016E-06  2.04252651E-08  6.90568857E-08 -5.39120504E-08 -4.68729272E-07
 -3.72601252E-05 -6.82000838E-07  1.70322252E-07 -2.58602337E-06 -2.06513314E-04
  3.56343262E-06  4.45968682E-06  3.98406791E-06  3.17214406E-04  4.70709225E-08
 -2.99987935E-05  3.00714455E-05 -1.09481242E-06 -8.70965601E-05 -6.76682281E-07
 -1.38183152E-08  6.21422704E-08  2.05485583E-04  1.24426377E-02  9.90735913E-01
  6.10986252E-08  6.17323479E-06  3.72770455E-04  2.96816155E-02 -2.12128938E-07
 -2.30679849E-06 -1.45283104E-04 -1.15682186E-02  2.64667120E-06  1.84185516E-06
  6.47223258E-05  5.15378695E-03  6.17690443E-08  2.15093290E-06 -2.17645195E-06
  1.04999391E-06  8.36043090E-05  4.86717394E-08  1.51108407E-04 -1.00837278E-03
  4.42359775E-03  1.50105026E-04  4.10234125E-07 -1.01866354E-04 -7.74887690E-05
  5.17830445E-04 -2.26833242E-03 -7.70690685E-05 -5.02359007E-05 -1.75709740E-05
 -7.35898254E-05  4.91833380E-04 -2.15430052E-03 -7.31991213E-05  4.81271876E-05
 -1.58776809E-05  9.28120364E-09  3.16457717E-08 -2.02034260E-08  7.16328887E-07
  5.70134061E-05 -4.04179468E-07 -1.02804462E-07 -2.98216795E-06 -2.37291551E-04
 -7.56407740E-06  3.21681596E-06  1.32063521E-05  1.05166928E-03  1.36878222E-08