RxCoord=-1.69959 DE=45.39                                               
Freq      RB3LYP                                                      6-31++G(d,p)        
Number of atoms                            I                7
Info1-9                                    I   N=           9
          16          16           0           0           0         100
           6          18        -502
Full Title                                 C   N=           3
RxCoord=-1.69959 DE=45.39           
Route                                      C   N=           6
#p b3lyp 6-31++g(d,p) scf=verytight NoSymm freq=noraman int=
ultrafine   
Charge                                     I               -1
Multiplicity                               I                1
Number of electrons                        I               40
Number of alpha electrons                  I               20
Number of beta electrons                   I               20
Number of basis functions                  I               98
Number of independent functions            I               98
Number of point charges in /Mol/           I                0
Number of translation vectors              I                0
Atomic numbers                             I   N=           7
           6          17           1           1           1           6
           7
Nuclear charges                            R   N=           7
  6.00000000E+00  1.70000000E+01  1.00000000E+00  1.00000000E+00  1.00000000E+00
  6.00000000E+00  7.00000000E+00
Current cartesian coordinates              R   N=          21
  4.65235454E-01  1.32280829E-05 -4.49754818E-04 -4.22415961E+00 -3.77945225E-06
  2.05980148E-04  2.13928336E-01  4.72053586E-03 -2.02147027E+00  2.13941564E-01
  1.74799667E+00  1.01402704E+00  2.13916997E-01 -1.75267374E+00  1.00587476E+00
  4.24147139E+00  7.55890450E-06 -4.10070569E-04  6.46906354E+00 -1.13383567E-05
  3.34481524E-04
Number of symbols in /Mol/                 I                0
Force Field                                I                0
Atom Types                                 C   N=           7
                                                            
                        
Int Atom Types                             I   N=           7
           0           0           0           0           0           0
           0
MM charges                                 R   N=           7
  0.00000000E+00  0.00000000E+00  0.00000000E+00  0.00000000E+00  0.00000000E+00
  0.00000000E+00  0.00000000E+00
Integer atomic weights                     I   N=           7
          12          35           1           1           1          12
          14
Real atomic weights                        R   N=           7
  1.20000000E+01  3.49688527E+01  1.00782504E+00  1.00782504E+00  1.00782504E+00
  1.20000000E+01  1.40030740E+01
Atom fragment info                         I   N=           7
           0           0           0           0           0           0
           0
Atom residue num                           I   N=           7
           0           0           0           0           0           0
           0
Nuclear spins                              I   N=           7
           0           3           1           1           1           0
           2
Nuclear ZEff                               R   N=           7
 -3.60000000E+00 -1.42400000E+01 -1.00000000E+00 -1.00000000E+00 -1.00000000E+00
 -3.60000000E+00 -4.55000000E+00
Nuclear ZNuc                               R   N=           7
  6.00000000E+00  1.70000000E+01  1.00000000E+00  1.00000000E+00  1.00000000E+00
  6.00000000E+00  7.00000000E+00
Nuclear QMom                               R   N=           7
  0.00000000E+00 -8.16500000E+00  0.00000000E+00  0.00000000E+00  0.00000000E+00
  0.00000000E+00  2.04400000E+00
Nuclear GFac                               R   N=           7
  0.00000000E+00  8.21874000E-01  2.79284600E+00  2.79284600E+00  2.79284600E+00
  0.00000000E+00  4.03761000E-01
MicOpt                                     I   N=           7
          -1          -1          -1          -1          -1          -1
          -1
Number of residues                         I                0
Number of secondary structures             I                0
Number of contracted shells                I               33
Number of primitive shells                 I               72
Pure/Cartesian d shells                    I                1
Pure/Cartesian f shells                    I                0
Highest angular momentum                   I                2
Largest degree of contraction              I                6
Shell types                                I   N=          33
           0          -1          -1          -1           2           0
          -1          -1          -1          -1           2           0
           0           0           1           0           0           0
           1           0           0           0           1           0
          -1          -1          -1           2           0          -1
          -1          -1           2
Number of primitives per shell             I   N=          33
           6           3           1           1           1           6
           6           3           1           1           1           3
           1           1           1           3           1           1
           1           3           1           1           1           6
           3           1           1           1           6           3
           1           1           1
Shell to atom map                          I   N=          33
           1           1           1           1           1           2
           2           2           2           2           2           3
           3           3           3           4           4           4
           4           5           5           5           5           6
           6           6           6           6           7           7
           7           7           7
Primitive exponents                        R   N=          72
  3.04752488E+03  4.57369518E+02  1.03948685E+02  2.92101553E+01  9.28666296E+00
  3.16392696E+00  7.86827235E+00  1.88128854E+00  5.44249258E-01  1.68714478E-01
  4.38000000E-02  8.00000000E-01  2.51801000E+04  3.78035000E+03  8.60474000E+02
  2.42145000E+02  7.73349000E+01  2.62470000E+01  4.91765000E+02  1.16984000E+02
  3.74153000E+01  1.37834000E+01  5.45215000E+00  2.22588000E+00  3.18649000E+00
  1.14427000E+00  4.20377000E-01  1.42657000E-01  4.83000000E-02  7.50000000E-01
  1.87311370E+01  2.82539436E+00  6.40121692E-01  1.61277759E-01  3.60000000E-02
  1.10000000E+00  1.87311370E+01  2.82539436E+00  6.40121692E-01  1.61277759E-01
  3.60000000E-02  1.10000000E+00  1.87311370E+01  2.82539436E+00  6.40121692E-01
  1.61277759E-01  3.60000000E-02  1.10000000E+00  3.04752488E+03  4.57369518E+02
  1.03948685E+02  2.92101553E+01  9.28666296E+00  3.16392696E+00  7.86827235E+00
  1.88128854E+00  5.44249258E-01  1.68714478E-01  4.38000000E-02  8.00000000E-01
  4.17351146E+03  6.27457911E+02  1.42902093E+02  4.02343293E+01  1.28202129E+01
  4.39043701E+00  1.16263619E+01  2.71627981E+00  7.72218397E-01  2.12031498E-01
  6.39000000E-02  8.00000000E-01
Contraction coefficients                   R   N=          72
  1.83473713E-03  1.40373228E-02  6.88426223E-02  2.32184443E-01  4.67941348E-01
  3.62311985E-01 -1.19332420E-01 -1.60854152E-01  1.14345644E+00  1.00000000E+00
  1.00000000E+00  1.00000000E+00  1.83295985E-03  1.40341988E-02  6.90973943E-02
  2.37451980E-01  4.83033960E-01  3.39855972E-01 -2.29739142E-03 -3.07137189E-02
 -1.12528069E-01  4.50163278E-02  5.89353363E-01  4.65206287E-01 -2.51828028E-01
  6.15892514E-02  1.06018433E+00  1.00000000E+00  1.00000000E+00  1.00000000E+00
  3.34946043E-02  2.34726953E-01  8.13757326E-01  1.00000000E+00  1.00000000E+00
  1.00000000E+00  3.34946043E-02  2.34726953E-01  8.13757326E-01  1.00000000E+00
  1.00000000E+00  1.00000000E+00  3.34946043E-02  2.34726953E-01  8.13757326E-01
  1.00000000E+00  1.00000000E+00  1.00000000E+00  1.83473713E-03  1.40373228E-02
  6.88426223E-02  2.32184443E-01  4.67941348E-01  3.62311985E-01 -1.19332420E-01
 -1.60854152E-01  1.14345644E+00  1.00000000E+00  1.00000000E+00  1.00000000E+00
  1.83477216E-03  1.39946270E-02  6.85865518E-02  2.32240873E-01  4.69069948E-01
  3.60455199E-01 -1.14961182E-01 -1.69117479E-01  1.14585195E+00  1.00000000E+00
  1.00000000E+00  1.00000000E+00
P(S=P) Contraction coefficients            R   N=          72
  0.00000000E+00  0.00000000E+00  0.00000000E+00  0.00000000E+00  0.00000000E+00
  0.00000000E+00  6.89990666E-02  3.16423961E-01  7.44308291E-01  1.00000000E+00
  1.00000000E+00  0.00000000E+00  0.00000000E+00  0.00000000E+00  0.00000000E+00
  0.00000000E+00  0.00000000E+00  0.00000000E+00  3.98940088E-03  3.03177067E-02
  1.29880029E-01  3.27951072E-01  4.53527100E-01  2.52154056E-01 -1.42993147E-02
  3.23572333E-01  7.43507765E-01  1.00000000E+00  1.00000000E+00  0.00000000E+00
  0.00000000E+00  0.00000000E+00  0.00000000E+00  0.00000000E+00  0.00000000E+00
  0.00000000E+00  0.00000000E+00  0.00000000E+00  0.00000000E+00  0.00000000E+00
  0.00000000E+00  0.00000000E+00  0.00000000E+00  0.00000000E+00  0.00000000E+00
  0.00000000E+00  0.00000000E+00  0.00000000E+00  0.00000000E+00  0.00000000E+00
  0.00000000E+00  0.00000000E+00  0.00000000E+00  0.00000000E+00  6.89990666E-02
  3.16423961E-01  7.44308291E-01  1.00000000E+00  1.00000000E+00  0.00000000E+00
  0.00000000E+00  0.00000000E+00  0.00000000E+00  0.00000000E+00  0.00000000E+00
  0.00000000E+00  6.75797439E-02  3.23907296E-01  7.40895140E-01  1.00000000E+00
  1.00000000E+00  0.00000000E+00
Coordinates of each shell                  R   N=          99
  4.65235454E-01  1.32280829E-05 -4.49754818E-04  4.65235454E-01  1.32280829E-05
 -4.49754818E-04  4.65235454E-01  1.32280829E-05 -4.49754818E-04  4.65235454E-01
  1.32280829E-05 -4.49754818E-04  4.65235454E-01  1.32280829E-05 -4.49754818E-04
 -4.22415961E+00 -3.77945225E-06  2.05980148E-04 -4.22415961E+00 -3.77945225E-06
  2.05980148E-04 -4.22415961E+00 -3.77945225E-06  2.05980148E-04 -4.22415961E+00
 -3.77945225E-06  2.05980148E-04 -4.22415961E+00 -3.77945225E-06  2.05980148E-04
 -4.22415961E+00 -3.77945225E-06  2.05980148E-04  2.13928336E-01  4.72053586E-03
 -2.02147027E+00  2.13928336E-01  4.72053586E-03 -2.02147027E+00  2.13928336E-01
  4.72053586E-03 -2.02147027E+00  2.13928336E-01  4.72053586E-03 -2.02147027E+00
  2.13941564E-01  1.74799667E+00  1.01402704E+00  2.13941564E-01  1.74799667E+00
  1.01402704E+00  2.13941564E-01  1.74799667E+00  1.01402704E+00  2.13941564E-01
  1.74799667E+00  1.01402704E+00  2.13916997E-01 -1.75267374E+00  1.00587476E+00
  2.13916997E-01 -1.75267374E+00  1.00587476E+00  2.13916997E-01 -1.75267374E+00
  1.00587476E+00  2.13916997E-01 -1.75267374E+00  1.00587476E+00  4.24147139E+00
  7.55890450E-06 -4.10070569E-04  4.24147139E+00  7.55890450E-06 -4.10070569E-04
  4.24147139E+00  7.55890450E-06 -4.10070569E-04  4.24147139E+00  7.55890450E-06
 -4.10070569E-04  4.24147139E+00  7.55890450E-06 -4.10070569E-04  6.46906354E+00
 -1.13383567E-05  3.34481524E-04  6.46906354E+00 -1.13383567E-05  3.34481524E-04
  6.46906354E+00 -1.13383567E-05  3.34481524E-04  6.46906354E+00 -1.13383567E-05
  3.34481524E-04  6.46906354E+00 -1.13383567E-05  3.34481524E-04
Num ILSW                                   I              100
ILSW                                       I   N=         100
           0           1           0           0           2           0
           0           0           0           0         402          -1
           5           0           0           0           2           0
           0           0           0           0           1           0
           1           1           0           0           0           0
           0           0      100000           0          -1           0
           0           0           0           0           0           0
           0           0           0           1           0           0
           0 -2000000000           1           0           0           0
           0           0           4          52           0           0
           0           0           5           0           0           0
           0           0           0           7           0           1
           0           0           0           0           0           0
           0           0           0           0           0           0
           0           0           0           0           0           0
           0           0           0           0           0           0
           0           0           0           0
Num RLSW                                   I               52
RLSW                                       R   N=          52
  8.00000000E-01  7.20000000E-01  1.00000000E+00  8.10000000E-01  2.00000000E-01
  0.00000000E+00  0.00000000E+00  1.00000000E+00  0.00000000E+00  0.00000000E+00
  0.00000000E+00  0.00000000E+00  1.00000000E+00  0.00000000E+00  0.00000000E+00
  0.00000000E+00  0.00000000E+00  1.00000000E+00  0.00000000E+00  0.00000000E+00
  0.00000000E+00  0.00000000E+00  1.00000000E+00  0.00000000E+00  0.00000000E+00
  0.00000000E+00  0.00000000E+00  1.00000000E+00  0.00000000E+00  0.00000000E+00
  0.00000000E+00  0.00000000E+00  1.00000000E+00  0.00000000E+00  0.00000000E+00
  0.00000000E+00  0.00000000E+00  0.00000000E+00  1.00000000E+00  1.00000000E+00
  0.00000000E+00  1.00000000E+00  0.00000000E+00  0.00000000E+00  0.00000000E+00
  0.00000000E+00  0.00000000E+00  0.00000000E+00  0.00000000E+00  0.00000000E+00
  0.00000000E+00  0.00000000E+00
MxBond                                     I                3
NBond                                      I   N=           7
           3           0           1           1           1           1
           1
IBond                                      I   N=          21
           3           4           5           0           0           0
           1           0           0           1           0           0
           1           0           0           7           0           0
           6           0           0
RBond                                      R   N=          21
  1.00000000E+00  1.00000000E+00  1.00000000E+00  0.00000000E+00  0.00000000E+00
  0.00000000E+00  1.00000000E+00  0.00000000E+00  0.00000000E+00  1.00000000E+00
  0.00000000E+00  0.00000000E+00  1.00000000E+00  0.00000000E+00  0.00000000E+00
  2.00000000E+00  0.00000000E+00  0.00000000E+00  2.00000000E+00  0.00000000E+00
  0.00000000E+00
Virial Ratio                               R      2.004886654355448E+00
SCF Energy                                 R     -5.930000491740457E+02
Total Energy                               R     -5.930000491740457E+02
RMS Force                                  R      1.195380071033449E-02
RMS Density                                R      5.004927623707969E-09
NImag                                      I                1
Job Status                                 I                1
Nuclear derivative order                   I                2
External E-field                           R   N=          35
  0.00000000E+00  0.00000000E+00  0.00000000E+00  0.00000000E+00  0.00000000E+00
  0.00000000E+00  0.00000000E+00  0.00000000E+00  0.00000000E+00  0.00000000E+00
  0.00000000E+00  0.00000000E+00  0.00000000E+00  0.00000000E+00  0.00000000E+00
  0.00000000E+00  0.00000000E+00  0.00000000E+00  0.00000000E+00  0.00000000E+00
  0.00000000E+00  0.00000000E+00  0.00000000E+00  0.00000000E+00  0.00000000E+00
  0.00000000E+00  0.00000000E+00  0.00000000E+00  0.00000000E+00  0.00000000E+00
  0.00000000E+00  0.00000000E+00  0.00000000E+00  0.00000000E+00  0.00000000E+00
IOpCl                                      I                0
IROHF                                      I                0
Alpha Orbital Energies                     R   N=          98
 -1.01290184E+02 -1.41836268E+01 -1.01140166E+01 -1.00682849E+01 -9.20479057E+00
 -6.96366170E+00 -6.96183556E+00 -6.96183551E+00 -7.36648511E-01 -5.87287947E-01
 -5.34134710E-01 -3.08374013E-01 -3.08355260E-01 -2.84996754E-01 -1.99783770E-01
 -1.79864549E-01 -1.79864168E-01 -8.64200441E-02 -8.64197515E-02 -8.53378808E-02
  1.08979527E-01  1.44012027E-01  1.47588480E-01  1.47591175E-01  1.55087652E-01
  1.78136517E-01  1.78141004E-01  2.00784489E-01  2.18738172E-01  2.18738675E-01
  2.37718965E-01  2.37729671E-01  2.39903597E-01  2.56654413E-01  2.56656889E-01
  2.57541984E-01  3.09302689E-01  3.41280283E-01  3.41285608E-01  3.52756729E-01
  3.52760161E-01  3.57463151E-01  3.89863184E-01  4.39265408E-01  4.66237918E-01
  7.46247690E-01  7.96072599E-01  7.96076929E-01  8.09662796E-01  8.09685564E-01
  8.13910669E-01  8.56909088E-01  8.56915037E-01  8.96889737E-01  9.53010951E-01
  9.86669349E-01  1.05472608E+00  1.05473278E+00  1.12048776E+00  1.12048836E+00
  1.12329665E+00  1.12329879E+00  1.13803942E+00  1.15357467E+00  1.15360429E+00
  1.24314190E+00  1.26625455E+00  1.40556434E+00  1.51289037E+00  1.58602312E+00
  1.58603983E+00  1.69266275E+00  1.69266384E+00  1.73860893E+00  1.73861340E+00
  1.81960250E+00  2.11351206E+00  2.11352931E+00  2.11824248E+00  2.12477248E+00
  2.14543352E+00  2.14548745E+00  2.60264499E+00  2.60268799E+00  2.60998775E+00
  2.78090273E+00  2.78093261E+00  2.86610808E+00  2.90373611E+00  2.90384196E+00
  3.21014797E+00  3.45618255E+00  3.57860851E+00  3.57870078E+00  4.18016824E+00
  4.40817784E+00  4.54557029E+00  4.61623916E+00
Alpha MO coefficients                      R   N=        9604
 -4.36226112E-06 -3.60403560E-05  2.93094476E-05  1.34992727E-10 -4.73401484E-09
  5.90302794E-05 -1.75330670E-04 -1.04305950E-09  2.11061225E-08  1.91007504E-04
  3.65865687E-04  1.04038354E-09 -2.59716217E-08  6.66315463E-06 -7.54234403E-06
 -7.54914315E-06  3.46470330E-10 -4.61043063E-09 -1.66322814E-10  9.95997677E-01
  1.51478686E-02  7.22929220E-06  2.92405017E-11 -1.45520311E-09 -2.10577448E-02
 -4.48548226E-06  9.70592006E-11 -3.56421098E-10  1.89119824E-03 -3.83763730E-05
 -4.50088131E-10  9.19262566E-09 -1.45465359E-04  5.27290663E-05  6.79009797E-10
 -1.91989296E-08  7.50242620E-03  7.52175305E-03  7.52175292E-03 -9.16669109E-11
  3.10037014E-09 -5.80884749E-12 -1.09380679E-05 -5.25797431E-05  7.62502738E-05
  2.80496516E-05  1.51145614E-08 -6.42162645E-06 -1.09575067E-05 -5.25719076E-05
  7.62909399E-05  2.80500068E-05  5.55315568E-06  3.21841278E-06 -1.09592634E-05
 -5.25715855E-05  7.62935933E-05  2.80500463E-05 -5.56807360E-06  3.19269324E-06
 -2.31742649E-06 -6.18245194E-06  4.18895051E-06  2.45203690E-12 -1.68972934E-09
 -1.63817153E-04 -2.54029507E-04  1.64229313E-09 -5.07456142E-08 -6.67383307E-04
  1.25469701E-04 -2.92336681E-10 -3.88985048E-09 -1.22863982E-05 -2.62630794E-06
 -2.62623386E-06  1.36187273E-10 -7.28925409E-09  1.11212877E-11 -3.60192349E-06
 -1.59622727E-05 -1.84457383E-06 -1.20425155E-11  1.85592773E-09  2.49199538E-04
 -1.14786087E-04  1.17338866E-09 -5.32442881E-08  2.16599203E-04 -5.01444457E-05
  5.39318638E-10 -1.96312426E-08  3.66306426E-06 -8.88870455E-06 -8.88864735E-06
 -1.65963876E-10  7.48017623E-09  2.54284294E-15 -1.50804584E-05 -8.00294270E-05
 -2.69840331E-05  6.91631649E-11  5.16365343E-09  3.43493091E-04  2.00230370E-04
  1.22534705E-09 -6.42176066E-08  3.25106230E-03  1.49515247E-03  2.30629402E-09
 -1.87005018E-07  2.09885712E-05 -3.58635676E-05 -3.58512468E-05 -1.04824088E-11
 -5.38794459E-10  2.97106061E-10  2.85433820E-08 -1.30107831E-08  1.42537029E-06
  2.30431332E-13 -4.07806916E-10 -3.86628320E-07 -9.40029854E-06  3.80672730E-12
  2.33730668E-09 -3.36980307E-05  4.52186119E-05  7.21014695E-12 -8.92151953E-09
  5.35394144E-04  1.32630557E-04  1.94253003E-10  7.06646854E-09  8.28583416E-06
 -2.82994211E-06 -2.83036564E-06 -3.19139587E-11 -3.44424836E-10 -2.03813085E-11
  3.47173467E-06 -1.32608510E-04 -1.20049259E-04 -1.45575510E-05 -8.32506216E-09
  3.53581297E-06  3.48230289E-06 -1.32518479E-04 -1.20142051E-04 -1.45501749E-05
 -3.06689581E-06 -1.77465900E-06  3.48326739E-06 -1.32516732E-04 -1.20144296E-04
 -1.45498500E-05  3.07550135E-06 -1.76067569E-06  8.24658247E-05  2.32085408E-04
 -4.02933551E-04  3.03954187E-09 -1.20012755E-07  8.07802475E-05  7.92647853E-05
  1.92290778E-09 -8.02385493E-08 -1.44931845E-03  2.40310851E-03 -1.20129867E-08
  4.18137995E-07 -8.84941612E-04 -1.13496677E-06 -1.13471192E-06  8.40015283E-09
 -3.30374932E-07  2.75460237E-11  9.92732133E-01  3.44594680E-02 -1.68740606E-03
  1.50652018E-08 -5.85521060E-07  4.60876538E-03  4.49099702E-04 -4.83698333E-09
  1.84547975E-07 -3.12330801E-03 -2.54957110E-04 -7.61675681E-11  2.05245027E-08
 -7.58395065E-03 -8.37328485E-03 -8.37328499E-03 -7.56285814E-09  2.98208158E-07
 -7.89145380E-13  9.93159524E-01  4.94703686E-02  4.01382476E-04  4.35356815E-09
 -1.69583036E-07 -1.82937690E-02 -2.58306998E-03 -9.75582730E-09  7.83803779E-07
  7.60766937E-03  7.00655206E-03  9.37432951E-09  8.55873198E-08 -9.36011114E-03
 -8.36148364E-03 -8.36162318E-03  3.55664349E-09  4.23858613E-08  1.07855471E-09
 -2.36444581E-06 -8.35118035E-06 -1.46350084E-05  3.38209442E-10 -2.03998512E-09
 -1.16007547E-04  3.05473521E-05 -2.36515115E-09  2.25351988E-08  1.77281995E-04
  4.11449744E-04  9.91640018E-09 -1.60920806E-07  3.43344919E-03  8.51942250E-04
  6.76738295E-09 -3.10583074E-07  1.54711384E-04 -2.67677922E-05 -2.67549978E-05
  2.66040909E-09 -5.76599856E-08  5.02144820E-10 -1.63892151E-04  3.08861838E-03
 -2.46830070E-04  3.59037285E-05  5.43814433E-07 -2.33061536E-04 -1.64003827E-04
  3.08792940E-03 -2.47151600E-04  3.59157777E-05  2.01607911E-04  1.16985134E-04
 -1.64006838E-04  3.08792261E-03 -2.47144151E-04  3.59175436E-05 -2.02148890E-04
  1.16045174E-04  2.05010679E-04 -2.11534975E-04  3.16244021E-06  1.89785412E-09
 -1.18820951E-08 -2.61298909E-03 -6.84556280E-03  2.55780300E-08 -1.16636912E-06
 -1.20742505E-02  3.67243219E-03 -1.78318746E-08 -1.94787155E-07 -9.94246649E-05
 -5.22489427E-05 -5.22479994E-05  3.19716826E-09 -1.20167972E-07 -3.92784673E-10
 -8.64768259E-05 -3.91319727E-04 -3.73649051E-05 -1.79551936E-09  6.88051021E-08
  6.20126470E-03 -2.40797164E-03  3.47965157E-08 -1.36413502E-06  2.94521978E-03
 -1.24292270E-03  1.36648490E-08 -9.14254442E-08 -1.87137744E-05 -1.76662379E-04
 -1.76661867E-04 -4.03932865E-09  1.47890615E-07  3.16216495E-11 -3.16597313E-04
 -1.94191740E-04  2.99927107E-05 -8.46524381E-10  3.69415619E-09  1.71240548E-03
  1.21281060E-03 -3.75929974E-09 -2.72570410E-08  2.20215243E-02  2.09493828E-02
  1.52365669E-08 -1.16547535E-06 -1.74886345E-06 -4.54508119E-05 -4.54664098E-05
 -4.42910394E-10  9.71406073E-09 -9.59818610E-10  1.75084469E-07  4.58076103E-08
  2.02146149E-05  1.30453966E-10 -6.05254371E-09  7.27036637E-06 -1.35192401E-04
 -7.84165663E-10  3.70092338E-08 -3.54468711E-04  6.79283043E-04  2.66265052E-09
 -1.32629274E-07  1.04628762E-02  3.19629847E-03  2.53140680E-08 -8.27805521E-07
  5.81415340E-05 -2.62896400E-05 -2.62903747E-05  6.83786603E-10 -2.76698270E-08
 -7.53294988E-11 -5.64576949E-05 -5.14457549E-04  4.88084452E-04 -1.02227408E-05
 -1.18439574E-08  5.04027652E-06 -5.64465696E-05 -5.14422296E-04  4.88858546E-04
 -1.02047894E-05 -4.35130164E-06 -2.51809034E-06 -5.64470829E-05 -5.14425819E-04
  4.88880057E-04 -1.02082065E-05  4.36114441E-06 -2.49686535E-06  9.92858866E-01
  4.94866293E-02  1.01602507E-03 -1.14992389E-08  5.00519094E-07 -1.01322639E-02
  2.17944026E-03 -2.84727631E-10 -9.93484249E-08 -3.80172674E-02  1.15157418E-02
 -2.15922876E-08 -2.44600267E-07 -8.55646696E-03 -9.65759191E-03 -9.65759184E-03
 -1.14991119E-08  4.49980061E-07  7.81862282E-11 -4.22681878E-04  3.04618527E-04
  2.29719426E-04 -1.44752042E-09  6.34770100E-08 -3.95297552E-03  1.57431898E-03
 -1.88888347E-08  7.22173777E-07  9.76651228E-03 -5.52584720E-03  3.35489052E-08
 -9.41023456E-07  2.15801936E-05  2.73372034E-04  2.73372715E-04  3.49960704E-09
 -1.42837023E-07  1.52450609E-12  9.68642363E-06 -6.33517134E-05  2.26986846E-04
 -4.42606492E-10 -2.18832687E-08 -5.81842827E-04 -2.55198173E-03  9.17854220E-09
  6.26722557E-08  7.90411701E-03  1.70863052E-02  2.00091419E-08 -1.63285648E-06
  2.07119247E-04  2.59395704E-05  2.59597693E-05 -1.08034667E-09 -6.08621908E-09
  8.57464429E-10 -2.84628191E-01  1.02271828E+00  7.59205742E-04  6.50439250E-09
 -2.22461376E-07  7.54803903E-02  5.18750953E-04  9.41578385E-10 -6.39268132E-08
 -2.29415045E-02 -1.70304302E-03 -3.17403418E-09  1.94561255E-07  2.23928250E-02
  7.48742369E-03  2.17770765E-08 -1.02028404E-06 -1.55713513E-02 -1.55251242E-02
 -1.55251312E-02  9.15042782E-12  3.11127995E-09 -2.02026737E-11 -3.51257725E-05
 -2.13462925E-04 -1.82911138E-03  3.15359581E-06 -9.55809147E-08  4.06262307E-05
 -3.51596254E-05 -2.13006265E-04 -1.83025555E-03  3.05399222E-06 -3.51779139E-05
 -2.04019471E-05 -3.51602071E-05 -2.12978059E-04 -1.83035169E-03  3.04561124E-06
  3.52745663E-05 -2.02401678E-05 -5.53750136E-06 -6.74302783E-05  2.90183054E-06
 -3.70602720E-10  7.85781779E-09 -1.32360869E-03 -2.21414337E-03  1.22961220E-08
 -4.01288415E-07 -1.61697314E-02  6.43543580E-03 -5.09472950E-08  1.27800013E-06
  9.39896437E-05  2.48652501E-06  2.48756018E-06  5.66010376E-10 -2.60402244E-08
  8.48212907E-11 -7.39322769E-05 -2.78157192E-04  8.61931461E-06 -7.07919237E-10
  4.30055779E-08  2.99540687E-03 -7.82725363E-04  9.77543184E-09 -4.69905143E-07
 -1.40624123E-03 -4.39584753E-04  1.27873699E-08 -2.40766318E-07 -1.39787170E-04
 -1.56266511E-04 -1.56268404E-04 -6.12005277E-10  3.04850921E-08 -4.10092139E-11
  1.50742913E-05 -2.16089353E-04 -3.82998239E-04 -1.48588070E-09  6.52272329E-08
 -2.67280238E-04 -7.59004044E-04  1.40202333E-08 -1.86345045E-07 -5.52715686E-02
 -5.84209662E-02 -3.86833455E-08  2.83933777E-06  4.89610703E-04  8.68286205E-06
  8.79457462E-06 -3.15995665E-09 -4.56577296E-08  2.61829410E-09  2.62379526E-04
 -8.62550119E-04  9.90612537E-01  8.01929130E-06 -2.03479009E-04  3.59435495E-04
  3.06365838E-02  2.43645481E-07 -6.25624849E-06 -4.46159822E-04 -1.40158229E-02
 -1.00525427E-07  2.75297828E-06 -2.75833220E-02 -4.05705314E-03 -3.25224190E-08
  1.37954492E-06  1.54724569E-04  1.78528735E-04  1.78534302E-04 -7.20273411E-10
  2.97968554E-08  9.26623187E-11 -7.08466054E-05  1.26500425E-03 -3.60841327E-03
 -1.74100617E-04 -3.66052683E-07  1.56321888E-04 -7.06217136E-05  1.26519885E-03
 -3.60911750E-03 -1.74292986E-04 -1.35257421E-04 -7.84454934E-05 -7.06018635E-05
  1.26520389E-03 -3.60911460E-03 -1.74305769E-04  1.35624107E-04 -7.78186387E-05
 -8.67777991E-05 -3.69061116E-04 -4.23817981E-05  3.32205208E-09 -1.44577763E-07
  2.61343506E-03 -3.67353689E-04 -1.62061704E-08  6.43913661E-07  9.62196659E-02
 -3.41391727E-02  1.15379250E-07 -1.09694149E-06 -1.09068850E-04 -1.35331467E-04
 -1.35329128E-04 -7.08509325E-10  3.44890491E-08 -9.59812327E-11 -1.92320891E-05
 -8.75187344E-05  2.81572228E-05 -2.71582993E-10 -3.14613017E-08  6.13116515E-04
 -1.74778240E-04  5.80749714E-09 -2.83544257E-08 -8.29303789E-03  7.43099707E-03
 -4.88727740E-08  7.37242753E-07 -8.56141047E-06 -3.02459114E-05 -3.02476018E-05
 -7.99226905E-10  2.98188855E-08  2.00620263E-11 -2.13808703E-09 -7.80417948E-09
  4.02968207E-09 -3.78480169E-05  3.72530796E-07  6.77219626E-08 -1.68223939E-08
 -1.84306272E-04  1.82545443E-06  1.12504398E-07 -3.68821462E-09  3.12494875E-04
 -3.08319663E-06 -5.31163865E-09  5.10484470E-07 -5.16732410E-07 -9.17514408E-05
  9.04036167E-07 -3.51344288E-05 -6.93866024E-11 -2.12298163E-10 -1.00261200E-05
  9.90767181E-01 -9.77211022E-03 -2.33460594E-09 -3.03366614E-07  2.96783969E-02
 -2.92723763E-04  5.23951936E-09  1.14764498E-07 -1.15669196E-02  1.14088590E-04
 -4.80368094E-08 -6.18620923E-08  5.15256935E-03 -5.08249151E-05 -3.80147280E-09
 -3.67334963E-08  3.75247479E-08  8.65905489E-05 -8.54057363E-07  2.54007306E-06
 -1.83356495E-06  1.20343982E-05 -5.37351054E-05 -1.83795644E-06  9.84955850E-06
  1.25060093E-06 -1.29377858E-04  8.51240538E-04 -3.78813072E-03 -1.29864768E-04
 -7.24406628E-05 -4.78599755E-05  1.31208745E-04 -8.63405380E-04  3.84182690E-03
  1.31716192E-04 -7.38359862E-05  4.79559191E-05  5.75366149E-11  7.18700114E-10
  7.54083859E-10  5.72659669E-05 -5.64600617E-07 -3.16159968E-09  1.76124716E-09
 -2.40011705E-04  2.36563894E-06  1.16733097E-08 -1.01871833E-08  1.04844245E-03
 -1.03427001E-05 -5.40593777E-10  1.76446046E-08 -1.77469473E-08 -2.93520411E-06
  2.91809493E-08 -1.21290218E-06 -1.16521822E-10 -3.47650662E-10 -4.84810630E-10
 -2.19424720E-05  2.16379879E-07  1.88838930E-09  2.51871869E-09  1.38692534E-04
 -1.36764707E-06 -7.24679745E-09  9.81869573E-09 -3.60832429E-04  3.56101606E-06
 -7.71219302E-10 -4.82327719E-08  4.82498637E-08 -1.80968283E-05  1.78400121E-07
  3.30590544E-06  2.13466867E-08  7.49278716E-08 -5.40111778E-08 -3.74657482E-07
 -3.79073501E-05 -7.01399216E-07  1.57308241E-07 -1.80433705E-06 -1.83708708E-04
  3.25415364E-06  4.36432328E-06  3.07177395E-06  3.11538196E-04  4.48106145E-08
 -3.03687159E-05  3.04446646E-05 -9.06409501E-07 -9.18045664E-05 -5.90603862E-07
 -1.43028998E-08  6.36349410E-08  2.03419024E-04  9.77211235E-03  9.90767173E-01
  5.80703188E-08  6.10974911E-06  2.92722121E-04  2.96783325E-02 -2.06899683E-07
 -2.27965889E-06 -1.14082794E-04 -1.15667421E-02  2.65226539E-06  1.83104098E-06
  5.08133846E-05  5.15225432E-03  6.32219652E-08  2.22670190E-06 -2.25236631E-06
  8.54114466E-07  8.65962549E-05  4.35697070E-08  1.50570274E-04 -9.89112919E-04
  4.40367390E-03  1.50890998E-04  3.54515431E-07 -1.00764706E-04 -7.68609032E-05
  5.05642177E-04 -2.24782894E-03 -7.71192428E-05 -4.87734635E-05 -1.84945997E-05
 -7.36786277E-05  4.84759837E-04 -2.15486522E-03 -7.39336414E-05  4.70749268E-05
 -1.71027277E-05  8.90971315E-09  3.00089996E-08 -2.03658021E-08  5.64903935E-07
  5.72513332E-05 -4.45201220E-07 -1.50014971E-07 -2.36875595E-06 -2.39995484E-04
 -7.27940414E-06  3.11688441E-06  1.03392941E-05  1.04844861E-03  1.14640712E-08