RxCoord=-1.39966 DE=48.63                                               
Freq      RB3LYP                                                      6-31++G(d,p)        
Number of atoms                            I                7
Info1-9                                    I   N=           9
          16          16           0           0           0         100
           6          18        -502
Full Title                                 C   N=           3
RxCoord=-1.39966 DE=48.63           
Route                                      C   N=           6
#p b3lyp 6-31++g(d,p) scf=verytight NoSymm freq=noraman int=
ultrafine   
Charge                                     I               -1
Multiplicity                               I                1
Number of electrons                        I               40
Number of alpha electrons                  I               20
Number of beta electrons                   I               20
Number of basis functions                  I               98
Number of independent functions            I               98
Number of point charges in /Mol/           I                0
Number of translation vectors              I                0
Atomic numbers                             I   N=           7
           6          17           1           1           1           6
           7
Nuclear charges                            R   N=           7
  6.00000000E+00  1.70000000E+01  1.00000000E+00  1.00000000E+00  1.00000000E+00
  6.00000000E+00  7.00000000E+00
Current cartesian coordinates              R   N=          21
  3.87713219E-01  1.32280829E-05 -4.28967830E-04 -4.21454846E+00 -3.77945225E-06
  1.96531517E-04  2.08032390E-01  4.73943312E-03 -2.02727740E+00  2.08070185E-01
  1.75304223E+00  1.01698635E+00  2.08049398E-01 -1.75773631E+00  1.00880384E+00
  4.26550871E+00  9.44863062E-06 -4.23298652E-04  6.49216166E+00 -1.32280829E-05
  3.47709607E-04
Number of symbols in /Mol/                 I                0
Force Field                                I                0
Atom Types                                 C   N=           7
                                                            
                        
Int Atom Types                             I   N=           7
           0           0           0           0           0           0
           0
MM charges                                 R   N=           7
  0.00000000E+00  0.00000000E+00  0.00000000E+00  0.00000000E+00  0.00000000E+00
  0.00000000E+00  0.00000000E+00
Integer atomic weights                     I   N=           7
          12          35           1           1           1          12
          14
Real atomic weights                        R   N=           7
  1.20000000E+01  3.49688527E+01  1.00782504E+00  1.00782504E+00  1.00782504E+00
  1.20000000E+01  1.40030740E+01
Atom fragment info                         I   N=           7
           0           0           0           0           0           0
           0
Atom residue num                           I   N=           7
           0           0           0           0           0           0
           0
Nuclear spins                              I   N=           7
           0           3           1           1           1           0
           2
Nuclear ZEff                               R   N=           7
 -3.60000000E+00 -1.42400000E+01 -1.00000000E+00 -1.00000000E+00 -1.00000000E+00
 -3.60000000E+00 -4.55000000E+00
Nuclear ZNuc                               R   N=           7
  6.00000000E+00  1.70000000E+01  1.00000000E+00  1.00000000E+00  1.00000000E+00
  6.00000000E+00  7.00000000E+00
Nuclear QMom                               R   N=           7
  0.00000000E+00 -8.16500000E+00  0.00000000E+00  0.00000000E+00  0.00000000E+00
  0.00000000E+00  2.04400000E+00
Nuclear GFac                               R   N=           7
  0.00000000E+00  8.21874000E-01  2.79284600E+00  2.79284600E+00  2.79284600E+00
  0.00000000E+00  4.03761000E-01
MicOpt                                     I   N=           7
          -1          -1          -1          -1          -1          -1
          -1
Number of residues                         I                0
Number of secondary structures             I                0
Number of contracted shells                I               33
Number of primitive shells                 I               72
Pure/Cartesian d shells                    I                1
Pure/Cartesian f shells                    I                0
Highest angular momentum                   I                2
Largest degree of contraction              I                6
Shell types                                I   N=          33
           0          -1          -1          -1           2           0
          -1          -1          -1          -1           2           0
           0           0           1           0           0           0
           1           0           0           0           1           0
          -1          -1          -1           2           0          -1
          -1          -1           2
Number of primitives per shell             I   N=          33
           6           3           1           1           1           6
           6           3           1           1           1           3
           1           1           1           3           1           1
           1           3           1           1           1           6
           3           1           1           1           6           3
           1           1           1
Shell to atom map                          I   N=          33
           1           1           1           1           1           2
           2           2           2           2           2           3
           3           3           3           4           4           4
           4           5           5           5           5           6
           6           6           6           6           7           7
           7           7           7
Primitive exponents                        R   N=          72
  3.04752488E+03  4.57369518E+02  1.03948685E+02  2.92101553E+01  9.28666296E+00
  3.16392696E+00  7.86827235E+00  1.88128854E+00  5.44249258E-01  1.68714478E-01
  4.38000000E-02  8.00000000E-01  2.51801000E+04  3.78035000E+03  8.60474000E+02
  2.42145000E+02  7.73349000E+01  2.62470000E+01  4.91765000E+02  1.16984000E+02
  3.74153000E+01  1.37834000E+01  5.45215000E+00  2.22588000E+00  3.18649000E+00
  1.14427000E+00  4.20377000E-01  1.42657000E-01  4.83000000E-02  7.50000000E-01
  1.87311370E+01  2.82539436E+00  6.40121692E-01  1.61277759E-01  3.60000000E-02
  1.10000000E+00  1.87311370E+01  2.82539436E+00  6.40121692E-01  1.61277759E-01
  3.60000000E-02  1.10000000E+00  1.87311370E+01  2.82539436E+00  6.40121692E-01
  1.61277759E-01  3.60000000E-02  1.10000000E+00  3.04752488E+03  4.57369518E+02
  1.03948685E+02  2.92101553E+01  9.28666296E+00  3.16392696E+00  7.86827235E+00
  1.88128854E+00  5.44249258E-01  1.68714478E-01  4.38000000E-02  8.00000000E-01
  4.17351146E+03  6.27457911E+02  1.42902093E+02  4.02343293E+01  1.28202129E+01
  4.39043701E+00  1.16263619E+01  2.71627981E+00  7.72218397E-01  2.12031498E-01
  6.39000000E-02  8.00000000E-01
Contraction coefficients                   R   N=          72
  1.83473713E-03  1.40373228E-02  6.88426223E-02  2.32184443E-01  4.67941348E-01
  3.62311985E-01 -1.19332420E-01 -1.60854152E-01  1.14345644E+00  1.00000000E+00
  1.00000000E+00  1.00000000E+00  1.83295985E-03  1.40341988E-02  6.90973943E-02
  2.37451980E-01  4.83033960E-01  3.39855972E-01 -2.29739142E-03 -3.07137189E-02
 -1.12528069E-01  4.50163278E-02  5.89353363E-01  4.65206287E-01 -2.51828028E-01
  6.15892514E-02  1.06018433E+00  1.00000000E+00  1.00000000E+00  1.00000000E+00
  3.34946043E-02  2.34726953E-01  8.13757326E-01  1.00000000E+00  1.00000000E+00
  1.00000000E+00  3.34946043E-02  2.34726953E-01  8.13757326E-01  1.00000000E+00
  1.00000000E+00  1.00000000E+00  3.34946043E-02  2.34726953E-01  8.13757326E-01
  1.00000000E+00  1.00000000E+00  1.00000000E+00  1.83473713E-03  1.40373228E-02
  6.88426223E-02  2.32184443E-01  4.67941348E-01  3.62311985E-01 -1.19332420E-01
 -1.60854152E-01  1.14345644E+00  1.00000000E+00  1.00000000E+00  1.00000000E+00
  1.83477216E-03  1.39946270E-02  6.85865518E-02  2.32240873E-01  4.69069948E-01
  3.60455199E-01 -1.14961182E-01 -1.69117479E-01  1.14585195E+00  1.00000000E+00
  1.00000000E+00  1.00000000E+00
P(S=P) Contraction coefficients            R   N=          72
  0.00000000E+00  0.00000000E+00  0.00000000E+00  0.00000000E+00  0.00000000E+00
  0.00000000E+00  6.89990666E-02  3.16423961E-01  7.44308291E-01  1.00000000E+00
  1.00000000E+00  0.00000000E+00  0.00000000E+00  0.00000000E+00  0.00000000E+00
  0.00000000E+00  0.00000000E+00  0.00000000E+00  3.98940088E-03  3.03177067E-02
  1.29880029E-01  3.27951072E-01  4.53527100E-01  2.52154056E-01 -1.42993147E-02
  3.23572333E-01  7.43507765E-01  1.00000000E+00  1.00000000E+00  0.00000000E+00
  0.00000000E+00  0.00000000E+00  0.00000000E+00  0.00000000E+00  0.00000000E+00
  0.00000000E+00  0.00000000E+00  0.00000000E+00  0.00000000E+00  0.00000000E+00
  0.00000000E+00  0.00000000E+00  0.00000000E+00  0.00000000E+00  0.00000000E+00
  0.00000000E+00  0.00000000E+00  0.00000000E+00  0.00000000E+00  0.00000000E+00
  0.00000000E+00  0.00000000E+00  0.00000000E+00  0.00000000E+00  6.89990666E-02
  3.16423961E-01  7.44308291E-01  1.00000000E+00  1.00000000E+00  0.00000000E+00
  0.00000000E+00  0.00000000E+00  0.00000000E+00  0.00000000E+00  0.00000000E+00
  0.00000000E+00  6.75797439E-02  3.23907296E-01  7.40895140E-01  1.00000000E+00
  1.00000000E+00  0.00000000E+00
Coordinates of each shell                  R   N=          99
  3.87713219E-01  1.32280829E-05 -4.28967830E-04  3.87713219E-01  1.32280829E-05
 -4.28967830E-04  3.87713219E-01  1.32280829E-05 -4.28967830E-04  3.87713219E-01
  1.32280829E-05 -4.28967830E-04  3.87713219E-01  1.32280829E-05 -4.28967830E-04
 -4.21454846E+00 -3.77945225E-06  1.96531517E-04 -4.21454846E+00 -3.77945225E-06
  1.96531517E-04 -4.21454846E+00 -3.77945225E-06  1.96531517E-04 -4.21454846E+00
 -3.77945225E-06  1.96531517E-04 -4.21454846E+00 -3.77945225E-06  1.96531517E-04
 -4.21454846E+00 -3.77945225E-06  1.96531517E-04  2.08032390E-01  4.73943312E-03
 -2.02727740E+00  2.08032390E-01  4.73943312E-03 -2.02727740E+00  2.08032390E-01
  4.73943312E-03 -2.02727740E+00  2.08032390E-01  4.73943312E-03 -2.02727740E+00
  2.08070185E-01  1.75304223E+00  1.01698635E+00  2.08070185E-01  1.75304223E+00
  1.01698635E+00  2.08070185E-01  1.75304223E+00  1.01698635E+00  2.08070185E-01
  1.75304223E+00  1.01698635E+00  2.08049398E-01 -1.75773631E+00  1.00880384E+00
  2.08049398E-01 -1.75773631E+00  1.00880384E+00  2.08049398E-01 -1.75773631E+00
  1.00880384E+00  2.08049398E-01 -1.75773631E+00  1.00880384E+00  4.26550871E+00
  9.44863062E-06 -4.23298652E-04  4.26550871E+00  9.44863062E-06 -4.23298652E-04
  4.26550871E+00  9.44863062E-06 -4.23298652E-04  4.26550871E+00  9.44863062E-06
 -4.23298652E-04  4.26550871E+00  9.44863062E-06 -4.23298652E-04  6.49216166E+00
 -1.32280829E-05  3.47709607E-04  6.49216166E+00 -1.32280829E-05  3.47709607E-04
  6.49216166E+00 -1.32280829E-05  3.47709607E-04  6.49216166E+00 -1.32280829E-05
  3.47709607E-04  6.49216166E+00 -1.32280829E-05  3.47709607E-04
Num ILSW                                   I              100
ILSW                                       I   N=         100
           0           1           0           0           2           0
           0           0           0           0         402          -1
           5           0           0           0           2           0
           0           0           0           0           1           0
           1           1           0           0           0           0
           0           0      100000           0          -1           0
           0           0           0           0           0           0
           0           0           0           1           0           0
           0 -2000000000           1           0           0           0
           0           0           4          52           0           0
           0           0           5           0           0           0
           0           0           0           7           0           1
           0           0           0           0           0           0
           0           0           0           0           0           0
           0           0           0           0           0           0
           0           0           0           0           0           0
           0           0           0           0
Num RLSW                                   I               52
RLSW                                       R   N=          52
  8.00000000E-01  7.20000000E-01  1.00000000E+00  8.10000000E-01  2.00000000E-01
  0.00000000E+00  0.00000000E+00  1.00000000E+00  0.00000000E+00  0.00000000E+00
  0.00000000E+00  0.00000000E+00  1.00000000E+00  0.00000000E+00  0.00000000E+00
  0.00000000E+00  0.00000000E+00  1.00000000E+00  0.00000000E+00  0.00000000E+00
  0.00000000E+00  0.00000000E+00  1.00000000E+00  0.00000000E+00  0.00000000E+00
  0.00000000E+00  0.00000000E+00  1.00000000E+00  0.00000000E+00  0.00000000E+00
  0.00000000E+00  0.00000000E+00  1.00000000E+00  0.00000000E+00  0.00000000E+00
  0.00000000E+00  0.00000000E+00  0.00000000E+00  1.00000000E+00  1.00000000E+00
  0.00000000E+00  1.00000000E+00  0.00000000E+00  0.00000000E+00  0.00000000E+00
  0.00000000E+00  0.00000000E+00  0.00000000E+00  0.00000000E+00  0.00000000E+00
  0.00000000E+00  0.00000000E+00
MxBond                                     I                3
NBond                                      I   N=           7
           3           0           1           1           1           1
           1
IBond                                      I   N=          21
           3           4           5           0           0           0
           1           0           0           1           0           0
           1           0           0           7           0           0
           6           0           0
RBond                                      R   N=          21
  1.00000000E+00  1.00000000E+00  1.00000000E+00  0.00000000E+00  0.00000000E+00
  0.00000000E+00  1.00000000E+00  0.00000000E+00  0.00000000E+00  1.00000000E+00
  0.00000000E+00  0.00000000E+00  1.00000000E+00  0.00000000E+00  0.00000000E+00
  2.00000000E+00  0.00000000E+00  0.00000000E+00  2.00000000E+00  0.00000000E+00
  0.00000000E+00
Virial Ratio                               R      2.004849990865676E+00
SCF Energy                                 R     -5.929958635630647E+02
Total Energy                               R     -5.929958635630647E+02
RMS Force                                  R      9.882020713598380E-03
RMS Density                                R      6.920297467161542E-09
NImag                                      I                1
Job Status                                 I                1
Nuclear derivative order                   I                2
External E-field                           R   N=          35
  0.00000000E+00  0.00000000E+00  0.00000000E+00  0.00000000E+00  0.00000000E+00
  0.00000000E+00  0.00000000E+00  0.00000000E+00  0.00000000E+00  0.00000000E+00
  0.00000000E+00  0.00000000E+00  0.00000000E+00  0.00000000E+00  0.00000000E+00
  0.00000000E+00  0.00000000E+00  0.00000000E+00  0.00000000E+00  0.00000000E+00
  0.00000000E+00  0.00000000E+00  0.00000000E+00  0.00000000E+00  0.00000000E+00
  0.00000000E+00  0.00000000E+00  0.00000000E+00  0.00000000E+00  0.00000000E+00
  0.00000000E+00  0.00000000E+00  0.00000000E+00  0.00000000E+00  0.00000000E+00
IOpCl                                      I                0
IROHF                                      I                0
Alpha Orbital Energies                     R   N=          98
 -1.01298081E+02 -1.41753285E+01 -1.01150021E+01 -1.00576239E+01 -9.21269740E+00
 -6.97188923E+00 -6.96957173E+00 -6.96957169E+00 -7.28675890E-01 -5.90061622E-01
 -5.37279578E-01 -3.09309388E-01 -3.09291526E-01 -2.75260246E-01 -1.92210170E-01
 -1.72662081E-01 -1.72661787E-01 -9.28627548E-02 -9.28625511E-02 -9.12067850E-02
  1.09393910E-01  1.39216514E-01  1.47858438E-01  1.47860786E-01  1.54832155E-01
  1.83134505E-01  1.83139798E-01  1.98836245E-01  2.21174203E-01  2.21174510E-01
  2.37146429E-01  2.37158040E-01  2.42009493E-01  2.55997151E-01  2.55999218E-01
  2.56777609E-01  3.08720071E-01  3.41242057E-01  3.41247283E-01  3.55311428E-01
  3.55312573E-01  3.59674088E-01  3.89367264E-01  4.41844525E-01  4.64973098E-01
  7.49094996E-01  7.98853038E-01  7.98861263E-01  8.03978851E-01  8.03996198E-01
  8.07785123E-01  8.56904012E-01  8.56908707E-01  9.00437444E-01  9.47020254E-01
  9.86920256E-01  1.05613297E+00  1.05613914E+00  1.11445706E+00  1.11445732E+00
  1.12168994E+00  1.12169154E+00  1.13825724E+00  1.15244916E+00  1.15247298E+00
  1.24222059E+00  1.27329838E+00  1.41265941E+00  1.51254160E+00  1.59605260E+00
  1.59606855E+00  1.70081235E+00  1.70081339E+00  1.73636668E+00  1.73637085E+00
  1.81824621E+00  2.12169489E+00  2.12172999E+00  2.12233413E+00  2.13566565E+00
  2.13570641E+00  2.13854140E+00  2.57791169E+00  2.63182673E+00  2.63186754E+00
  2.78384601E+00  2.78387103E+00  2.85715247E+00  2.88565972E+00  2.88576777E+00
  3.21807162E+00  3.45912156E+00  3.58495658E+00  3.58505427E+00  4.17871669E+00
  4.41864426E+00  4.53888316E+00  4.61470263E+00
Alpha MO coefficients                      R   N=        9604
 -4.13357105E-06 -4.61051789E-05  2.65969937E-05  1.14243561E-10 -3.95388822E-09
  6.40830569E-05 -1.66899070E-04 -1.11988021E-09  2.19089917E-08  1.21316566E-04
  3.43686110E-04  1.09606194E-09 -2.57103545E-08  1.92772880E-05 -6.02848000E-06
 -6.03540681E-06  3.58779869E-10 -5.78946755E-09 -1.82988798E-10  9.95997685E-01
  1.51482058E-02  8.58350483E-06  4.37739271E-11 -1.69697809E-09 -2.10573319E-02
 -4.76008680E-06  7.15092879E-11 -9.03622700E-11  1.88517913E-03 -4.17922070E-05
 -4.05545699E-10  8.80109021E-09 -1.36824977E-04  5.58412393E-05  6.51522384E-10
 -1.83844587E-08  7.50259376E-03  7.52259715E-03  7.52259705E-03 -8.73136875E-11
  3.02349600E-09 -5.12950318E-12 -9.79552585E-06 -4.86020090E-05  7.50805039E-05
  2.81594153E-05  1.19870006E-08 -5.07324881E-06 -9.81390004E-06 -4.85954966E-05
  7.51174099E-05  2.81602016E-05  4.38739488E-06  2.54196098E-06 -9.81553024E-06
 -4.85953145E-05  7.51200424E-05  2.81603078E-05 -4.39918089E-06  2.52165891E-06
 -2.09245234E-06 -5.35542903E-06  3.81220840E-06  2.74424867E-11 -1.96092160E-09
 -1.60086635E-04 -2.34961140E-04  1.65909539E-09 -4.76520689E-08 -5.98063630E-04
  1.04975179E-04 -1.11197255E-11 -7.17777598E-09 -1.18990392E-05 -2.18573076E-06
 -2.18567002E-06  1.77232064E-10 -7.33976894E-09  8.53680465E-12 -3.32555501E-06
 -1.47930663E-05 -1.79112428E-06 -2.93829040E-11  1.85829044E-09  2.32532004E-04
 -1.08535336E-04  1.41489239E-09 -5.23538046E-08  2.08637075E-04 -4.56911718E-05
  5.64127205E-10 -1.92907349E-08  3.77649245E-06 -8.27112924E-06 -8.27107368E-06
 -2.03707743E-10  7.50171072E-09  2.64114701E-13 -1.44709695E-05 -6.23538406E-05
 -3.29376931E-05  5.44835090E-11  4.93996728E-09  3.04365958E-04  1.72026836E-04
  1.39428991E-09 -5.88026016E-08  2.85528415E-03  1.35564027E-03  3.79484774E-09
 -1.92780954E-07  2.37647583E-06 -3.42015852E-05 -3.41909028E-05  2.41672391E-11
 -2.79704388E-11  3.04240316E-10  5.06932207E-08  3.73433534E-07  1.35329984E-06
 -4.35725862E-13 -3.49488998E-10  9.31899357E-07 -8.55798624E-06  8.76914985E-12
  1.94929077E-09 -3.85906948E-05  3.90651831E-05 -1.29600305E-11 -7.30817381E-09
  5.16529053E-04  1.25795953E-04 -2.12775397E-10  1.38663607E-08  7.61845464E-06
 -1.86966121E-06 -1.87005189E-06 -5.05779785E-11  1.83536205E-10 -1.85713793E-11
  2.47373883E-06 -1.32080754E-04 -1.21740983E-04 -1.42642247E-05 -3.42266646E-09
  1.42341214E-06  2.48212391E-06 -1.31993909E-04 -1.21836252E-04 -1.42576809E-05
 -1.23914750E-06 -7.14246700E-07  2.48303410E-06 -1.31991889E-04 -1.21838911E-04
 -1.42574109E-05  1.24286539E-06 -7.08814287E-07  8.23714238E-05  2.25325581E-04
 -3.92731967E-04  3.55806801E-09 -1.21716312E-07  3.44759477E-05 -9.72490887E-06
  3.01512570E-09 -1.02178016E-07 -1.04113387E-03  2.23564202E-03 -1.25033618E-08
  4.03308387E-07 -8.73582692E-04 -2.69361515E-06 -2.69341029E-06  9.96527299E-09
 -3.38907386E-07  2.53372851E-11  9.92727182E-01  3.44600221E-02 -1.66010187E-03
  1.76678255E-08 -5.93683025E-07  4.71023570E-03  3.98432986E-04 -5.09855745E-09
  1.68026771E-07 -3.10442028E-03 -2.24685951E-04 -7.07920394E-10  2.96914700E-08
 -7.59628242E-03 -8.38184348E-03 -8.38184363E-03 -9.04485143E-09  3.07914894E-07
 -2.09906321E-12  9.93155186E-01  4.94027260E-02  3.47192508E-04  3.18252150E-09
 -1.55213743E-07 -1.78747198E-02 -2.31011381E-03 -1.19834424E-08  7.60499175E-07
  5.83927600E-03  5.22224720E-03  5.40363919E-09  1.29597374E-07 -9.35052872E-03
 -8.35237410E-03 -8.35251292E-03  2.74487130E-09  5.39885369E-08 -6.35547529E-10
 -3.18680131E-06 -1.52102474E-05 -1.78193094E-05  3.18324260E-10 -1.77059599E-09
 -1.55633584E-04  4.56545398E-05 -2.25801986E-09  2.11336747E-08  3.50434336E-04
  4.79588084E-04  1.00361373E-08 -1.68997405E-07  2.59036863E-03  5.42835470E-04
  4.62818147E-09 -2.27326313E-07  1.74201833E-04 -3.88880740E-05 -3.88764495E-05
  2.72852768E-09 -6.08192834E-08  4.75031765E-10 -1.74564157E-04  3.08042013E-03
 -3.43175579E-04  4.16562874E-05  5.60614381E-07 -2.40132568E-04 -1.74672295E-04
  3.07975241E-03 -3.43498804E-04  4.16768508E-05  2.07728910E-04  1.20540645E-04
 -1.74677632E-04  3.07974740E-03 -3.43499174E-04  4.16785102E-05 -2.08287513E-04
  1.19571416E-04  1.22687512E-04 -2.37126861E-04  1.52422187E-05  1.87776067E-09
 -1.72696811E-08 -2.70939111E-03 -6.37803833E-03  2.80568273E-08 -1.09709595E-06
 -8.96452095E-03  2.79888255E-03 -8.57541819E-09 -2.63211355E-07 -4.39316133E-05
 -4.90727626E-05 -4.90718975E-05  3.76880225E-09 -1.24129850E-07 -3.11746930E-10
 -8.89808888E-05 -4.01983551E-04 -1.61882971E-05 -2.52061158E-09  8.17647923E-08
  5.98805992E-03 -2.33146725E-03  4.08092864E-08 -1.36442246E-06  2.52844958E-03
 -1.04938794E-03  1.00371385E-08 -4.44333914E-08 -3.60742815E-05 -1.81895263E-04
 -1.81894781E-04 -4.33476958E-09  1.36114165E-07  2.57230371E-11 -2.25028343E-04
 -2.11506827E-04  2.66388178E-05 -6.84718475E-10  2.60363117E-09  1.46497089E-03
  1.13899742E-03 -2.80614881E-09 -3.29624946E-08  1.82283101E-02  1.96323190E-02
  2.29910198E-08 -1.20477996E-06  5.12247525E-05 -4.39354978E-05 -4.39500740E-05
 -5.43795107E-10  8.39354682E-09 -8.76200162E-10  1.83535244E-07  1.62914729E-06
  1.87627525E-05  1.15305432E-10 -5.34619037E-09  8.45976080E-06 -1.26750597E-04
 -7.05510765E-10  3.29911807E-08 -3.67394604E-04  6.62637528E-04  2.58838582E-09
 -1.23452067E-07  1.05687320E-02  3.18695052E-03  2.42217550E-08 -7.76203369E-07
  6.22046444E-05 -2.23973284E-05 -2.23976831E-05  6.49864113E-10 -2.57769683E-08
 -5.97054805E-11 -4.74958115E-05 -4.96994228E-04  4.67364364E-04 -1.02374612E-05
 -2.38914121E-08  1.01919863E-05 -4.74888566E-05 -4.96954514E-04  4.68160941E-04
 -1.02230458E-05 -8.80743277E-06 -5.10481810E-06 -4.74892056E-05 -4.96957832E-04
  4.68189820E-04 -1.02258929E-05  8.82949484E-06 -5.06292160E-06  9.92854991E-01
  4.94827200E-02  1.11021581E-03 -1.52614389E-08  5.49988302E-07 -1.01199849E-02
  1.87710147E-03  3.12374462E-09 -1.65594785E-07 -3.42262387E-02  1.02940631E-02
 -8.24273097E-10 -5.34151933E-07 -8.54452354E-03 -9.66852003E-03 -9.66851972E-03
 -1.40467000E-08  4.74260262E-07  6.49419355E-11 -4.30427772E-04  2.85078039E-04
  2.50474678E-04 -2.11076783E-09  7.44957733E-08 -3.72528367E-03  1.50351917E-03
 -2.10057172E-08  7.04482912E-07  9.71769669E-03 -5.37058174E-03  3.14443670E-08
 -8.86348467E-07 -8.78051456E-06  2.67426955E-04  2.67427632E-04  4.51495325E-09
 -1.55345152E-07  6.37175049E-12  4.36378574E-06 -7.52124064E-05  2.06648411E-04
  2.53689982E-12 -2.27650737E-08 -3.17789985E-04 -2.43147274E-03  7.15790170E-09
  7.44909208E-08  7.00584643E-03  1.84198634E-02  2.77083595E-08 -1.71615970E-06
  2.02433441E-04  1.73740415E-05  1.74004401E-05 -1.10212476E-09 -4.33924212E-09
  1.09151290E-09 -2.84627710E-01  1.02272340E+00  9.36963867E-04  7.83086815E-09
 -2.47189889E-07  7.55002739E-02  5.18475982E-04  1.10101330E-09 -6.25943741E-08
 -2.30953249E-02 -1.70775027E-03 -3.68955213E-09  1.91394659E-07  2.39041643E-02
  7.94547118E-03  2.58694713E-08 -1.08801096E-06 -1.55537970E-02 -1.55241894E-02
 -1.55241958E-02  1.28114104E-10 -1.09931812E-09 -1.83655885E-11 -3.03749576E-05
 -2.25481067E-04 -1.69965252E-03 -4.99792121E-06 -1.03424777E-07  4.40049458E-05
 -3.04037813E-05 -2.25056079E-04 -1.70062647E-03 -5.08703191E-06 -3.80988270E-05
 -2.20989109E-05 -3.04039165E-05 -2.25029713E-04 -1.70071156E-03 -5.09453278E-06
  3.82036282E-05 -2.19233197E-05 -2.03340030E-06 -5.10096657E-05  5.98130921E-06
 -6.35336428E-10  1.60506637E-08 -1.29519406E-03 -1.91161186E-03  1.28718992E-08
 -3.84276508E-07 -1.71694933E-02  7.06524356E-03 -4.35720119E-08  1.06736357E-06
  1.01206852E-04  5.95335203E-06  5.95433685E-06  6.82747300E-10 -2.47514541E-08
  7.46103559E-11 -6.89695822E-05 -2.57264055E-04  8.58609941E-06 -1.12902556E-09
  4.73426524E-08  2.70258836E-03 -6.70307272E-04  1.16332986E-08 -4.46555332E-07
 -1.28362547E-03 -6.49610135E-04  8.70919415E-09 -1.51210192E-07 -1.37555453E-04
 -1.45909317E-04 -1.45911017E-04 -5.66768777E-10  2.36112572E-08 -3.89671540E-11
  2.89310712E-05 -1.46925478E-04 -4.45022256E-04 -1.02241789E-09  6.24533439E-08
 -3.46450035E-04 -5.51444051E-04  1.47508752E-08 -1.73959643E-07 -4.82078216E-02
 -5.88938966E-02 -6.03171408E-08  3.15289142E-06  4.85998879E-04  4.47498524E-05
  4.48734112E-05 -2.95886116E-09 -4.07862907E-08  3.40694657E-09  3.12246879E-04
 -1.05898317E-03  9.90600455E-01  7.34701686E-06 -1.89177283E-04  3.30681167E-04
  3.06767159E-02  2.23742667E-07 -5.82815990E-06 -2.06675779E-04 -1.40228692E-02
 -9.29301151E-08  2.57378305E-06 -3.02069251E-02 -4.77843173E-03 -3.91445242E-08
  1.49614446E-06  1.60523685E-04  1.51806728E-04  1.51811360E-04 -5.64291814E-10
  2.34256754E-08  8.35713472E-11 -7.18923356E-05  1.35035113E-03 -3.76169008E-03
 -1.93908212E-04 -3.59150319E-07  1.53229609E-04 -7.16729031E-05  1.35050519E-03
 -3.76255990E-03 -1.94086883E-04 -1.32582855E-04 -7.68984220E-05 -7.16531326E-05
  1.35051314E-03 -3.76258057E-03 -1.94098825E-04  1.32943282E-04 -7.62837935E-05
 -8.23205707E-05 -3.58413393E-04 -4.80122729E-05  4.69758117E-09 -1.59061201E-07
  2.64675763E-03 -1.32292141E-04 -2.32098458E-08  7.49192585E-07  9.21538334E-02
 -3.32628398E-02  6.65984650E-08 -3.12642913E-07 -8.71862729E-05 -1.28457256E-04
 -1.28455655E-04 -9.84814597E-10  4.19711363E-08 -8.85953207E-11 -1.87864298E-05
 -8.32270522E-05  3.22041067E-05  3.84039376E-10 -3.94446412E-08  4.59755668E-04
 -8.78051960E-05  2.41278248E-09  4.45711096E-08 -8.50193734E-03  7.51143075E-03
 -3.22947855E-08  4.70661500E-07 -1.88693747E-05 -2.85480731E-05 -2.85499078E-05
 -9.01697431E-10  2.64626929E-08  5.89656954E-12 -2.15354313E-09 -8.25207303E-09
  3.42107887E-09 -3.99123951E-05  3.73984064E-07  6.68319474E-08 -1.09049401E-08
 -1.15006958E-04  1.08793529E-06  1.03682409E-07 -4.06039362E-09  2.95356313E-04
 -2.77668608E-06 -4.39708610E-09  5.23674428E-07 -5.30265199E-07 -1.05002790E-04
  9.84918097E-07 -3.70803704E-05  1.33081161E-10 -8.70859964E-10 -9.12334094E-06
  9.90775906E-01 -9.30232045E-03 -1.76879380E-09 -2.75783101E-07  2.96652875E-02
 -2.78525662E-04  4.09320754E-09  1.03913328E-07 -1.15616113E-02  1.08552986E-04
 -4.47175518E-08 -5.69119051E-08  5.14698609E-03 -4.83285524E-05 -3.70120716E-09
 -3.96159149E-08  4.05112367E-08  9.59997144E-05 -9.01360104E-07  2.82420662E-06
 -1.73458645E-06  1.08732406E-05 -5.09694213E-05 -1.78882816E-06  4.23741912E-06
  1.15900966E-06 -1.27363249E-04  8.00259218E-04 -3.73874216E-03 -1.31484808E-04
 -7.19126865E-05 -4.42375313E-05  1.29094898E-04 -8.11250116E-04  3.78967479E-03
  1.33285339E-04 -7.31614019E-05  4.44017590E-05  8.08368471E-11  7.99083924E-10
  8.26375407E-10  5.79348608E-05 -5.43800054E-07  1.14273977E-08  1.49054289E-08
 -2.46800006E-04  2.31593171E-06  1.21649940E-08 -8.43121807E-09  1.03950409E-03
 -9.76034158E-06  4.34468480E-11  8.03089177E-09 -8.40705167E-09 -1.18267608E-06
  1.13115901E-08 -5.77608933E-07  2.60198866E-10  1.17398145E-09 -5.69897963E-10
 -2.26660352E-05  2.12721382E-07 -1.65440893E-08  1.10068782E-08  1.41665158E-04
 -1.32962315E-06 -1.00009433E-08  8.91653434E-09 -3.57680379E-04  3.35905045E-06
 -8.25090746E-10 -4.43926530E-08  4.63260632E-08 -1.82171452E-05  1.70981594E-07
  3.19792602E-06  2.30747834E-08  8.98410873E-08 -4.82301008E-08 -3.75976207E-07
 -3.99647355E-05 -7.27755311E-07  9.06977498E-08 -1.06663545E-06 -1.14473551E-04
  2.33560081E-06  3.96573094E-06  2.76107793E-06  2.94460012E-04  3.27691462E-08
 -3.20550298E-05  3.21386235E-05 -9.87223487E-07 -1.05046941E-04 -6.06151812E-07
 -1.55049917E-08  6.70660330E-08  1.89131335E-04  9.30232229E-03  9.90775899E-01
  4.85382501E-08  5.67537017E-06  2.78524175E-04  2.96652314E-02 -1.90031837E-07
 -2.11204652E-06 -1.08547809E-04 -1.15614595E-02  2.57882386E-06  1.73473861E-06
  4.83183368E-05  5.14672426E-03  6.36077674E-08  2.47421810E-06 -2.49935163E-06
  9.01341819E-07  9.60033009E-05  4.70866225E-08  1.48175579E-04 -9.29648037E-04
  4.34527226E-03  1.52741737E-04  2.78196995E-07 -9.81006763E-05 -7.55765047E-05
  4.74855940E-04 -2.21623229E-03 -7.79930800E-05 -4.51352073E-05 -2.19624734E-05
 -7.25658284E-05  4.55990384E-04 -2.12805882E-03 -7.48934910E-05  4.35361731E-05
 -2.07165879E-05  7.49177243E-09  2.45902578E-08 -2.08169127E-08  5.43956267E-07
  5.79203897E-05 -6.19156305E-07 -3.38811444E-07 -2.31823972E-06 -2.46778476E-04
 -6.27654988E-06  2.73020059E-06  9.75993712E-06  1.03957134E-03  1.32751573E-09