 Entering Gaussian System, Link 0=g16
 Initial command:
 /usr/local/g16_AVX//g16/l1.exe "/scratch/alanqf/0088-54530.ixchel.mda.cinvestav.mx/Gau-38980.inp" -scrdir="/scratch/alanqf/0088-54530.ixchel.mda.cinvestav.mx/"
 Entering Link 1 = /usr/local/g16_AVX//g16/l1.exe PID=     38981.
  
 Copyright (c) 1988-2017, Gaussian, Inc.  All Rights Reserved.
  
 This is part of the Gaussian(R) 16 program.  It is based on
 the Gaussian(R) 09 system (copyright 2009, Gaussian, Inc.),
 the Gaussian(R) 03 system (copyright 2003, Gaussian, Inc.),
 the Gaussian(R) 98 system (copyright 1998, Gaussian, Inc.),
 the Gaussian(R) 94 system (copyright 1995, Gaussian, Inc.),
 the Gaussian 92(TM) system (copyright 1992, Gaussian, Inc.),
 the Gaussian 90(TM) system (copyright 1990, Gaussian, Inc.),
 the Gaussian 88(TM) system (copyright 1988, Gaussian, Inc.),
 the Gaussian 86(TM) system (copyright 1986, Carnegie Mellon
 University), and the Gaussian 82(TM) system (copyright 1983,
 Carnegie Mellon University). Gaussian is a federally registered
 trademark of Gaussian, Inc.
  
 This software contains proprietary and confidential information,
 including trade secrets, belonging to Gaussian, Inc.
  
 This software is provided under written license and may be
 used, copied, transmitted, or stored only in accord with that
 written license.
  
 The following legend is applicable only to US Government
 contracts under FAR:
  
                    RESTRICTED RIGHTS LEGEND
  
 Use, reproduction and disclosure by the US Government is
 subject to restrictions as set forth in subparagraphs (a)
 and (c) of the Commercial Computer Software - Restricted
 Rights clause in FAR 52.227-19.
  
 Gaussian, Inc.
 340 Quinnipiac St., Bldg. 40, Wallingford CT 06492
  
  
 ---------------------------------------------------------------
 Warning -- This program may not be used in any manner that
 competes with the business of Gaussian, Inc. or will provide
 assistance to any competitor of Gaussian, Inc.  The licensee
 of this program is prohibited from giving any competitor of
 Gaussian, Inc. access to this program.  By using this program,
 the user acknowledges that Gaussian, Inc. is engaged in the
 business of creating and licensing software in the field of
 computational chemistry and represents and warrants to the
 licensee that it is not a competitor of Gaussian, Inc. and that
 it will not use this program in any manner prohibited above.
 ---------------------------------------------------------------
  

 Cite this work as:
 Gaussian 16, Revision B.01,
 M. J. Frisch, G. W. Trucks, H. B. Schlegel, G. E. Scuseria, 
 M. A. Robb, J. R. Cheeseman, G. Scalmani, V. Barone, 
 G. A. Petersson, H. Nakatsuji, X. Li, M. Caricato, A. V. Marenich, 
 J. Bloino, B. G. Janesko, R. Gomperts, B. Mennucci, H. P. Hratchian, 
 J. V. Ortiz, A. F. Izmaylov, J. L. Sonnenberg, D. Williams-Young, 
 F. Ding, F. Lipparini, F. Egidi, J. Goings, B. Peng, A. Petrone, 
 T. Henderson, D. Ranasinghe, V. G. Zakrzewski, J. Gao, N. Rega, 
 G. Zheng, W. Liang, M. Hada, M. Ehara, K. Toyota, R. Fukuda, 
 J. Hasegawa, M. Ishida, T. Nakajima, Y. Honda, O. Kitao, H. Nakai, 
 T. Vreven, K. Throssell, J. A. Montgomery, Jr., J. E. Peralta, 
 F. Ogliaro, M. J. Bearpark, J. J. Heyd, E. N. Brothers, K. N. Kudin, 
 V. N. Staroverov, T. A. Keith, R. Kobayashi, J. Normand, 
 K. Raghavachari, A. P. Rendell, J. C. Burant, S. S. Iyengar, 
 J. Tomasi, M. Cossi, J. M. Millam, M. Klene, C. Adamo, R. Cammi, 
 J. W. Ochterski, R. L. Martin, K. Morokuma, O. Farkas, 
 J. B. Foresman, and D. J. Fox, Gaussian, Inc., Wallingford CT, 2016.
 
 ******************************************
 Gaussian 16:  ES64L-G16RevB.01 20-Dec-2017
                13-Oct-2024 
 ******************************************
 %NProcShared=26
 Will use up to   26 processors via shared memory.
 %MEM=20GB
 %chk=CHKfiles/0088.chk
 ---------------------------------------------------------------------
 #p b3lyp 6-31++g(d,p) scf=verytight NoSymm freq=noraman int=ultrafine
 ---------------------------------------------------------------------
 1/10=4,30=1,38=1/1,3;
 2/12=2,15=1,17=6,18=5,40=1/2;
 3/5=1,6=6,7=1111,11=2,25=1,30=1,71=2,74=-5,75=-5,140=1/1,2,3;
 4//1;
 5/5=2,17=3,38=5,98=1/2;
 8/6=4,10=90,11=11/1;
 11/6=1,8=1,9=11,15=111,16=1,31=1/1,2,10;
 10/6=1,31=1/2;
 6/7=2,8=2,9=2,10=2,28=1/1;
 7/8=1,10=1,25=1,30=1/1,2,3,16;
 1/10=4,30=1/3;
 99//99;
 Leave Link    1 at Sun Oct 13 09:50:07 2024, MaxMem=  2684354560 cpu:               1.2 elap:               0.1
 (Enter /usr/local/g16_AVX//g16/l101.exe)
 -------------------------
 RxCoord=-1.29968 DE=49.57
 -------------------------
 Symbolic Z-matrix:
 Charge = -1 Multiplicity = 1
 C                     0.19145   0.00001  -0.00022 
 Cl                   -2.22848  0.         0.0001 
 H                     0.10932   0.00251  -1.07359 
 H                     0.10934   0.92837   0.53858 
 H                     0.10934  -0.93086   0.53425 
 C                     2.26135   0.00001  -0.00023 
 N                     3.43948  -0.00001   0.00019 
 
 ITRead=  0  0  0  0  0  0  0
 MicOpt= -1 -1 -1 -1 -1 -1 -1
 NAtoms=      7 NQM=        7 NQMF=       0 NMMI=      0 NMMIF=      0
                NMic=       0 NMicF=      0.
                    Isotopes and Nuclear Properties:
 (Nuclear quadrupole moments (NQMom) in fm**2, nuclear magnetic moments (NMagM)
  in nuclear magnetons)

  Atom         1           2           3           4           5           6           7
 IAtWgt=          12          35           1           1           1          12          14
 AtmWgt=  12.0000000  34.9688527   1.0078250   1.0078250   1.0078250  12.0000000  14.0030740
 NucSpn=           0           3           1           1           1           0           2
 AtZEff=  -0.0000000  -0.0000000  -0.0000000  -0.0000000  -0.0000000  -0.0000000  -0.0000000
 NQMom=    0.0000000  -8.1650000   0.0000000   0.0000000   0.0000000   0.0000000   2.0440000
 NMagM=    0.0000000   0.8218740   2.7928460   2.7928460   2.7928460   0.0000000   0.4037610
 AtZNuc=   6.0000000  17.0000000   1.0000000   1.0000000   1.0000000   6.0000000   7.0000000
 Leave Link  101 at Sun Oct 13 09:50:07 2024, MaxMem=  2684354560 cpu:               1.8 elap:               0.1
 (Enter /usr/local/g16_AVX//g16/l103.exe)

 GradGradGradGradGradGradGradGradGradGradGradGradGradGradGradGradGradGrad
 Berny optimization.
 Initialization pass.
 Trust Radius=3.00D-01 FncErr=1.00D-07 GrdErr=1.00D-07 EigMax=2.50D+02 EigMin=1.00D-04
 Number of steps in this run=      2 maximum allowed number of steps=      2.
 GradGradGradGradGradGradGradGradGradGradGradGradGradGradGradGradGradGrad

 Leave Link  103 at Sun Oct 13 09:50:07 2024, MaxMem=  2684354560 cpu:               0.3 elap:               0.0
 (Enter /usr/local/g16_AVX//g16/l202.exe)
                          Input orientation:                          
 ---------------------------------------------------------------------
 Center     Atomic      Atomic             Coordinates (Angstroms)
 Number     Number       Type             X           Y           Z
 ---------------------------------------------------------------------
      1          6           0        0.191447    0.000007   -0.000221
      2         17           0       -2.228481   -0.000002    0.000101
      3          1           0        0.109320    0.002511   -1.073593
      4          1           0        0.109344    0.928369    0.538580
      5          1           0        0.109335   -0.930857    0.534245
      6          6           0        2.261347    0.000005   -0.000227
      7          7           0        3.439483   -0.000007    0.000187
 ---------------------------------------------------------------------
                    Distance matrix (angstroms):
                    1          2          3          4          5
     1  C    0.000000
     2  Cl   2.419928   0.000000
     3  H    1.076512   2.572574   0.000000
     4  H    1.076524   2.572403   1.859117   0.000000
     5  H    1.076524   2.572389   1.859118   1.859231   0.000000
     6  C    2.069900   4.489828   2.404858   2.404847   2.404853
     7  N    3.248036   5.667964   3.498999   3.498796   3.498798
                    6          7
     6  C    0.000000
     7  N    1.178136   0.000000
 Symmetry turned off by external request.
 This structure is nearly, but not quite of a higher symmetry.
 Consider Symm=Loose if the higher symmetry is desired.
 Stoichiometry    C2H3ClN(1-)
 Framework group  C1[X(C2H3ClN)]
 Deg. of freedom    15
 Full point group                 C1      NOp   1
 Rotational constants (GHZ):         145.0776494           1.2543578           1.2543569
 Leave Link  202 at Sun Oct 13 09:50:07 2024, MaxMem=  2684354560 cpu:               0.2 elap:               0.0
 (Enter /usr/local/g16_AVX//g16/l301.exe)
 Standard basis: 6-31++G(d,p) (6D, 7F)
 Ernie: Thresh=  0.10000D-02 Tol=  0.10000D-05 Strict=F.
    98 basis functions,   176 primitive gaussians,    98 cartesian basis functions
    20 alpha electrons       20 beta electrons
       nuclear repulsion energy       107.6781450910 Hartrees.
 IExCor=  402 DFT=T Ex+Corr=B3LYP ExCW=0 ScaHFX=  0.200000
 ScaDFX=  0.800000  0.720000  1.000000  0.810000 ScalE2=  1.000000  1.000000
 IRadAn=      5 IRanWt=     -1 IRanGd=            0 ICorTp=0 IEmpDi=  4
 NAtoms=    7 NActive=    7 NUniq=    7 SFac= 1.00D+00 NAtFMM=   60 NAOKFM=F Big=F
 Integral buffers will be    131072 words long.
 Raffenetti 2 integral format.
 Two-electron integral symmetry is turned off.
 Leave Link  301 at Sun Oct 13 09:50:08 2024, MaxMem=  2684354560 cpu:               1.0 elap:               0.1
 (Enter /usr/local/g16_AVX//g16/l302.exe)
 NPDir=0 NMtPBC=     1 NCelOv=     1 NCel=       1 NClECP=     1 NCelD=      1
         NCelK=      1 NCelE2=     1 NClLst=     1 CellRange=     0.0.
 One-electron integrals computed using PRISM.
 NBasis=    98 RedAO= T EigKep=  7.13D-05  NBF=    98
 NBsUse=    98 1.00D-06 EigRej= -1.00D+00 NBFU=    98
 Precomputing XC quadrature grid using
 IXCGrd= 4 IRadAn=           5 IRanWt=          -1 IRanGd=           0 AccXCQ= 0.00D+00.
 Generated NRdTot=       0 NPtTot=           0 NUsed=           0 NTot=          32
 NSgBfM=    98    98    98    98    98 MxSgAt=     7 MxSgA2=     7.
 Leave Link  302 at Sun Oct 13 09:50:08 2024, MaxMem=  2684354560 cpu:               3.2 elap:               0.2
 (Enter /usr/local/g16_AVX//g16/l303.exe)
 DipDrv:  MaxL=1.
 Leave Link  303 at Sun Oct 13 09:50:08 2024, MaxMem=  2684354560 cpu:               0.5 elap:               0.1
 (Enter /usr/local/g16_AVX//g16/l401.exe)
 ExpMin= 3.60D-02 ExpMax= 2.52D+04 ExpMxC= 3.78D+03 IAcc=3 IRadAn=         5 AccDes= 0.00D+00
 Harris functional with IExCor=  402 and IRadAn=       5 diagonalized for initial guess.
 HarFok:  IExCor=  402 AccDes= 0.00D+00 IRadAn=         5 IDoV= 1 UseB2=F ITyADJ=14
 ICtDFT=  3500011 ScaDFX=  1.000000  1.000000  1.000000  1.000000
 FoFCou: FMM=F IPFlag=           0 FMFlag=      100000 FMFlg1=           0
         NFxFlg=           0 DoJE=T BraDBF=F KetDBF=T FulRan=T
         wScrn=  0.000000 ICntrl=       500 IOpCl=  0 I1Cent=   200000004 NGrid=           0
         NMat0=    1 NMatS0=      1 NMatT0=    0 NMatD0=    1 NMtDS0=    0 NMtDT0=    0
 Symmetry not used in FoFCou.
 Harris En= -593.033563585289    
 JPrj=0 DoOrth=F DoCkMO=F.
 Leave Link  401 at Sun Oct 13 09:50:08 2024, MaxMem=  2684354560 cpu:               5.9 elap:               0.3
 (Enter /usr/local/g16_AVX//g16/l502.exe)
 Keep R1 ints in memory in canonical form, NReq=35752921.
 FoFCou: FMM=F IPFlag=           0 FMFlag=           0 FMFlg1=           0
         NFxFlg=           0 DoJE=F BraDBF=F KetDBF=F FulRan=T
         wScrn=  0.000000 ICntrl=       600 IOpCl=  0 I1Cent=           0 NGrid=           0
         NMat0=    1 NMatS0=   4851 NMatT0=    0 NMatD0=    1 NMtDS0=    0 NMtDT0=    0
 Symmetry not used in FoFCou.
 Two-electron integral symmetry not used.
 Closed shell SCF:
 Using DIIS extrapolation, IDIIS=  1040.
 NGot=  2684354560 LenX=  2672563419 LenY=  2672553374
 Requested convergence on RMS density matrix=1.00D-08 within 128 cycles.
 Requested convergence on MAX density matrix=1.00D-06.
 Requested convergence on             energy=1.00D-06.
 No special actions if energy rises.

 Cycle   1  Pass 1  IDiag  1:
 E= -592.900746517261    
 DIIS: error= 2.76D-02 at cycle   1 NSaved=   1.
 NSaved= 1 IEnMin= 1 EnMin= -592.900746517261     IErMin= 1 ErrMin= 2.76D-02
 ErrMax= 2.76D-02  0.00D+00 EMaxC= 1.00D-01 BMatC= 8.93D-02 BMatP= 8.93D-02
 IDIUse=3 WtCom= 7.24D-01 WtEn= 2.76D-01
 Coeff-Com:  0.100D+01
 Coeff-En:   0.100D+01
 Coeff:      0.100D+01
 Gap=     0.283 Goal=   None    Shift=    0.000
 GapD=    0.283 DampG=1.000 DampE=0.500 DampFc=0.5000 IDamp=-1.
 Damping current iteration by 5.00D-01
 RMSDP=1.04D-02 MaxDP=2.02D-01              OVMax= 1.71D-01

 Cycle   2  Pass 1  IDiag  1:
 E= -592.928197928929     Delta-E=       -0.027451411669 Rises=F Damp=T
 DIIS: error= 1.73D-02 at cycle   2 NSaved=   2.
 NSaved= 2 IEnMin= 2 EnMin= -592.928197928929     IErMin= 2 ErrMin= 1.73D-02
 ErrMax= 1.73D-02  0.00D+00 EMaxC= 1.00D-01 BMatC= 1.78D-02 BMatP= 8.93D-02
 IDIUse=3 WtCom= 8.27D-01 WtEn= 1.73D-01
 Coeff-Com:  0.220D+00 0.780D+00
 Coeff-En:   0.319D+00 0.681D+00
 Coeff:      0.237D+00 0.763D+00
 Gap=     0.225 Goal=   None    Shift=    0.000
 RMSDP=3.05D-03 MaxDP=4.57D-02 DE=-2.75D-02 OVMax= 1.78D-01

 Cycle   3  Pass 1  IDiag  1:
 E= -592.973727765726     Delta-E=       -0.045529836797 Rises=F Damp=F
 DIIS: error= 2.17D-02 at cycle   3 NSaved=   3.
 NSaved= 3 IEnMin= 3 EnMin= -592.973727765726     IErMin= 2 ErrMin= 1.73D-02
 ErrMax= 2.17D-02  0.00D+00 EMaxC= 1.00D-01 BMatC= 2.17D-02 BMatP= 1.78D-02
 IDIUse=2 WtCom= 0.00D+00 WtEn= 1.00D+00
 Coeff-En:   0.000D+00 0.000D+00 0.100D+01
 Coeff:      0.000D+00 0.000D+00 0.100D+01
 Gap=     0.217 Goal=   None    Shift=    0.000
 RMSDP=5.36D-03 MaxDP=9.28D-02 DE=-4.55D-02 OVMax= 1.80D-01

 Cycle   4  Pass 1  IDiag  1:
 E= -592.852117409701     Delta-E=        0.121610356025 Rises=F Damp=F
 DIIS: error= 6.18D-02 at cycle   4 NSaved=   4.
 NSaved= 4 IEnMin= 3 EnMin= -592.973727765726     IErMin= 2 ErrMin= 1.73D-02
 ErrMax= 6.18D-02  0.00D+00 EMaxC= 1.00D-01 BMatC= 1.58D-01 BMatP= 1.78D-02
 IDIUse=2 WtCom= 0.00D+00 WtEn= 1.00D+00
 Coeff-En:   0.000D+00 0.000D+00 0.812D+00 0.188D+00
 Coeff:      0.000D+00 0.000D+00 0.812D+00 0.188D+00
 Gap=     0.209 Goal=   None    Shift=    0.000
 RMSDP=2.66D-03 MaxDP=4.89D-02 DE= 1.22D-01 OVMax= 9.35D-02

 Cycle   5  Pass 1  IDiag  1:
 E= -592.982614888191     Delta-E=       -0.130497478490 Rises=F Damp=F
 DIIS: error= 1.74D-02 at cycle   5 NSaved=   5.
 NSaved= 5 IEnMin= 5 EnMin= -592.982614888191     IErMin= 2 ErrMin= 1.73D-02
 ErrMax= 1.74D-02  0.00D+00 EMaxC= 1.00D-01 BMatC= 1.31D-02 BMatP= 1.78D-02
 IDIUse=3 WtCom= 8.26D-01 WtEn= 1.74D-01
 Coeff-Com:  0.512D-02 0.811D-02 0.350D+00-0.797D-01 0.717D+00
 Coeff-En:   0.000D+00 0.000D+00 0.402D+00 0.000D+00 0.598D+00
 Coeff:      0.423D-02 0.670D-02 0.359D+00-0.659D-01 0.696D+00
 Gap=     0.206 Goal=   None    Shift=    0.000
 RMSDP=1.15D-03 MaxDP=1.95D-02 DE=-1.30D-01 OVMax= 3.85D-02

 Cycle   6  Pass 1  IDiag  1:
 E= -592.994634943944     Delta-E=       -0.012020055753 Rises=F Damp=F
 DIIS: error= 3.96D-04 at cycle   6 NSaved=   6.
 NSaved= 6 IEnMin= 6 EnMin= -592.994634943944     IErMin= 6 ErrMin= 3.96D-04
 ErrMax= 3.96D-04  0.00D+00 EMaxC= 1.00D-01 BMatC= 1.49D-05 BMatP= 1.31D-02
 IDIUse=3 WtCom= 9.96D-01 WtEn= 3.96D-03
 Coeff-Com: -0.200D-02 0.717D-02 0.133D+00-0.453D-01 0.330D+00 0.577D+00
 Coeff-En:   0.000D+00 0.000D+00 0.000D+00 0.000D+00 0.000D+00 0.100D+01
 Coeff:     -0.199D-02 0.715D-02 0.133D+00-0.451D-01 0.329D+00 0.579D+00
 Gap=     0.203 Goal=   None    Shift=    0.000
 RMSDP=5.90D-05 MaxDP=9.47D-04 DE=-1.20D-02 OVMax= 1.46D-03

 Cycle   7  Pass 1  IDiag  1:
 E= -592.994648490863     Delta-E=       -0.000013546920 Rises=F Damp=F
 DIIS: error= 1.37D-04 at cycle   7 NSaved=   7.
 NSaved= 7 IEnMin= 7 EnMin= -592.994648490863     IErMin= 7 ErrMin= 1.37D-04
 ErrMax= 1.37D-04  0.00D+00 EMaxC= 1.00D-01 BMatC= 1.46D-06 BMatP= 1.49D-05
 IDIUse=3 WtCom= 9.99D-01 WtEn= 1.37D-03
 Coeff-Com: -0.109D-02 0.271D-02 0.258D-01-0.132D-01 0.760D-01 0.275D+00
 Coeff-Com:  0.635D+00
 Coeff-En:   0.000D+00 0.000D+00 0.000D+00 0.000D+00 0.000D+00 0.799D-01
 Coeff-En:   0.920D+00
 Coeff:     -0.108D-02 0.271D-02 0.257D-01-0.131D-01 0.759D-01 0.275D+00
 Coeff:      0.635D+00
 Gap=     0.203 Goal=   None    Shift=    0.000
 RMSDP=1.77D-05 MaxDP=3.00D-04 DE=-1.35D-05 OVMax= 5.62D-04

 Cycle   8  Pass 1  IDiag  1:
 E= -592.994649972171     Delta-E=       -0.000001481308 Rises=F Damp=F
 DIIS: error= 2.11D-05 at cycle   8 NSaved=   8.
 NSaved= 8 IEnMin= 8 EnMin= -592.994649972171     IErMin= 8 ErrMin= 2.11D-05
 ErrMax= 2.11D-05  0.00D+00 EMaxC= 1.00D-01 BMatC= 8.24D-08 BMatP= 1.46D-06
 IDIUse=1 WtCom= 1.00D+00 WtEn= 0.00D+00
 Coeff-Com: -0.883D-04-0.105D-03 0.137D-02-0.140D-02 0.557D-02 0.870D-01
 Coeff-Com:  0.313D+00 0.595D+00
 Coeff:     -0.883D-04-0.105D-03 0.137D-02-0.140D-02 0.557D-02 0.870D-01
 Coeff:      0.313D+00 0.595D+00
 Gap=     0.203 Goal=   None    Shift=    0.000
 RMSDP=4.34D-06 MaxDP=9.86D-05 DE=-1.48D-06 OVMax= 9.33D-05

 Cycle   9  Pass 1  IDiag  1:
 E= -592.994650064163     Delta-E=       -0.000000091992 Rises=F Damp=F
 DIIS: error= 2.01D-06 at cycle   9 NSaved=   9.
 NSaved= 9 IEnMin= 9 EnMin= -592.994650064163     IErMin= 9 ErrMin= 2.01D-06
 ErrMax= 2.01D-06  0.00D+00 EMaxC= 1.00D-01 BMatC= 7.26D-10 BMatP= 8.24D-08
 IDIUse=1 WtCom= 1.00D+00 WtEn= 0.00D+00
 Coeff-Com:  0.643D-04-0.171D-03-0.117D-02 0.343D-03-0.266D-02-0.489D-02
 Coeff-Com:  0.154D-01 0.691D-01 0.924D+00
 Coeff:      0.643D-04-0.171D-03-0.117D-02 0.343D-03-0.266D-02-0.489D-02
 Coeff:      0.154D-01 0.691D-01 0.924D+00
 Gap=     0.203 Goal=   None    Shift=    0.000
 RMSDP=1.24D-06 MaxDP=2.69D-05 DE=-9.20D-08 OVMax= 2.01D-05

 Cycle  10  Pass 1  IDiag  1:
 E= -592.994650065245     Delta-E=       -0.000000001081 Rises=F Damp=F
 DIIS: error= 7.96D-07 at cycle  10 NSaved=  10.
 NSaved=10 IEnMin=10 EnMin= -592.994650065245     IErMin=10 ErrMin= 7.96D-07
 ErrMax= 7.96D-07  0.00D+00 EMaxC= 1.00D-01 BMatC= 3.16D-11 BMatP= 7.26D-10
 IDIUse=1 WtCom= 1.00D+00 WtEn= 0.00D+00
 Coeff-Com:  0.770D-05-0.197D-04-0.187D-03 0.843D-04-0.460D-03-0.202D-02
 Coeff-Com: -0.477D-02-0.147D-02 0.855D-01 0.923D+00
 Coeff:      0.770D-05-0.197D-04-0.187D-03 0.843D-04-0.460D-03-0.202D-02
 Coeff:     -0.477D-02-0.147D-02 0.855D-01 0.923D+00
 Gap=     0.203 Goal=   None    Shift=    0.000
 RMSDP=2.65D-07 MaxDP=6.65D-06 DE=-1.08D-09 OVMax= 1.69D-06

 Cycle  11  Pass 1  IDiag  1:
 E= -592.994650065277     Delta-E=       -0.000000000033 Rises=F Damp=F
 DIIS: error= 1.28D-07 at cycle  11 NSaved=  11.
 NSaved=11 IEnMin=11 EnMin= -592.994650065277     IErMin=11 ErrMin= 1.28D-07
 ErrMax= 1.28D-07  0.00D+00 EMaxC= 1.00D-01 BMatC= 1.22D-12 BMatP= 3.16D-11
 IDIUse=1 WtCom= 1.00D+00 WtEn= 0.00D+00
 Coeff-Com: -0.209D-05 0.539D-05-0.507D-05 0.256D-06 0.349D-05-0.155D-03
 Coeff-Com: -0.950D-03-0.954D-03-0.569D-02 0.172D+00 0.835D+00
 Coeff:     -0.209D-05 0.539D-05-0.507D-05 0.256D-06 0.349D-05-0.155D-03
 Coeff:     -0.950D-03-0.954D-03-0.569D-02 0.172D+00 0.835D+00
 Gap=     0.203 Goal=   None    Shift=    0.000
 RMSDP=2.50D-08 MaxDP=4.51D-07 DE=-3.25D-11 OVMax= 4.38D-07

 Cycle  12  Pass 1  IDiag  1:
 E= -592.994650065276     Delta-E=        0.000000000001 Rises=F Damp=F
 DIIS: error= 1.76D-08 at cycle  12 NSaved=  12.
 NSaved=12 IEnMin=11 EnMin= -592.994650065277     IErMin=12 ErrMin= 1.76D-08
 ErrMax= 1.76D-08  0.00D+00 EMaxC= 1.00D-01 BMatC= 1.62D-14 BMatP= 1.22D-12
 IDIUse=1 WtCom= 1.00D+00 WtEn= 0.00D+00
 Coeff-Com: -0.442D-06 0.892D-06 0.102D-05-0.202D-06 0.281D-05 0.452D-06
 Coeff-Com: -0.393D-04-0.219D-03-0.179D-02 0.555D-02 0.103D+00 0.893D+00
 Coeff:     -0.442D-06 0.892D-06 0.102D-05-0.202D-06 0.281D-05 0.452D-06
 Coeff:     -0.393D-04-0.219D-03-0.179D-02 0.555D-02 0.103D+00 0.893D+00
 Gap=     0.203 Goal=   None    Shift=    0.000
 RMSDP=5.45D-09 MaxDP=1.56D-07 DE= 9.09D-13 OVMax= 3.99D-08

 SCF Done:  E(RB3LYP) =  -592.994650065     A.U. after   12 cycles
            NFock= 12  Conv=0.55D-08     -V/T= 2.0048
 KE= 5.901395298661D+02 PE=-1.625645630064D+03 EE= 3.348333050414D+02
 Leave Link  502 at Sun Oct 13 09:50:10 2024, MaxMem=  2684354560 cpu:              47.0 elap:               2.1
 (Enter /usr/local/g16_AVX//g16/l801.exe)
 DoSCS=F DFT=T ScalE2(SS,OS)=  1.000000  1.000000
 Range of M.O.s used for correlation:     1    98
 NBasis=    98 NAE=    20 NBE=    20 NFC=     0 NFV=     0
 NROrb=     98 NOA=    20 NOB=    20 NVA=    78 NVB=    78

 **** Warning!!: The largest alpha MO coefficient is  0.53851741D+02

 Leave Link  801 at Sun Oct 13 09:50:10 2024, MaxMem=  2684354560 cpu:               0.5 elap:               0.1
 (Enter /usr/local/g16_AVX//g16/l1101.exe)
 Using compressed storage, NAtomX=     7.
 Will process      8 centers per pass.
 Leave Link 1101 at Sun Oct 13 09:50:10 2024, MaxMem=  2684354560 cpu:               3.3 elap:               0.2
 (Enter /usr/local/g16_AVX//g16/l1102.exe)
 Symmetrizing basis deriv contribution to polar:
 IMax=3 JMax=2 DiffMx= 0.00D+00
 Leave Link 1102 at Sun Oct 13 09:50:11 2024, MaxMem=  2684354560 cpu:               0.5 elap:               0.0
 (Enter /usr/local/g16_AVX//g16/l1110.exe)
 Forming Gx(P) for the SCF density, NAtomX=     7.
 Integral derivatives from FoFJK, PRISM(SPDF).
 Do as many integral derivatives as possible in FoFJK.
 G2DrvN: MDV=    2684353878.
 G2DrvN: will do     8 centers at a time, making    1 passes.
 Calling FoFCou, ICntrl=  3107 FMM=F I1Cent=   0 AccDes= 0.00D+00.
 FoFJK:  IHMeth= 1 ICntrl=    3107 DoSepK=F KAlg= 0 I1Cent=           0 FoldK=F
 IRaf=         0 NMat=       1 IRICut=       1 DoRegI=T DoRafI=F ISym2E= 0 IDoP0=0 IntGTp=1.
 FoFCou: FMM=F IPFlag=           0 FMFlag=      100000 FMFlg1=           0
         NFxFlg=           0 DoJE=F BraDBF=F KetDBF=F FulRan=T
         wScrn=  0.000000 ICntrl=      3107 IOpCl=  0 I1Cent=           0 NGrid=           0
         NMat0=    1 NMatS0=      1 NMatT0=    0 NMatD0=    1 NMtDS0=    0 NMtDT0=    0
 Symmetry not used in FoFCou.
 End of G2Drv F.D. properties file   721 does not exist.
 End of G2Drv F.D. properties file   722 does not exist.
 End of G2Drv F.D. properties file   788 does not exist.
 Leave Link 1110 at Sun Oct 13 09:50:13 2024, MaxMem=  2684354560 cpu:              61.4 elap:               2.4
 (Enter /usr/local/g16_AVX//g16/l1002.exe)
 Minotr:  Closed shell wavefunction.
          IDoAtm=1111111
          Direct CPHF calculation.
          Differentiating once with respect to electric field.
                with respect to dipole field.
          Differentiating once with respect to nuclear coordinates.
          Requested convergence is 1.0D-08 RMS, and 1.0D-07 maximum.
          Secondary convergence is 1.0D-12 RMS, and 1.0D-12 maximum.
          NewPWx=T KeepS1=F KeepF1=F KeepIn=T MapXYZ=F SortEE=F KeepMc=T.
         2129 words used for storage of precomputed grid.
 Keep R1 ints in memory in canonical form, NReq=35668376.
 FoFCou: FMM=F IPFlag=           0 FMFlag=           0 FMFlg1=           0
         NFxFlg=           0 DoJE=F BraDBF=F KetDBF=F FulRan=T
         wScrn=  0.000000 ICntrl=       600 IOpCl=  0 I1Cent=           0 NGrid=           0
         NMat0=    1 NMatS0=   4851 NMatT0=    0 NMatD0=    1 NMtDS0=    0 NMtDT0=    0
 Symmetry not used in FoFCou.
 Two-electron integral symmetry not used.
          MDV=    2684354560 using IRadAn=       1.
          Solving linear equations simultaneously, MaxMat=       0.
          There are    24 degrees of freedom in the 1st order CPHF.  IDoFFX=6 NUNeed=     3.
     21 vectors produced by pass  0 Test12= 6.50D-15 4.17D-09 XBig12= 1.44D+02 8.71D+00.
 AX will form    21 AO Fock derivatives at one time.
     21 vectors produced by pass  1 Test12= 6.50D-15 4.17D-09 XBig12= 4.73D+01 2.41D+00.
     21 vectors produced by pass  2 Test12= 6.50D-15 4.17D-09 XBig12= 2.89D+00 5.21D-01.
     21 vectors produced by pass  3 Test12= 6.50D-15 4.17D-09 XBig12= 2.43D-02 3.46D-02.
     21 vectors produced by pass  4 Test12= 6.50D-15 4.17D-09 XBig12= 8.18D-05 1.83D-03.
     16 vectors produced by pass  5 Test12= 6.50D-15 4.17D-09 XBig12= 1.59D-07 8.89D-05.
      5 vectors produced by pass  6 Test12= 6.50D-15 4.17D-09 XBig12= 1.75D-10 3.03D-06.
      1 vectors produced by pass  7 Test12= 6.50D-15 4.17D-09 XBig12= 2.16D-13 1.21D-07.
      1 vectors produced by pass  8 Test12= 6.50D-15 4.17D-09 XBig12= 2.68D-16 4.40D-09.
 InvSVY:  IOpt=1 It=  1 EMax= 4.44D-15
 Solved reduced A of dimension   128 with    24 vectors.
 FullF1:  Do perturbations      1 to       3.
 Isotropic polarizability for W=    0.000000       67.18 Bohr**3.
 End of Minotr F.D. properties file   721 does not exist.
 End of Minotr F.D. properties file   722 does not exist.
 End of Minotr F.D. properties file   788 does not exist.
 Leave Link 1002 at Sun Oct 13 09:50:16 2024, MaxMem=  2684354560 cpu:              77.4 elap:               3.1
 (Enter /usr/local/g16_AVX//g16/l601.exe)
 Copying SCF densities to generalized density rwf, IOpCl= 0 IROHF=0.

 **********************************************************************

            Population analysis using the SCF Density.

 **********************************************************************

 Alpha  occ. eigenvalues -- -101.30085 -14.17253 -10.11522 -10.05403  -9.21547
 Alpha  occ. eigenvalues --   -6.97477  -6.97228  -6.97228  -0.72599  -0.59133
 Alpha  occ. eigenvalues --   -0.53820  -0.30955  -0.30953  -0.27209  -0.18990
 Alpha  occ. eigenvalues --   -0.17021  -0.17021  -0.09511  -0.09511  -0.09308
 Alpha virt. eigenvalues --    0.10953   0.13766   0.14794   0.14794   0.15500
 Alpha virt. eigenvalues --    0.18473   0.18473   0.19818   0.22197   0.22197
 Alpha virt. eigenvalues --    0.23703   0.23704   0.24276   0.25581   0.25581
 Alpha virt. eigenvalues --    0.25653   0.30856   0.34124   0.34124   0.35622
 Alpha virt. eigenvalues --    0.35622   0.36044   0.38916   0.44266   0.46471
 Alpha virt. eigenvalues --    0.74983   0.79964   0.79965   0.80216   0.80217
 Alpha virt. eigenvalues --    0.80568   0.85699   0.85700   0.90150   0.94543
 Alpha virt. eigenvalues --    0.98710   1.05646   1.05647   1.11241   1.11241
 Alpha virt. eigenvalues --    1.12083   1.12084   1.13812   1.15247   1.15249
 Alpha virt. eigenvalues --    1.24189   1.27580   1.41448   1.51259   1.59874
 Alpha virt. eigenvalues --    1.59876   1.70356   1.70356   1.73628   1.73628
 Alpha virt. eigenvalues --    1.81817   2.12172   2.12411   2.12417   2.13332
 Alpha virt. eigenvalues --    2.13334   2.14500   2.56857   2.64087   2.64091
 Alpha virt. eigenvalues --    2.78469   2.78471   2.85441   2.88016   2.88027
 Alpha virt. eigenvalues --    3.22058   3.46027   3.58679   3.58689   4.17861
 Alpha virt. eigenvalues --    4.42214   4.53657   4.61433
          Condensed to atoms (all electrons):
               1          2          3          4          5          6
     1  C    5.341557  -0.119054   0.432657   0.432667   0.432668  -0.210185
     2  Cl  -0.119054  17.867813  -0.042669  -0.042692  -0.042692   0.078360
     3  H    0.432657  -0.042669   0.488908  -0.018565  -0.018565  -0.056113
     4  H    0.432667  -0.042692  -0.018565   0.488876  -0.018552  -0.056073
     5  H    0.432668  -0.042692  -0.018565  -0.018552   0.488874  -0.056072
     6  C   -0.210185   0.078360  -0.056113  -0.056073  -0.056072   5.740903
     7  N   -0.047856   0.000094  -0.003341  -0.003348  -0.003349   0.689076
               7
     1  C   -0.047856
     2  Cl   0.000094
     3  H   -0.003341
     4  H   -0.003348
     5  H   -0.003349
     6  C    0.689076
     7  N    6.930276
 Mulliken charges:
               1
     1  C   -0.262454
     2  Cl  -0.699161
     3  H    0.217687
     4  H    0.217687
     5  H    0.217687
     6  C   -0.129896
     7  N   -0.561551
 Sum of Mulliken charges =  -1.00000
 Mulliken charges with hydrogens summed into heavy atoms:
               1
     1  C    0.390607
     2  Cl  -0.699161
     6  C   -0.129896
     7  N   -0.561551
 APT charges:
               1
     1  C    1.194786
     2  Cl  -1.077656
     3  H   -0.012342
     4  H   -0.012331
     5  H   -0.012330
     6  C   -0.489148
     7  N   -0.590978
 Sum of APT charges =  -1.00000
 APT charges with hydrogens summed into heavy atoms:
               1
     1  C    1.157782
     2  Cl  -1.077656
     6  C   -0.489148
     7  N   -0.590978
 Electronic spatial extent (au):  <R**2>=            837.0245
 Charge=             -1.0000 electrons
 Dipole moment (field-independent basis, Debye):
    X=             -0.2967    Y=              0.0000    Z=             -0.0009  Tot=              0.2967
 Quadrupole moment (field-independent basis, Debye-Ang):
   XX=            -86.8224   YY=            -35.2695   ZZ=            -35.2701
   XY=              0.0000   XZ=             -0.0004   YZ=             -0.0000
 Traceless Quadrupole moment (field-independent basis, Debye-Ang):
   XX=            -34.3684   YY=             17.1845   ZZ=             17.1839
   XY=              0.0000   XZ=             -0.0004   YZ=             -0.0000
 Octapole moment (field-independent basis, Debye-Ang**2):
  XXX=            -76.3914  YYY=             -0.0076  ZZZ=             -1.0818  XYY=             -2.1522
  XXY=              0.0002  XXZ=             -0.0069  XZZ=             -2.1522  YZZ=              0.0076
  YYZ=              1.0822  XYZ=              0.0000
 Hexadecapole moment (field-independent basis, Debye-Ang**3):
 XXXX=          -1691.9893 YYYY=            -55.8269 ZZZZ=            -55.8262 XXXY=              0.0009
 XXXZ=             -0.0132 YYYX=             -0.0006 YYYZ=              0.0000 ZZZX=             -0.0710
 ZZZY=             -0.0000 XXYY=           -212.6329 XXZZ=           -212.6326 YYZZ=            -18.6096
 XXYZ=              0.0000 YYXZ=              0.0833 ZZXY=              0.0006
 N-N= 1.076781450910D+02 E-N=-1.625645628937D+03  KE= 5.901395298661D+02
  Exact polarizability: 123.027  -0.000  39.260   0.000  -0.000  39.260
 Approx polarizability: 156.543  -0.000  48.923   0.002  -0.000  48.922
 No NMR shielding tensors so no spin-rotation constants.
 Leave Link  601 at Sun Oct 13 09:50:16 2024, MaxMem=  2684354560 cpu:               2.8 elap:               0.1
 (Enter /usr/local/g16_AVX//g16/l701.exe)
 ... and contract with generalized density number  0.
 Compute integral second derivatives.
 Leave Link  701 at Sun Oct 13 09:50:16 2024, MaxMem=  2684354560 cpu:               4.4 elap:               0.2
 (Enter /usr/local/g16_AVX//g16/l702.exe)
 L702 exits ... SP integral derivatives will be done elsewhere.
 Leave Link  702 at Sun Oct 13 09:50:16 2024, MaxMem=  2684354560 cpu:               0.4 elap:               0.0
 (Enter /usr/local/g16_AVX//g16/l703.exe)
 Integral derivatives from FoFJK, PRISM(SPDF).
 Compute integral second derivatives, UseDBF=F ICtDFT=           0.
 Calling FoFJK, ICntrl=    100127 FMM=F ISym2X=0 I1Cent= 0 IOpClX= 0 NMat=1 NMatS=1 NMatT=0.
 FoFJK:  IHMeth= 1 ICntrl=  100127 DoSepK=F KAlg= 0 I1Cent=           0 FoldK=F
 IRaf=         0 NMat=       1 IRICut=       1 DoRegI=T DoRafI=F ISym2E= 0 IDoP0=0 IntGTp=1.
 FoFCou: FMM=F IPFlag=           0 FMFlag=      100000 FMFlg1=         800
         NFxFlg=           0 DoJE=F BraDBF=F KetDBF=F FulRan=T
         wScrn=  0.000000 ICntrl=    100127 IOpCl=  0 I1Cent=           0 NGrid=           0
         NMat0=    1 NMatS0=      1 NMatT0=    0 NMatD0=    1 NMtDS0=    0 NMtDT0=    0
 Symmetry not used in FoFCou.
 Leave Link  703 at Sun Oct 13 09:50:20 2024, MaxMem=  2684354560 cpu:              97.3 elap:               3.8
 (Enter /usr/local/g16_AVX//g16/l716.exe)
 Dipole        =-1.16736239D-01 1.01205816D-05-3.36044954D-04
 Polarizability= 1.23027330D+02-1.24644295D-05 3.92603217D+01
                 2.44417035D-04-6.62204220D-06 3.92604592D+01
 Full mass-weighted force constant matrix:
 Low frequencies --- -493.1695  -22.5414  -22.5239   -0.0029   -0.0022    0.0036
 Low frequencies ---  127.9794  147.5181  147.5206
 ******    1 imaginary frequencies (negative Signs) ****** 
 Diagonal vibrational polarizability:
      139.0317699      21.9913529      21.9903887
 Harmonic frequencies (cm**-1), IR intensities (KM/Mole), Raman scattering
 activities (A**4/AMU), depolarization ratios for plane and unpolarized
 incident light, reduced masses (AMU), force constants (mDyne/A),
 and normal coordinates:
                      1                      2                      3
                      A                      A                      A
 Frequencies --   -493.1695               142.4669               142.4708
 Red. masses --     12.2399                 6.1970                 6.1970
 Frc consts  --      1.7540                 0.0741                 0.0741
 IR Inten    --   1165.3371                15.8597                15.8596
  Atom  AN      X      Y      Z        X      Y      Z        X      Y      Z
     1   6     0.90   0.00  -0.00     0.00   0.41   0.15     0.00  -0.15   0.41
     2  17    -0.09  -0.00   0.00    -0.00  -0.12  -0.04    -0.00   0.04  -0.12
     3   1     0.02  -0.00   0.05     0.02   0.41   0.15     0.05  -0.15   0.41
     4   1     0.02  -0.05  -0.03    -0.05   0.42   0.15    -0.01  -0.15   0.42
     5   1     0.02   0.05  -0.03     0.03   0.42   0.15    -0.04  -0.15   0.41
     6   6    -0.30  -0.00   0.00    -0.00   0.24   0.09    -0.00  -0.09   0.24
     7   7    -0.30   0.00  -0.00     0.00  -0.35  -0.13     0.00   0.13  -0.35
                      4                      5                      6
                      A                      A                      A
 Frequencies --    232.4654               346.5037               346.5189
 Red. masses --     18.3013                 5.4414                 5.4417
 Frc consts  --      0.5827                 0.3849                 0.3850
 IR Inten    --     16.5246                 3.9846                 3.9852
  Atom  AN      X      Y      Z        X      Y      Z        X      Y      Z
     1   6    -0.26  -0.00   0.00    -0.00  -0.02  -0.33     0.00  -0.33   0.02
     2  17     0.52   0.00  -0.00     0.00   0.00   0.05    -0.00   0.05  -0.00
     3   1    -0.12  -0.00  -0.00     0.34  -0.02  -0.38    -0.02  -0.38   0.02
     4   1    -0.12   0.00   0.00    -0.19  -0.02  -0.38    -0.28  -0.38   0.03
     5   1    -0.12  -0.00   0.00    -0.15  -0.03  -0.38     0.31  -0.38   0.02
     6   6    -0.55   0.00  -0.00    -0.00   0.03   0.49     0.00   0.49  -0.03
     7   7    -0.57  -0.00  -0.00     0.00  -0.01  -0.19    -0.00  -0.19   0.01
                      7                      8                      9
                      A                      A                      A
 Frequencies --    991.7865               991.8263              1062.9216
 Red. masses --      1.0566                 1.0565                 1.0501
 Frc consts  --      0.6123                 0.6124                 0.6990
 IR Inten    --      0.0490                 0.0490                77.5845
  Atom  AN      X      Y      Z        X      Y      Z        X      Y      Z
     1   6    -0.00   0.00   0.04     0.00   0.04  -0.00    -0.03   0.00   0.00
     2  17     0.00   0.00   0.00    -0.00   0.00  -0.00    -0.02   0.00   0.00
     3   1     0.81  -0.00  -0.02    -0.03  -0.08   0.00     0.57   0.00  -0.04
     4   1    -0.43   0.02  -0.06    -0.68  -0.04   0.03     0.57   0.04   0.02
     5   1    -0.38  -0.03  -0.06     0.72  -0.03  -0.02     0.57  -0.04   0.02
     6   6     0.00  -0.00  -0.05    -0.00  -0.05   0.00    -0.02  -0.00   0.00
     7   7    -0.00   0.00   0.01     0.00   0.01  -0.00    -0.04   0.00  -0.00
                     10                     11                     12
                      A                      A                      A
 Frequencies --   1407.7456              1407.7875              2163.7950
 Red. masses --      1.0982                 1.0982                12.6482
 Frc consts  --      1.2822                 1.2823                34.8908
 IR Inten    --      4.6260                 4.6254                 1.5718
  Atom  AN      X      Y      Z        X      Y      Z        X      Y      Z
     1   6    -0.00  -0.00  -0.09    -0.00  -0.09   0.00     0.01   0.00  -0.00
     2  17     0.00   0.00   0.00    -0.00   0.00  -0.00    -0.00  -0.00   0.00
     3   1     0.11   0.02  -0.09    -0.00   0.80   0.00    -0.07  -0.00   0.01
     4   1    -0.06  -0.38   0.57    -0.09   0.14  -0.40    -0.07  -0.01  -0.01
     5   1    -0.05   0.39   0.59     0.10   0.13   0.37    -0.07   0.01  -0.01
     6   6     0.00  -0.00  -0.00    -0.00  -0.00   0.00     0.76  -0.00   0.00
     7   7    -0.00   0.00   0.00     0.00   0.00  -0.00    -0.64   0.00  -0.00
                     13                     14                     15
                      A                      A                      A
 Frequencies --   3187.5421              3381.6837              3381.7537
 Red. masses --      1.0087                 1.1234                 1.1233
 Frc consts  --      6.0386                 7.5689                 7.5691
 IR Inten    --      1.6419                 2.6193                 2.6143
  Atom  AN      X      Y      Z        X      Y      Z        X      Y      Z
     1   6    -0.01  -0.00   0.00    -0.00  -0.10  -0.00    -0.00   0.00  -0.10
     2  17    -0.00  -0.00  -0.00     0.00   0.00   0.00    -0.00  -0.00   0.00
     3   1     0.04  -0.00   0.58     0.00  -0.01   0.00     0.06  -0.00   0.81
     4   1     0.04  -0.50  -0.29    -0.05   0.60   0.36    -0.03   0.35   0.19
     5   1     0.04   0.50  -0.29     0.05   0.60  -0.35    -0.03  -0.36   0.19
     6   6    -0.00   0.00  -0.00     0.00   0.00   0.00    -0.00  -0.00   0.00
     7   7     0.00  -0.00   0.00    -0.00  -0.00  -0.00     0.00   0.00  -0.00

 -------------------
 - Thermochemistry -
 -------------------
 Temperature   298.150 Kelvin.  Pressure   1.00000 Atm.
 Atom     1 has atomic number  6 and mass  12.00000
 Atom     2 has atomic number 17 and mass  34.96885
 Atom     3 has atomic number  1 and mass   1.00783
 Atom     4 has atomic number  1 and mass   1.00783
 Atom     5 has atomic number  1 and mass   1.00783
 Atom     6 has atomic number  6 and mass  12.00000
 Atom     7 has atomic number  7 and mass  14.00307
 Molecular mass:    75.99540 amu.
 Principal axes and moments of inertia in atomic units:
                           1         2         3
     Eigenvalues --    12.439831438.777081438.77808
           X            1.00000   0.00000   0.00001
           Y           -0.00000   1.00000   0.00204
           Z           -0.00001  -0.00204   1.00000
 This molecule is an asymmetric top.
 Rotational symmetry number  1.
 Rotational temperatures (Kelvin)      6.96263     0.06020     0.06020
 Rotational constants (GHZ):         145.07765     1.25436     1.25436
    1 imaginary frequencies ignored.
 Zero-point vibrational energy     114765.3 (Joules/Mol)
                                   27.42958 (Kcal/Mol)
 Warning -- explicit consideration of   5 degrees of freedom as
           vibrations may cause significant error
 Vibrational temperatures:    204.98   204.98   334.47   498.54   498.56
          (Kelvin)           1426.96  1427.02  1529.31  2025.43  2025.49
                             3113.22  4586.16  4865.49  4865.59
 
 Zero-point correction=                           0.043712 (Hartree/Particle)
 Thermal correction to Energy=                    0.049219
 Thermal correction to Enthalpy=                  0.050163
 Thermal correction to Gibbs Free Energy=         0.015135
 Sum of electronic and zero-point Energies=           -592.950938
 Sum of electronic and thermal Energies=              -592.945431
 Sum of electronic and thermal Enthalpies=            -592.944487
 Sum of electronic and thermal Free Energies=         -592.979515
 
                     E (Thermal)             CV                S
                      KCal/Mol        Cal/Mol-Kelvin    Cal/Mol-Kelvin
 Total                   30.885             16.038             73.724
 Electronic               0.000              0.000              0.000
 Translational            0.889              2.981             38.900
 Rotational               0.889              2.981             24.758
 Vibrational             29.108             10.076             10.066
 Vibration     1          0.616              1.911              2.770
 Vibration     2          0.616              1.911              2.770
 Vibration     3          0.653              1.791              1.860
 Vibration     4          0.724              1.582              1.182
 Vibration     5          0.725              1.582              1.182
                       Q            Log10(Q)             Ln(Q)
 Total Bot       0.109283D-06         -6.961449        -16.029329
 Total V=0       0.139499D+14         13.144571         30.266494
 Vib (Bot)       0.730583D-19        -19.136330        -44.063029
 Vib (Bot)    1  0.142629D+01          0.154208          0.355076
 Vib (Bot)    2  0.142625D+01          0.154195          0.355048
 Vib (Bot)    3  0.846340D+00         -0.072455         -0.166834
 Vib (Bot)    4  0.533664D+00         -0.272732         -0.627989
 Vib (Bot)    5  0.533635D+00         -0.272756         -0.628043
 Vib (V=0)       0.932588D+01          0.969690          2.232793
 Vib (V=0)    1  0.201139D+01          0.303496          0.698826
 Vib (V=0)    2  0.201135D+01          0.303488          0.698807
 Vib (V=0)    3  0.148300D+01          0.171142          0.394068
 Vib (V=0)    4  0.123130D+01          0.090363          0.208069
 Vib (V=0)    5  0.123128D+01          0.090356          0.208052
 Electronic      0.100000D+01          0.000000          0.000000
 Translational   0.260396D+08          7.415635         17.075130
 Rotational      0.574442D+05          4.759246         10.958570
 
                                                      RxCoord=-1.29968 DE=49.57
                                                             IR Spectrum
 
      3      3                                     2                            1            1                                       
      3      1                                     1                            4            0 9                       3    2  1     
      8      8                                     6                            0            6 9                       4    3  4     
      2      8                                     4                            8            3 2                       7    2  2     
 
      X      X                                     X                            X            X X                       X    X  X     
                                                                                X            X                         X    X  X     
                                                                                             X                              X  X     
                                                                                             X                              X  X     
                                                                                             X                                 X     
                                                                                             X                                 X     
                                                                                             X                                 X     
                                                                                             X                                 X     
                                                                                             X                                       
                                                                                             X                                       
                                                                                             X                                       
                                                                                             X                                       
                                                                                             X                                       
                                                                                             X                                       
                                                                                             X                                       
                                                                                             X                                       
                                                                                             X                                       
                                                                                             X                                       
                                                                                             X                                       
                                                                                             X                                       
 
 -------------------------------------------------------------------
 Center     Atomic                   Forces (Hartrees/Bohr)
 Number     Number              X              Y              Z
 -------------------------------------------------------------------
      1        6           0.036386175   -0.000000072   -0.000003166
      2       17          -0.013119459    0.000000111    0.000001302
      3        1          -0.000118156   -0.000002989    0.001258808
      4        1          -0.000113272   -0.001105170   -0.000631841
      5        1          -0.000112508    0.001108299   -0.000626864
      6        6          -0.009912389   -0.000000423    0.000009681
      7        7          -0.013010390    0.000000244   -0.000007920
 -------------------------------------------------------------------
 Cartesian Forces:  Max     0.036386175 RMS     0.009176745
 Z-matrix is all fixed cartesians, so copy forces.
 Force constants in Cartesian coordinates: 
                1             2             3             4             5 
      1 -0.762035D-01
      2  0.176382D-05  0.688915D+00
      3  0.246370D-04  0.000000D+00  0.688880D+00
      4  0.277716D-01  0.000000D+00 -0.307990D-05  0.451284D-01
      5  0.000000D+00 -0.931355D-02  0.000000D+00  0.000000D+00  0.291278D-02
      6 -0.100453D-04  0.000000D+00 -0.931177D-02  0.304165D-05  0.000000D+00
      7 -0.102763D-01  0.568508D-04 -0.243689D-01 -0.150041D-01 -0.130451D-04
      8  0.552260D-04 -0.531261D-01  0.760631D-03  0.377458D-05 -0.645386D-04
      9 -0.237220D-01  0.760542D-03 -0.379117D+00 -0.166304D-02 -0.546703D-05
     10 -0.102629D-01  0.210698D-01  0.122263D-01 -0.150140D-01 -0.475402D-02
     11  0.205084D-01 -0.296958D+00 -0.141519D+00  0.143643D-02  0.173132D-02
     12  0.119034D-01 -0.141514D+00 -0.135262D+00  0.833674D-03  0.104403D-02
     13 -0.102630D-01 -0.211287D-01  0.121293D-01 -0.150146D-01  0.476712D-02
     14 -0.205660D-01 -0.298273D+00  0.140759D+00 -0.143992D-02  0.174056D-02
     15  0.118090D-01  0.140754D+00 -0.133946D+00  0.827014D-03 -0.103830D-02
     16  0.507554D-01  0.000000D+00 -0.108205D-05 -0.195143D-01  0.000000D+00
     17  0.000000D+00 -0.387780D-01  0.000000D+00  0.000000D+00  0.365695D-02
     18 -0.215267D-04  0.000000D+00 -0.387775D-01  0.767200D-05  0.000000D+00
     19  0.284787D-01  0.000000D+00 -0.716176D-05 -0.835295D-02  0.000000D+00
     20  0.000000D+00  0.753451D-02  0.000000D+00  0.000000D+00 -0.663535D-03
     21  0.165552D-04  0.000000D+00  0.753493D-02 -0.528632D-05  0.000000D+00
                6             7             8             9            10 
      6  0.291299D-02
      7  0.549650D-02  0.403300D-01
      8 -0.542068D-05 -0.606875D-04  0.451535D-01
      9  0.233336D-02  0.261186D-01 -0.794767D-03  0.385758D+00
     10 -0.275812D-02  0.142288D-02 -0.299052D-02 -0.915791D-03  0.403291D-01
     11  0.104416D-02 -0.715850D-03  0.445397D-02  0.404600D-02 -0.225810D-01
     12  0.541008D-03  0.304382D-02 -0.231384D-01 -0.668778D-02 -0.131063D-01
     13 -0.273593D-02  0.142281D-02  0.299464D-02 -0.901821D-03  0.142040D-02
     14 -0.103847D-02  0.701614D-03  0.436468D-02 -0.399444D-02 -0.227840D-02
     15  0.531214D-03  0.304717D-02  0.231898D-01 -0.659838D-02 -0.214126D-02
     16  0.306054D-05 -0.152472D-01  0.000000D+00  0.163515D-04 -0.152494D-01
     17  0.000000D+00  0.359460D-04 -0.111246D-02 -0.158538D-04  0.133422D-01
     18  0.365669D-02 -0.154264D-01 -0.157955D-04  0.569594D-02  0.774654D-02
     19  0.148994D-05 -0.264808D-02 -0.247051D-05  0.106771D-02 -0.264615D-02
     20  0.000000D+00 -0.482822D-05  0.330945D-03  0.398545D-05 -0.180808D-02
     21 -0.663492D-03  0.208924D-02  0.399190D-05 -0.138433D-02 -0.105131D-02
               11            12            13            14            15 
     11  0.299908D+00
     12  0.147859D+00  0.130971D+00
     13  0.228831D-02 -0.213058D-02  0.403297D-01
     14 -0.121625D-01  0.135384D-01  0.226437D-01  0.301282D+00
     15 -0.136414D-01  0.993577D-02 -0.130023D-01 -0.147065D+00  0.129596D+00
     16 -0.135186D-04 -0.824652D-05 -0.152493D-01  0.137318D-04 -0.821140D-05
     17  0.398042D-02  0.295573D-02 -0.133781D-01  0.400802D-02 -0.293987D-02
     18  0.295640D-02  0.603755D-03  0.768419D-02 -0.294060D-02  0.576249D-03
     19 -0.922784D-03 -0.535721D-03 -0.264605D-02  0.925289D-03 -0.531405D-03
     20 -0.952285D-03 -0.744742D-03  0.181301D-02 -0.959250D-03  0.740752D-03
     21 -0.745189D-03 -0.101874D-03 -0.104284D-02  0.741193D-03 -0.949375D-04
               16            17            18            19            20 
     16  0.115668D+01
     17 -0.115427D-04  0.443425D-01
     18  0.391898D-03  0.000000D+00  0.443425D-01
     19 -0.114218D+01  0.110658D-04 -0.382319D-03  0.112999D+01
     20  0.114274D-04 -0.160975D-01  0.000000D+00 -0.112230D-04  0.108071D-01
     21 -0.393770D-03  0.000000D+00 -0.160976D-01  0.387406D-03  0.000000D+00
               21 
     21  0.108073D-01
 Leave Link  716 at Sun Oct 13 09:50:20 2024, MaxMem=  2684354560 cpu:               0.6 elap:               0.0
 (Enter /usr/local/g16_AVX//g16/l103.exe)

 GradGradGradGradGradGradGradGradGradGradGradGradGradGradGradGradGradGrad
 Berny optimization.
 Search for a local minimum.
 Step number   1 out of a maximum of    2
 All quantities printed in internal units (Hartrees-Bohrs-Radians)
 Second derivative matrix not updated -- analytic derivatives used.
 ITU=  0
     Eigenvalues ---   -0.11493   0.00572   0.00572   0.02477   0.02477
     Eigenvalues ---    0.04533   0.06130   0.06613   0.06613   0.10822
     Eigenvalues ---    0.10822   0.39067   0.99855   0.99857   2.28491
 Eigenvalue     1 is  -1.15D-01 should be greater than     0.000000 Eigenvector:
                          X1        X6        X7        X2        Z3
   1                    0.88945  -0.29805  -0.29239  -0.17046   0.04175
                          Y5        Y4        Z4        Z5        X3
   1                    0.03624  -0.03614  -0.02099  -0.02083   0.00934
 Quadratic step=3.766D-01 exceeds max=3.000D-01 adjusted using Lamda=-2.678D-02.
 Angle between NR and scaled steps=   3.50 degrees.
 Angle between quadratic step and forces=   8.67 degrees.
 Linear search not attempted -- first point.
 B after Tr=    -0.010873    0.000001   -0.000015
         Rot=    1.000000    0.000000    0.000001    0.000000 Ang=   0.00 deg.
 Variable       Old X    -DE/DX   Delta X   Delta X   Delta X     New X
                                 (Linear)    (Quad)   (Total)
    X1        0.36178   0.03639   0.00000   0.27305   0.26218   0.62396
    Y1        0.00001  -0.00000   0.00000  -0.00000  -0.00000   0.00001
    Z1       -0.00042  -0.00000   0.00000  -0.00002  -0.00003  -0.00045
    X2       -4.21122  -0.01312   0.00000  -0.09756  -0.10843  -4.31965
    Y2       -0.00000   0.00000   0.00000   0.00000   0.00000   0.00000
    Z2        0.00019   0.00000   0.00000  -0.00001  -0.00004   0.00015
    X3        0.20658  -0.00012   0.00000   0.00284  -0.00802   0.19856
    Y3        0.00475  -0.00000   0.00000  -0.00003  -0.00003   0.00472
    Z3       -2.02880   0.00126   0.00000   0.01151   0.01150  -2.01730
    X4        0.20663  -0.00011   0.00000   0.00294  -0.00794   0.19869
    Y4        1.75436  -0.00111   0.00000  -0.01004  -0.01004   1.74433
    Z4        1.01777  -0.00063   0.00000  -0.00572  -0.00574   1.01203
    X5        0.20661  -0.00011   0.00000   0.00295  -0.00793   0.19868
    Y5       -1.75906   0.00111   0.00000   0.01006   0.01006  -1.74900
    Z5        1.00958  -0.00063   0.00000  -0.00568  -0.00569   1.00389
    X6        4.27333  -0.00991   0.00000  -0.05455  -0.06542   4.20791
    Y6        0.00001  -0.00000   0.00000  -0.00000  -0.00000   0.00001
    Z6       -0.00043   0.00001   0.00000   0.00007   0.00007  -0.00036
    X7        6.49968  -0.01301   0.00000  -0.05356  -0.06444   6.43524
    Y7       -0.00001   0.00000   0.00000   0.00000   0.00000  -0.00001
    Z7        0.00035  -0.00001   0.00000  -0.00006  -0.00006   0.00029
         Item               Value     Threshold  Converged?
 Maximum Force            0.036386     0.000450     NO 
 RMS     Force            0.009177     0.000300     NO 
 Maximum Displacement     0.262182     0.001800     NO 
 RMS     Displacement     0.065290     0.001200     NO 
 Predicted change in Energy=-1.732081D-02
 GradGradGradGradGradGradGradGradGradGradGradGradGradGradGradGradGradGrad

 Leave Link  103 at Sun Oct 13 09:50:20 2024, MaxMem=  2684354560 cpu:               0.5 elap:               0.1
 (Enter /usr/local/g16_AVX//g16/l9999.exe)

 ----------------------------------------------------------------------

 Electric dipole moment (input orientation):
 (Debye = 10**-18 statcoulomb cm , SI units = C m)
                  (au)            (Debye)         (10**-30 SI)
   Tot        0.116737D+00      0.296715D+00      0.989735D+00
   x         -0.116736D+00     -0.296714D+00     -0.989731D+00
   y          0.101206D-04      0.257240D-04      0.858059D-04
   z         -0.336045D-03     -0.854141D-03     -0.284911D-02

 Dipole polarizability, Alpha (input orientation).
 (esu units = cm**3 , SI units = C**2 m**2 J**-1)
 Alpha(0;0):
               (au)            (10**-24 esu)      (10**-40 SI)
   iso        0.671827D+02      0.995545D+01      0.110769D+02
   aniso      0.837669D+02      0.124130D+02      0.138113D+02
   xx         0.123027D+03      0.182308D+02      0.202845D+02
   yx        -0.124644D-04     -0.184704D-05     -0.205511D-05
   yy         0.392603D+02      0.581778D+01      0.647315D+01
   zx         0.244417D-03      0.362189D-04      0.402989D-04
   zy         0.000000D+00      0.000000D+00      0.000000D+00
   zz         0.392605D+02      0.581780D+01      0.647318D+01

 ----------------------------------------------------------------------

 Dipole orientation:
     6         -0.00145907          0.00004472         -0.36177969
    17          0.01231348         -0.00036994          4.21120075
     1         -2.02938260          0.00493895         -0.20074338
     1          1.01732219          1.75429287         -0.20940707
     1          1.00882484         -1.75913434         -0.20967108
     6         -0.01273037          0.00038103         -4.27330755
     7         -0.01835692          0.00055186         -6.49965494

 Electric dipole moment (dipole orientation):
 (Debye = 10**-18 statcoulomb cm , SI units = C m)
                  (au)            (Debye)         (10**-30 SI)
   Tot        0.116737D+00      0.296715D+00      0.989735D+00
   x          0.000000D+00      0.000000D+00      0.000000D+00
   y          0.000000D+00      0.000000D+00      0.000000D+00
   z          0.116737D+00      0.296715D+00      0.989735D+00

 Dipole polarizability, Alpha (dipole orientation).
 (esu units = cm**3 , SI units = C**2 m**2 J**-1)
 Alpha(0;0):
               (au)            (10**-24 esu)      (10**-40 SI)
   iso        0.671827D+02      0.995545D+01      0.110769D+02
   aniso      0.837669D+02      0.124130D+02      0.138113D+02
   xx         0.392612D+02      0.581790D+01      0.647329D+01
   yx        -0.275425D-04     -0.408137D-05     -0.454114D-05
   yy         0.392603D+02      0.581778D+01      0.647315D+01
   zx         0.240890D+00      0.356962D-01      0.397174D-01
   zy        -0.727065D-02     -0.107740D-02     -0.119877D-02
   zz         0.123027D+03      0.182307D+02      0.202844D+02

 ----------------------------------------------------------------------
 1\1\GINC-NODO11\Freq\RB3LYP\6-31++G(d,p)\C2H3Cl1N1(1-)\ALANQF\13-Oct-2
 024\0\\#p b3lyp 6-31++g(d,p) scf=verytight NoSymm freq=noraman int=ult
 rafine\\RxCoord=-1.29968 DE=49.57\\-1,1\C,0.191447,0.000007,-0.000221\
 Cl,-2.228481,-0.000002,0.000101\H,0.10932,0.002511,-1.073593\H,0.10934
 4,0.928369,0.53858\H,0.109335,-0.930857,0.534245\C,2.261347,0.000005,-
 0.000227\N,3.439483,-0.000007,0.000187\\Version=ES64L-G16RevB.01\HF=-5
 92.9946501\RMSD=5.451e-09\RMSF=9.177e-03\ZeroPoint=0.0437118\Thermal=0
 .0492189\Dipole=-0.0567996,0.0000107,-0.0003569\DipoleDeriv=3.3972562,
 0.0000038,-0.0001919,0.0000003,0.0935271,0.0000006,-0.0001858,0.000000
 4,0.0935739,-1.7887702,-0.0000005,0.0000558,-0.0000041,-0.722099,0.,0.
 0001282,0.,-0.7221001,-0.1628483,-0.0000213,0.0089151,-0.0000102,0.071
 8824,0.0000418,0.0047855,0.0000418,0.0539414,-0.1628616,-0.0076995,-0.
 0044542,-0.0041863,0.0584978,-0.0077718,-0.0024191,-0.0077645,0.067369
 7,-0.16286,0.0077192,-0.0044178,0.0042023,0.0584263,0.0077293,-0.00240
 13,0.0077223,0.0674423,-1.122723,-0.0000003,0.0000303,-0.0000131,-0.17
 23629,0.,0.0004837,0.,-0.172357,-0.997193,-0.0000014,0.0000626,0.00001
 11,-0.3878718,0.,-0.0003912,0.,-0.3878701\Polar=123.0273303,-0.0000125
 ,39.2603217,0.0002444,-0.0000066,39.2604592\Quadrupole=-25.5520418,12.
 7762265,12.7758153,0.0000347,-0.0003177,-0.0000014\PG=C01 [X(C2H3Cl1N1
 )]\NImag=1\\-0.07620351,0.00000176,0.68891494,0.00002464,-0.00000069,0
 .68887988,0.02777161,0.00000011,-0.00000308,0.04512835,0.00000042,-0.0
 0931355,0.00000002,-0.00000032,0.00291278,-0.00001005,0.00000001,-0.00
 931177,0.00000304,-0.00000028,0.00291299,-0.01027632,0.00005685,-0.024
 36892,-0.01500408,-0.00001305,0.00549650,0.04032995,0.00005523,-0.0531
 2607,0.00076063,0.00000377,-0.00006454,-0.00000542,-0.00006069,0.04515
 348,-0.02372204,0.00076054,-0.37911724,-0.00166304,-0.00000547,0.00233
 336,0.02611863,-0.00079477,0.38575842,-0.01026286,0.02106980,0.0122262
 9,-0.01501398,-0.00475402,-0.00275812,0.00142288,-0.00299052,-0.000915
 79,0.04032907,0.02050841,-0.29695850,-0.14151868,0.00143643,0.00173132
 ,0.00104416,-0.00071585,0.00445397,0.00404600,-0.02258101,0.29990754,0
 .01190341,-0.14151372,-0.13526193,0.00083367,0.00104403,0.00054101,0.0
 0304382,-0.02313844,-0.00668778,-0.01310635,0.14785873,0.13097106,-0.0
 1026303,-0.02112866,0.01212931,-0.01501460,0.00476712,-0.00273593,0.00
 142281,0.00299464,-0.00090182,0.00142040,0.00228831,-0.00213058,0.0403
 2972,-0.02056600,-0.29827334,0.14075872,-0.00143992,0.00174056,-0.0010
 3847,0.00070161,0.00436468,-0.00399444,-0.00227840,-0.01216246,0.01353
 842,0.02264368,0.30128179,0.01180901,0.14075385,-0.13394636,0.00082701
 ,-0.00103830,0.00053121,0.00304717,0.02318980,-0.00659838,-0.00214126,
 -0.01364142,0.00993577,-0.01300232,-0.14706482,0.12959645,0.05075540,-
 0.00000003,-0.00000108,-0.01951435,-0.00000010,0.00000306,-0.01524715,
 0.00000004,0.00001635,-0.01524936,-0.00001352,-0.00000825,-0.01524925,
 0.00001373,-0.00000821,1.15668089,0.00000064,-0.03877801,0.,-0.0000002
 3,0.00365695,0.,0.00003595,-0.00111246,-0.00001585,0.01334222,0.003980
 42,0.00295573,-0.01337810,0.00400802,-0.00293987,-0.00001154,0.0443425
 3,-0.00002153,0.,-0.03877750,0.00000767,0.,0.00365669,-0.01542645,-0.0
 0001580,0.00569594,0.00774654,0.00295640,0.00060376,0.00768419,-0.0029
 4060,0.00057625,0.00039190,0.,0.04434246,0.02847871,0.00000017,-0.0000
 0716,-0.00835295,-0.00000005,0.00000149,-0.00264808,-0.00000247,0.0010
 6771,-0.00264615,-0.00092278,-0.00053572,-0.00264605,0.00092529,-0.000
 53140,-1.14217617,0.00001107,-0.00038232,1.12999070,-0.00000046,0.0075
 3451,0.,0.00000015,-0.00066353,0.,-0.00000483,0.00033095,0.00000399,-0
 .00180808,-0.00095228,-0.00074474,0.00181301,-0.00095925,0.00074075,0.
 00001143,-0.01609746,0.,-0.00001122,0.01080707,0.00001656,0.,0.0075349
 3,-0.00000529,0.,-0.00066349,0.00208924,0.00000399,-0.00138433,-0.0010
 5131,-0.00074519,-0.00010187,-0.00104284,0.00074119,-0.00009494,-0.000
 39377,0.,-0.01609760,0.00038741,0.,0.01080730\\-0.03638617,0.00000007,
 0.00000317,0.01311946,-0.00000011,-0.00000130,0.00011816,0.00000299,-0
 .00125881,0.00011327,0.00110517,0.00063184,0.00011251,-0.00110830,0.00
 062686,0.00991239,0.00000042,-0.00000968,0.01301039,-0.00000024,0.0000
 0792\\\@


 KNOWLEDGE IS CHIMERA - FOR BEYOND IT LIES OTHER KNOWLEDGE,
 AND THE INCOMPLETENESS OF WHAT IS KNOWN RENDERS THE KNOWING FALSE.
     -- THE THOMAS COVENANT CHRONICLES
 Job cpu time:       0 days  0 hours  5 minutes 11.0 seconds.
 Elapsed time:       0 days  0 hours  0 minutes 13.0 seconds.
 File lengths (MBytes):  RWF=     88 Int=      0 D2E=      0 Chk=      2 Scr=      2
 Normal termination of Gaussian 16 at Sun Oct 13 09:50:21 2024.
