RxCoord=-1.09972 DE=51.24                                               
Freq      RB3LYP                                                      6-31++G(d,p)        
Number of atoms                            I                7
Info1-9                                    I   N=           9
          16          16           0           0           0         100
           6          18        -502
Full Title                                 C   N=           3
RxCoord=-1.09972 DE=51.24           
Route                                      C   N=           6
#p b3lyp 6-31++g(d,p) scf=verytight NoSymm freq=noraman int=
ultrafine   
Charge                                     I               -1
Multiplicity                               I                1
Number of electrons                        I               40
Number of alpha electrons                  I               20
Number of beta electrons                   I               20
Number of basis functions                  I               98
Number of independent functions            I               98
Number of point charges in /Mol/           I                0
Number of translation vectors              I                0
Atomic numbers                             I   N=           7
           6          17           1           1           1           6
           7
Nuclear charges                            R   N=           7
  6.00000000E+00  1.70000000E+01  1.00000000E+00  1.00000000E+00  1.00000000E+00
  6.00000000E+00  7.00000000E+00
Current cartesian coordinates              R   N=          21
  3.09801701E-01  1.32280829E-05 -3.91173308E-04 -4.20436473E+00 -3.77945225E-06
  1.79523982E-04  2.04283174E-01  4.75266120E-03 -2.03115134E+00  2.04347424E-01
  1.75642106E+00  1.01899702E+00  2.04332306E-01 -1.76113026E+00  1.01078994E+00
  4.28866541E+00  9.44863062E-06 -4.40306187E-04  6.51445854E+00 -1.32280829E-05
  3.62827416E-04
Number of symbols in /Mol/                 I                0
Force Field                                I                0
Atom Types                                 C   N=           7
                                                            
                        
Int Atom Types                             I   N=           7
           0           0           0           0           0           0
           0
MM charges                                 R   N=           7
  0.00000000E+00  0.00000000E+00  0.00000000E+00  0.00000000E+00  0.00000000E+00
  0.00000000E+00  0.00000000E+00
Integer atomic weights                     I   N=           7
          12          35           1           1           1          12
          14
Real atomic weights                        R   N=           7
  1.20000000E+01  3.49688527E+01  1.00782504E+00  1.00782504E+00  1.00782504E+00
  1.20000000E+01  1.40030740E+01
Atom fragment info                         I   N=           7
           0           0           0           0           0           0
           0
Atom residue num                           I   N=           7
           0           0           0           0           0           0
           0
Nuclear spins                              I   N=           7
           0           3           1           1           1           0
           2
Nuclear ZEff                               R   N=           7
 -3.60000000E+00 -1.42400000E+01 -1.00000000E+00 -1.00000000E+00 -1.00000000E+00
 -3.60000000E+00 -4.55000000E+00
Nuclear ZNuc                               R   N=           7
  6.00000000E+00  1.70000000E+01  1.00000000E+00  1.00000000E+00  1.00000000E+00
  6.00000000E+00  7.00000000E+00
Nuclear QMom                               R   N=           7
  0.00000000E+00 -8.16500000E+00  0.00000000E+00  0.00000000E+00  0.00000000E+00
  0.00000000E+00  2.04400000E+00
Nuclear GFac                               R   N=           7
  0.00000000E+00  8.21874000E-01  2.79284600E+00  2.79284600E+00  2.79284600E+00
  0.00000000E+00  4.03761000E-01
MicOpt                                     I   N=           7
          -1          -1          -1          -1          -1          -1
          -1
Number of residues                         I                0
Number of secondary structures             I                0
Number of contracted shells                I               33
Number of primitive shells                 I               72
Pure/Cartesian d shells                    I                1
Pure/Cartesian f shells                    I                0
Highest angular momentum                   I                2
Largest degree of contraction              I                6
Shell types                                I   N=          33
           0          -1          -1          -1           2           0
          -1          -1          -1          -1           2           0
           0           0           1           0           0           0
           1           0           0           0           1           0
          -1          -1          -1           2           0          -1
          -1          -1           2
Number of primitives per shell             I   N=          33
           6           3           1           1           1           6
           6           3           1           1           1           3
           1           1           1           3           1           1
           1           3           1           1           1           6
           3           1           1           1           6           3
           1           1           1
Shell to atom map                          I   N=          33
           1           1           1           1           1           2
           2           2           2           2           2           3
           3           3           3           4           4           4
           4           5           5           5           5           6
           6           6           6           6           7           7
           7           7           7
Primitive exponents                        R   N=          72
  3.04752488E+03  4.57369518E+02  1.03948685E+02  2.92101553E+01  9.28666296E+00
  3.16392696E+00  7.86827235E+00  1.88128854E+00  5.44249258E-01  1.68714478E-01
  4.38000000E-02  8.00000000E-01  2.51801000E+04  3.78035000E+03  8.60474000E+02
  2.42145000E+02  7.73349000E+01  2.62470000E+01  4.91765000E+02  1.16984000E+02
  3.74153000E+01  1.37834000E+01  5.45215000E+00  2.22588000E+00  3.18649000E+00
  1.14427000E+00  4.20377000E-01  1.42657000E-01  4.83000000E-02  7.50000000E-01
  1.87311370E+01  2.82539436E+00  6.40121692E-01  1.61277759E-01  3.60000000E-02
  1.10000000E+00  1.87311370E+01  2.82539436E+00  6.40121692E-01  1.61277759E-01
  3.60000000E-02  1.10000000E+00  1.87311370E+01  2.82539436E+00  6.40121692E-01
  1.61277759E-01  3.60000000E-02  1.10000000E+00  3.04752488E+03  4.57369518E+02
  1.03948685E+02  2.92101553E+01  9.28666296E+00  3.16392696E+00  7.86827235E+00
  1.88128854E+00  5.44249258E-01  1.68714478E-01  4.38000000E-02  8.00000000E-01
  4.17351146E+03  6.27457911E+02  1.42902093E+02  4.02343293E+01  1.28202129E+01
  4.39043701E+00  1.16263619E+01  2.71627981E+00  7.72218397E-01  2.12031498E-01
  6.39000000E-02  8.00000000E-01
Contraction coefficients                   R   N=          72
  1.83473713E-03  1.40373228E-02  6.88426223E-02  2.32184443E-01  4.67941348E-01
  3.62311985E-01 -1.19332420E-01 -1.60854152E-01  1.14345644E+00  1.00000000E+00
  1.00000000E+00  1.00000000E+00  1.83295985E-03  1.40341988E-02  6.90973943E-02
  2.37451980E-01  4.83033960E-01  3.39855972E-01 -2.29739142E-03 -3.07137189E-02
 -1.12528069E-01  4.50163278E-02  5.89353363E-01  4.65206287E-01 -2.51828028E-01
  6.15892514E-02  1.06018433E+00  1.00000000E+00  1.00000000E+00  1.00000000E+00
  3.34946043E-02  2.34726953E-01  8.13757326E-01  1.00000000E+00  1.00000000E+00
  1.00000000E+00  3.34946043E-02  2.34726953E-01  8.13757326E-01  1.00000000E+00
  1.00000000E+00  1.00000000E+00  3.34946043E-02  2.34726953E-01  8.13757326E-01
  1.00000000E+00  1.00000000E+00  1.00000000E+00  1.83473713E-03  1.40373228E-02
  6.88426223E-02  2.32184443E-01  4.67941348E-01  3.62311985E-01 -1.19332420E-01
 -1.60854152E-01  1.14345644E+00  1.00000000E+00  1.00000000E+00  1.00000000E+00
  1.83477216E-03  1.39946270E-02  6.85865518E-02  2.32240873E-01  4.69069948E-01
  3.60455199E-01 -1.14961182E-01 -1.69117479E-01  1.14585195E+00  1.00000000E+00
  1.00000000E+00  1.00000000E+00
P(S=P) Contraction coefficients            R   N=          72
  0.00000000E+00  0.00000000E+00  0.00000000E+00  0.00000000E+00  0.00000000E+00
  0.00000000E+00  6.89990666E-02  3.16423961E-01  7.44308291E-01  1.00000000E+00
  1.00000000E+00  0.00000000E+00  0.00000000E+00  0.00000000E+00  0.00000000E+00
  0.00000000E+00  0.00000000E+00  0.00000000E+00  3.98940088E-03  3.03177067E-02
  1.29880029E-01  3.27951072E-01  4.53527100E-01  2.52154056E-01 -1.42993147E-02
  3.23572333E-01  7.43507765E-01  1.00000000E+00  1.00000000E+00  0.00000000E+00
  0.00000000E+00  0.00000000E+00  0.00000000E+00  0.00000000E+00  0.00000000E+00
  0.00000000E+00  0.00000000E+00  0.00000000E+00  0.00000000E+00  0.00000000E+00
  0.00000000E+00  0.00000000E+00  0.00000000E+00  0.00000000E+00  0.00000000E+00
  0.00000000E+00  0.00000000E+00  0.00000000E+00  0.00000000E+00  0.00000000E+00
  0.00000000E+00  0.00000000E+00  0.00000000E+00  0.00000000E+00  6.89990666E-02
  3.16423961E-01  7.44308291E-01  1.00000000E+00  1.00000000E+00  0.00000000E+00
  0.00000000E+00  0.00000000E+00  0.00000000E+00  0.00000000E+00  0.00000000E+00
  0.00000000E+00  6.75797439E-02  3.23907296E-01  7.40895140E-01  1.00000000E+00
  1.00000000E+00  0.00000000E+00
Coordinates of each shell                  R   N=          99
  3.09801701E-01  1.32280829E-05 -3.91173308E-04  3.09801701E-01  1.32280829E-05
 -3.91173308E-04  3.09801701E-01  1.32280829E-05 -3.91173308E-04  3.09801701E-01
  1.32280829E-05 -3.91173308E-04  3.09801701E-01  1.32280829E-05 -3.91173308E-04
 -4.20436473E+00 -3.77945225E-06  1.79523982E-04 -4.20436473E+00 -3.77945225E-06
  1.79523982E-04 -4.20436473E+00 -3.77945225E-06  1.79523982E-04 -4.20436473E+00
 -3.77945225E-06  1.79523982E-04 -4.20436473E+00 -3.77945225E-06  1.79523982E-04
 -4.20436473E+00 -3.77945225E-06  1.79523982E-04  2.04283174E-01  4.75266120E-03
 -2.03115134E+00  2.04283174E-01  4.75266120E-03 -2.03115134E+00  2.04283174E-01
  4.75266120E-03 -2.03115134E+00  2.04283174E-01  4.75266120E-03 -2.03115134E+00
  2.04347424E-01  1.75642106E+00  1.01899702E+00  2.04347424E-01  1.75642106E+00
  1.01899702E+00  2.04347424E-01  1.75642106E+00  1.01899702E+00  2.04347424E-01
  1.75642106E+00  1.01899702E+00  2.04332306E-01 -1.76113026E+00  1.01078994E+00
  2.04332306E-01 -1.76113026E+00  1.01078994E+00  2.04332306E-01 -1.76113026E+00
  1.01078994E+00  2.04332306E-01 -1.76113026E+00  1.01078994E+00  4.28866541E+00
  9.44863062E-06 -4.40306187E-04  4.28866541E+00  9.44863062E-06 -4.40306187E-04
  4.28866541E+00  9.44863062E-06 -4.40306187E-04  4.28866541E+00  9.44863062E-06
 -4.40306187E-04  4.28866541E+00  9.44863062E-06 -4.40306187E-04  6.51445854E+00
 -1.32280829E-05  3.62827416E-04  6.51445854E+00 -1.32280829E-05  3.62827416E-04
  6.51445854E+00 -1.32280829E-05  3.62827416E-04  6.51445854E+00 -1.32280829E-05
  3.62827416E-04  6.51445854E+00 -1.32280829E-05  3.62827416E-04
Num ILSW                                   I              100
ILSW                                       I   N=         100
           0           1           0           0           2           0
           0           0           0           0         402          -1
           5           0           0           0           2           0
           0           0           0           0           1           0
           1           1           0           0           0           0
           0           0      100000           0          -1           0
           0           0           0           0           0           0
           0           0           0           1           0           0
           0 -2000000000           1           0           0           0
           0           0           4          52           0           0
           0           0           5           0           0           0
           0           0           0           7           0           1
           0           0           0           0           0           0
           0           0           0           0           0           0
           0           0           0           0           0           0
           0           0           0           0           0           0
           0           0           0           0
Num RLSW                                   I               52
RLSW                                       R   N=          52
  8.00000000E-01  7.20000000E-01  1.00000000E+00  8.10000000E-01  2.00000000E-01
  0.00000000E+00  0.00000000E+00  1.00000000E+00  0.00000000E+00  0.00000000E+00
  0.00000000E+00  0.00000000E+00  1.00000000E+00  0.00000000E+00  0.00000000E+00
  0.00000000E+00  0.00000000E+00  1.00000000E+00  0.00000000E+00  0.00000000E+00
  0.00000000E+00  0.00000000E+00  1.00000000E+00  0.00000000E+00  0.00000000E+00
  0.00000000E+00  0.00000000E+00  1.00000000E+00  0.00000000E+00  0.00000000E+00
  0.00000000E+00  0.00000000E+00  1.00000000E+00  0.00000000E+00  0.00000000E+00
  0.00000000E+00  0.00000000E+00  0.00000000E+00  1.00000000E+00  1.00000000E+00
  0.00000000E+00  1.00000000E+00  0.00000000E+00  0.00000000E+00  0.00000000E+00
  0.00000000E+00  0.00000000E+00  0.00000000E+00  0.00000000E+00  0.00000000E+00
  0.00000000E+00  0.00000000E+00
MxBond                                     I                3
NBond                                      I   N=           7
           3           0           1           1           1           1
           1
IBond                                      I   N=          21
           3           4           5           0           0           0
           1           0           0           1           0           0
           1           0           0           7           0           0
           6           0           0
RBond                                      R   N=          21
  1.00000000E+00  1.00000000E+00  1.00000000E+00  0.00000000E+00  0.00000000E+00
  0.00000000E+00  1.00000000E+00  0.00000000E+00  0.00000000E+00  1.00000000E+00
  0.00000000E+00  0.00000000E+00  1.00000000E+00  0.00000000E+00  0.00000000E+00
  3.00000000E+00  0.00000000E+00  0.00000000E+00  3.00000000E+00  0.00000000E+00
  0.00000000E+00
Virial Ratio                               R      2.004814818732551E+00
SCF Energy                                 R     -5.929924988979479E+02
Total Energy                               R     -5.929924988979479E+02
RMS Force                                  R      7.760452479865968E-03
RMS Density                                R      3.079578735682411E-09
NImag                                      I                1
Job Status                                 I                1
Nuclear derivative order                   I                2
External E-field                           R   N=          35
  0.00000000E+00  0.00000000E+00  0.00000000E+00  0.00000000E+00  0.00000000E+00
  0.00000000E+00  0.00000000E+00  0.00000000E+00  0.00000000E+00  0.00000000E+00
  0.00000000E+00  0.00000000E+00  0.00000000E+00  0.00000000E+00  0.00000000E+00
  0.00000000E+00  0.00000000E+00  0.00000000E+00  0.00000000E+00  0.00000000E+00
  0.00000000E+00  0.00000000E+00  0.00000000E+00  0.00000000E+00  0.00000000E+00
  0.00000000E+00  0.00000000E+00  0.00000000E+00  0.00000000E+00  0.00000000E+00
  0.00000000E+00  0.00000000E+00  0.00000000E+00  0.00000000E+00  0.00000000E+00
IOpCl                                      I                0
IROHF                                      I                0
Alpha Orbital Energies                     R   N=          98
 -1.01306551E+02 -1.41669108E+01 -1.01155073E+01 -1.00468545E+01 -9.22117852E+00
 -6.98070933E+00 -6.97787229E+00 -6.97787225E+00 -7.20588163E-01 -5.94364430E-01
 -5.39795158E-01 -3.09894433E-01 -3.09876921E-01 -2.65917940E-01 -1.85782261E-01
 -1.65255146E-01 -1.65254897E-01 -9.97237224E-02 -9.97235606E-02 -9.65457363E-02
  1.09798795E-01  1.34796412E-01  1.48101630E-01  1.48103556E-01  1.55485726E-01
  1.87767656E-01  1.87773929E-01  1.96882135E-01  2.23437563E-01  2.23438517E-01
  2.36981283E-01  2.36993319E-01  2.44312258E-01  2.55490301E-01  2.55491063E-01
  2.56067929E-01  3.08301874E-01  3.41252249E-01  3.41257415E-01  3.58117743E-01
  3.58118529E-01  3.62018431E-01  3.88692025E-01  4.44231182E-01  4.64413023E-01
  7.50945653E-01  7.97726050E-01  7.97750218E-01  8.01404481E-01  8.01867045E-01
  8.01870383E-01  8.57348811E-01  8.57352122E-01  9.03177912E-01  9.43216757E-01
  9.87587043E-01  1.05688076E+00  1.05688791E+00  1.10830940E+00  1.10831024E+00
  1.11867224E+00  1.11867748E+00  1.13759827E+00  1.15308015E+00  1.15309782E+00
  1.24123242E+00  1.28099302E+00  1.41715028E+00  1.51293652E+00  1.60306684E+00
  1.60308270E+00  1.70904959E+00  1.70905047E+00  1.73708433E+00  1.73708827E+00
  1.81854144E+00  2.12081139E+00  2.12580786E+00  2.12591389E+00  2.13278098E+00
  2.13281240E+00  2.15664305E+00  2.55249698E+00  2.65725873E+00  2.65729900E+00
  2.78577497E+00  2.78579461E+00  2.84932706E+00  2.87091339E+00  2.87102113E+00
  3.22529182E+00  3.46259507E+00  3.58985095E+00  3.58994813E+00  4.17894073E+00
  4.42894773E+00  4.53179954E+00  4.61350929E+00
Alpha MO coefficients                      R   N=        9604
 -3.72729495E-06 -5.56945626E-05  2.27396319E-05  9.06532450E-11 -3.18017050E-09
  6.31708881E-05 -1.58926873E-04 -1.05927736E-09  2.20685820E-08  5.49955612E-05
  3.16492823E-04  9.97952351E-10 -2.38422229E-08  3.30161330E-05 -3.92099343E-06
 -3.92750244E-06  3.76747146E-10 -6.43887998E-09 -1.59282559E-10  9.95997686E-01
  1.51485560E-02  1.01034973E-05  5.91710490E-11 -1.82412540E-09 -2.10571626E-02
 -5.02065984E-06  4.87054734E-11  2.43775356E-10  1.87936407E-03 -4.51982032E-05
 -3.66984747E-10  7.78114819E-09 -1.31743900E-04  5.77360445E-05  6.22002850E-10
 -1.64087578E-08  7.50292441E-03  7.52350664E-03  7.52350658E-03 -8.56350134E-11
  2.76743128E-09 -3.78155635E-12 -8.47247455E-06 -4.35178701E-05  7.34029169E-05
  2.79930204E-05  8.64832108E-09 -3.64121322E-06 -8.48893152E-06 -4.35126423E-05
  7.34341830E-05  2.79943950E-05  3.14894323E-06  1.82347706E-06 -8.49028186E-06
 -4.35125939E-05  7.34364692E-05  2.79945307E-05 -3.15737865E-06  1.80891611E-06
 -1.87971263E-06 -4.98021973E-06  3.49837181E-06  3.72488473E-11 -2.26495637E-09
 -1.55456681E-04 -2.18193755E-04  1.49467570E-09 -4.45451198E-08 -5.26873714E-04
  8.30920957E-05 -6.58325323E-12 -1.15917280E-08 -1.09689472E-05 -1.77090759E-06
 -1.77085378E-06  1.74758789E-10 -7.44463630E-09  5.40228402E-12 -3.09987067E-06
 -1.38752410E-05 -1.56845345E-06 -3.15713178E-11  2.01726611E-09  2.17724786E-04
 -1.02762470E-04  1.34748648E-09 -5.21508046E-08  1.99800076E-04 -4.06461240E-05
  5.80689074E-10 -1.86064844E-08  3.67992378E-06 -7.72102811E-06 -7.72097768E-06
 -1.95687463E-10  7.48408954E-09  4.05563022E-13 -1.34513033E-05 -4.68646129E-05
 -3.65015079E-05  4.15580048E-11  4.69199352E-09  2.66952978E-04  1.47614121E-04
  9.54435071E-10 -5.34851908E-08  2.51924735E-03  1.23236355E-03  3.65656320E-09
 -2.01764018E-07 -1.15888485E-05 -3.12276105E-05 -3.12182121E-05  6.66972847E-12
  3.79365919E-10  2.14465955E-10  7.39136726E-08  6.88413228E-07  1.28084847E-06
  2.60332336E-12 -2.83153660E-10  2.21172891E-06 -7.81354361E-06 -8.92141155E-12
  1.53691334E-09 -4.28236020E-05  3.35581032E-05  3.86348629E-11 -5.69536882E-09
  4.98229257E-04  1.18841116E-04 -2.67753434E-10  2.32431537E-08  6.97387211E-06
 -1.10959156E-06 -1.10991743E-06 -4.01157267E-11  7.42815157E-10 -1.61319963E-11
  1.55764015E-06 -1.30016286E-04 -1.24021861E-04 -1.36325548E-05  1.39469909E-09
 -6.28727749E-07  1.56460580E-06 -1.29933375E-04 -1.24121692E-04 -1.36265182E-05
  5.36234674E-07  3.15817298E-07  1.56520183E-06 -1.29931747E-04 -1.24124626E-04
 -1.36263285E-05 -5.37395609E-07  3.13051959E-07  8.24237171E-05  2.20007881E-04
 -3.82572687E-04  3.51145276E-09 -1.23937212E-07 -9.53403369E-06 -8.58936636E-05
  3.36724644E-09 -1.24206058E-07 -6.91073197E-04  2.08582610E-03 -1.22944429E-08
  3.86729374E-07 -8.62882744E-04 -4.01248953E-06 -4.01231786E-06  9.88031892E-09
 -3.49474436E-07  1.81092019E-11  9.92722568E-01  3.44612172E-02 -1.63314394E-03
  1.72089037E-08 -6.06085596E-07  4.79920753E-03  3.52760885E-04 -4.42008166E-09
  1.53582715E-07 -3.08677535E-03 -1.96190168E-04 -6.81376363E-10  4.14074045E-08
 -7.60822307E-03 -8.38969130E-03 -8.38969145E-03 -9.02937881E-09  3.19630747E-07
 -3.83849989E-12  9.93148763E-01  4.93431981E-02  2.86861841E-04  2.30280850E-09
 -1.32305407E-07 -1.74981713E-02 -2.03118197E-03 -6.86489793E-09  7.27237802E-07
  4.55378060E-03  3.52702765E-03  3.03730387E-09  1.85888761E-07 -9.33829977E-03
 -8.35335389E-03 -8.35349558E-03  1.83002271E-09  6.69583689E-08 -4.78940544E-10
 -4.02950846E-06 -2.21653139E-05 -2.12126842E-05  2.37243344E-10 -1.64384520E-09
 -1.95497283E-04  6.39224694E-05 -1.76383796E-09  1.98594736E-08  5.39554616E-04
  5.53293410E-04  8.92168623E-09 -1.73817706E-07  1.66214819E-03  2.15284971E-04
  2.54786124E-09 -1.40234452E-07  1.93110411E-04 -5.07068360E-05 -5.06968491E-05
  2.53833347E-09 -6.18325381E-08  4.05697345E-10 -1.82543242E-04  3.07267108E-03
 -4.39831106E-04  4.78734823E-05  5.67631695E-07 -2.43100440E-04 -1.82660146E-04
  3.07206429E-03 -4.40175309E-04  4.79050518E-05  2.10298567E-04  1.22035464E-04
 -1.82664028E-04  3.07206397E-03 -4.40177628E-04  4.79063975E-05 -2.10864919E-04
  1.21052794E-04  7.46581696E-05 -2.52548527E-04  2.61037695E-05  1.58068311E-09
 -2.42970690E-08 -2.73209848E-03 -5.89234366E-03  2.73795423E-08 -1.01264064E-06
 -6.25445679E-03  2.03616479E-03 -5.15167770E-09 -3.17427742E-07 -2.63960810E-06
 -4.68544818E-05 -4.68538301E-05  3.52094263E-09 -1.30460777E-07 -1.94867172E-10
 -9.00949226E-05 -4.05465203E-04  7.12950117E-07 -2.55522326E-09  9.41291042E-08
  5.72553218E-03 -2.23286768E-03  3.80118620E-08 -1.36583063E-06  2.10509762E-03
 -8.64822532E-04  7.30308303E-09  3.43668350E-09 -4.93143830E-05 -1.84941038E-04
 -1.84940580E-04 -3.69856131E-09  1.26313531E-07  1.82004580E-11 -1.68660492E-04
 -2.24450212E-04  1.88437872E-05 -3.43550743E-10  1.42323930E-09  1.25623607E-03
  1.07170149E-03 -2.50309087E-09 -3.43032002E-08  1.48258500E-02  1.83516964E-02
  2.31662463E-08 -1.23235502E-06  9.05966643E-05 -4.36446449E-05 -4.36600950E-05
 -6.08616008E-10  4.97157175E-09 -5.34007374E-10  1.85202154E-07  3.27597174E-06
  1.73282195E-05  1.24244018E-10 -4.33133362E-09  9.51571859E-06 -1.18059653E-04
 -7.66456896E-10  2.70447892E-08 -3.78525672E-04  6.43805304E-04  2.90775593E-09
 -1.07363901E-07  1.06352522E-02  3.16327933E-03  2.37918163E-08 -6.83928793E-07
  6.58849740E-05 -1.82200087E-05 -1.82199421E-05  7.07531966E-10 -2.21813810E-08
 -4.59787164E-11 -3.99866508E-05 -4.82576932E-04  4.46431646E-04 -1.09655205E-05
 -3.40428626E-08  1.45495170E-05 -3.99843842E-05 -4.82546875E-04  4.47287989E-04
 -1.09585350E-05 -1.25754258E-05 -7.29274961E-06 -3.99846100E-05 -4.82549116E-04
  4.47312690E-04 -1.09601044E-05  1.26082072E-05 -7.23345912E-06  9.92851011E-01
  4.94802954E-02  1.20401345E-03 -1.61508212E-08  6.06361497E-07 -1.01253181E-02
  1.58875426E-03  4.02102363E-09 -2.43945382E-07 -3.07873065E-02  9.14281825E-03
  1.09795626E-10 -9.26565762E-07 -8.53091342E-03 -9.67984192E-03 -9.67984136E-03
 -1.41800921E-08  5.03238142E-07  4.62926084E-11 -4.38273491E-04  2.64339240E-04
  2.72037605E-04 -2.33133694E-09  8.80044325E-08 -3.49731337E-03  1.43220817E-03
 -1.98467136E-08  6.86568998E-07  9.66422785E-03 -5.21221982E-03  3.21565651E-08
 -7.90758310E-07 -3.99346408E-05  2.60911686E-04  2.60912373E-04  4.66934507E-09
 -1.70974479E-07  6.05058665E-12 -1.18085301E-06 -7.89503911E-05  1.86375276E-04
  3.40317906E-10 -2.34901296E-08 -6.03769376E-05 -2.32447666E-03  5.07200782E-09
  8.92831198E-08  5.86702573E-03  1.98653625E-02  3.28177536E-08 -1.77687374E-06
  1.83395647E-04  9.88739864E-06  9.91580296E-06 -8.21705165E-10 -1.09518213E-09
  1.22110804E-09 -2.84627158E-01  1.02272883E+00  1.13617136E-03  9.35813526E-09
 -2.54264996E-07  7.55227975E-02  5.16814203E-04  1.31561788E-09 -5.87538376E-08
 -2.32668987E-02 -1.71102542E-03 -4.23887815E-09  1.81342988E-07  2.56392230E-02
  8.45952971E-03  3.07500910E-08 -1.10838632E-06 -1.55357325E-02 -1.55234373E-02
 -1.55234431E-02  2.58247367E-10 -4.33584312E-09  1.79225696E-12 -2.73393935E-05
 -2.47029457E-04 -1.55831960E-03 -1.32976253E-05 -1.05323605E-07  4.48397862E-05
 -2.73649211E-05 -2.46654226E-04 -1.55905431E-03 -1.33718523E-05 -3.88171337E-05
 -2.25182473E-05 -2.73645706E-05 -2.46631511E-04 -1.55912775E-03 -1.33782456E-05
  3.89239297E-05 -2.23389018E-05  1.09645226E-06 -3.47995300E-05  9.34671501E-06
 -7.85726518E-10  2.64949702E-08 -1.25219736E-03 -1.63558646E-03  1.20219610E-08
 -3.75561632E-07 -1.81787621E-02  7.70194633E-03 -4.41188946E-08  6.94734290E-07
  1.05634955E-04  8.67505736E-06  8.67603921E-06  5.59494742E-10 -2.41506049E-08
  5.74768372E-11 -6.39156362E-05 -2.36065049E-04  7.72015726E-06 -1.08275339E-09
  5.40659978E-08  2.42021860E-03 -5.62272573E-04  1.00229400E-08 -4.36199320E-07
 -1.14388991E-03 -8.70226873E-04  8.95615794E-09  8.88462380E-09 -1.34352405E-04
 -1.35397988E-04 -1.35399423E-04 -3.66248540E-10  1.67269291E-08 -3.44249381E-11
  4.32298678E-05 -5.97249355E-05 -4.98775824E-04 -9.10090224E-10  5.71843134E-08
 -4.37721785E-04 -3.61587104E-04  1.45942655E-08 -1.62570656E-07 -4.11423223E-02
 -5.94689820E-02 -6.83815454E-08  3.44646141E-06  4.54481378E-04  8.58729880E-05
  8.60000607E-05 -2.36807583E-09 -3.32960680E-08  3.51621909E-09  3.67974936E-04
 -1.27859120E-03  9.90587874E-01  6.84241609E-06 -1.66128296E-04  2.97636403E-04
  3.07181290E-02  2.09093434E-07 -5.12971396E-06  6.20227501E-05 -1.40232414E-02
 -8.78879435E-08  2.27483079E-06 -3.30918481E-02 -5.55671472E-03 -4.68613855E-08
  1.52802156E-06  1.66447500E-04  1.22111755E-04  1.22115092E-04 -4.84726037E-10
  1.59416361E-08  7.45727443E-11 -7.83945741E-05  1.42614806E-03 -3.93147809E-03
 -2.13630228E-04 -3.38121365E-07  1.44137907E-04 -7.81936655E-05  1.42627693E-03
 -3.93260505E-03 -2.13787547E-04 -1.24716427E-04 -7.23394163E-05 -7.81754837E-05
  1.42628498E-03 -3.93263029E-03 -2.13798326E-04  1.25055902E-04 -7.17606146E-05
 -7.83892939E-05 -3.47689325E-04 -5.32657490E-05  4.40977160E-09 -1.81292959E-07
  2.67547505E-03  6.92634865E-05 -2.30205821E-08  8.79684854E-07  8.83907440E-02
 -3.23997573E-02  6.47335074E-08  9.18295393E-07 -6.91229916E-05 -1.22750048E-04
 -1.22749376E-04 -1.25435016E-09  4.78172476E-08 -5.94535760E-11 -1.89077113E-05
 -8.10196855E-05  3.51648529E-05  4.23481190E-10 -5.24975454E-08  3.39111723E-04
 -1.16984109E-05  1.02233949E-09  1.36507504E-07 -8.71368397E-03  7.57922574E-03
 -3.37510074E-08  7.81347862E-09 -2.87876380E-05 -2.83060319E-05 -2.83080299E-05
 -6.34063793E-10  2.56943378E-08  4.78254706E-13 -1.69991016E-09 -6.58470016E-09
  2.78632438E-09 -4.21593367E-05  1.20706986E-07  5.13071881E-08 -8.91068152E-09
 -4.58732954E-05  1.41699483E-07  6.60883510E-08 -6.79236143E-09  2.78986689E-04
 -8.11576807E-07 -3.34190006E-09  3.41291610E-07 -3.46547087E-07 -1.16422306E-04
  3.34648968E-07 -4.00895833E-05  2.59941117E-10 -1.20342043E-09 -7.32187565E-06
  9.90819897E-01 -2.85619896E-03 -9.75730499E-10 -2.21146942E-07  2.96526123E-02
 -8.54791146E-05  2.39890214E-09  8.26521605E-08 -1.15574947E-02  3.33185987E-05
 -3.56467251E-08 -4.51812161E-08  5.14141897E-03 -1.48257501E-05 -3.27731134E-09
 -2.60330835E-08  2.69274557E-08  1.06071369E-04 -3.05817822E-07  3.13534474E-06
 -7.51833906E-07  4.51620302E-06 -2.24247293E-05 -8.03186210E-07 -1.50741460E-06
  4.99515037E-07 -1.24647860E-04  7.51017660E-04 -3.70702028E-03 -1.33236295E-04
 -7.24792676E-05 -4.11855766E-05  1.25397348E-04 -7.55622744E-04  3.72942049E-03
  1.34048878E-04 -7.31028141E-05  4.11111347E-05  1.10740436E-11  4.20882975E-10
  7.34086408E-10  5.84880379E-05 -1.68604796E-07  9.26084600E-09  9.72063135E-09
 -2.51485627E-04  7.24382450E-07  1.76212725E-08 -1.31409067E-08  1.03206860E-03
 -2.97590700E-06 -5.96151349E-11 -3.04048918E-10 -1.72718791E-10  1.88103429E-07
 -3.49588107E-10  2.03338861E-08  2.13751888E-10  9.18977145E-10 -4.86360676E-10
 -2.32344516E-05  6.68311511E-08 -1.21247475E-08  8.17168092E-09  1.43799179E-04
 -4.13932401E-07 -5.36864422E-09  8.23345760E-09 -3.55305207E-04  1.02395012E-06
 -5.95271539E-10 -2.56400652E-08  2.72528400E-08 -1.82571079E-05  5.26357674E-08
  3.09444229E-06  2.47376296E-08  1.06166437E-07 -3.38819847E-08 -1.22481971E-07
 -4.22033335E-05 -7.52204546E-07 -1.49963084E-08 -1.21464958E-07 -4.54202733E-05
  1.20659173E-06  3.19538512E-06  7.94517176E-07  2.78162699E-04  1.71736269E-08
 -3.46628079E-05  3.47542017E-05 -3.36662376E-07 -1.16456529E-04 -3.95143245E-07
 -1.51185104E-08  6.47839152E-08  1.66139760E-04  2.85620039E-03  9.90819893E-01
  4.02723319E-08  4.98096146E-06  8.54777196E-05  2.96525666E-02 -1.72635422E-07
 -1.86170630E-06 -3.33137798E-05 -1.15573757E-02  2.27540173E-06  1.53188101E-06
  1.48156711E-05  5.14123213E-03  5.83097363E-08  2.74441012E-06 -2.76664317E-06
  3.05723743E-07  1.06073354E-04  3.18672921E-08  1.44460115E-04 -8.69209199E-04
  4.29244760E-03  1.54212097E-04  2.17348185E-07 -9.65338279E-05 -7.28650236E-05
  4.39061340E-04 -2.16513203E-03 -7.78588580E-05 -4.14833108E-05 -2.55650633E-05
 -7.15566952E-05  4.31220554E-04 -2.12639440E-03 -7.64677667E-05  4.08431538E-05
 -2.49434253E-05  5.14717865E-09  1.62380972E-08 -2.16232775E-08  1.68558608E-07
  5.84743456E-05 -8.81489592E-07 -6.21652271E-07 -7.25452426E-07 -2.51465041E-04
 -4.76487881E-06  2.08103759E-06  2.97479697E-06  1.03224145E-03 -1.52936871E-08