RxCoord=-0.99975 DE=51.97                                               
Freq      RB3LYP                                                      6-31++G(d,p)        
Number of atoms                            I                7
Info1-9                                    I   N=           9
          16          16           0           0           0         100
           6          18        -502
Full Title                                 C   N=           3
RxCoord=-0.99975 DE=51.97           
Route                                      C   N=           6
#p b3lyp 6-31++g(d,p) scf=verytight NoSymm freq=noraman int=
ultrafine   
Charge                                     I               -1
Multiplicity                               I                1
Number of electrons                        I               40
Number of alpha electrons                  I               20
Number of beta electrons                   I               20
Number of basis functions                  I               98
Number of independent functions            I               98
Number of point charges in /Mol/           I                0
Number of translation vectors              I                0
Atomic numbers                             I   N=           7
           6          17           1           1           1           6
           7
Nuclear charges                            R   N=           7
  6.00000000E+00  1.70000000E+01  1.00000000E+00  1.00000000E+00  1.00000000E+00
  6.00000000E+00  7.00000000E+00
Current cartesian coordinates              R   N=          21
  2.83759385E-01  1.32280829E-05 -3.77945225E-04 -4.20083850E+00 -3.77945225E-06
  1.71965077E-04  2.03360987E-01  4.75644066E-03 -2.03197337E+00  2.03432797E-01
  1.75714294E+00  1.01943543E+00  2.03421458E-01 -1.76185781E+00  1.01122268E+00
  4.29618463E+00  9.44863062E-06 -4.44085639E-04  6.52172265E+00 -1.32280829E-05
  3.66606868E-04
Number of symbols in /Mol/                 I                0
Force Field                                I                0
Atom Types                                 C   N=           7
                                                            
                        
Int Atom Types                             I   N=           7
           0           0           0           0           0           0
           0
MM charges                                 R   N=           7
  0.00000000E+00  0.00000000E+00  0.00000000E+00  0.00000000E+00  0.00000000E+00
  0.00000000E+00  0.00000000E+00
Integer atomic weights                     I   N=           7
          12          35           1           1           1          12
          14
Real atomic weights                        R   N=           7
  1.20000000E+01  3.49688527E+01  1.00782504E+00  1.00782504E+00  1.00782504E+00
  1.20000000E+01  1.40030740E+01
Atom fragment info                         I   N=           7
           0           0           0           0           0           0
           0
Atom residue num                           I   N=           7
           0           0           0           0           0           0
           0
Nuclear spins                              I   N=           7
           0           3           1           1           1           0
           2
Nuclear ZEff                               R   N=           7
 -3.60000000E+00 -1.42400000E+01 -1.00000000E+00 -1.00000000E+00 -1.00000000E+00
 -3.60000000E+00 -4.55000000E+00
Nuclear ZNuc                               R   N=           7
  6.00000000E+00  1.70000000E+01  1.00000000E+00  1.00000000E+00  1.00000000E+00
  6.00000000E+00  7.00000000E+00
Nuclear QMom                               R   N=           7
  0.00000000E+00 -8.16500000E+00  0.00000000E+00  0.00000000E+00  0.00000000E+00
  0.00000000E+00  2.04400000E+00
Nuclear GFac                               R   N=           7
  0.00000000E+00  8.21874000E-01  2.79284600E+00  2.79284600E+00  2.79284600E+00
  0.00000000E+00  4.03761000E-01
MicOpt                                     I   N=           7
          -1          -1          -1          -1          -1          -1
          -1
Number of residues                         I                0
Number of secondary structures             I                0
Number of contracted shells                I               33
Number of primitive shells                 I               72
Pure/Cartesian d shells                    I                1
Pure/Cartesian f shells                    I                0
Highest angular momentum                   I                2
Largest degree of contraction              I                6
Shell types                                I   N=          33
           0          -1          -1          -1           2           0
          -1          -1          -1          -1           2           0
           0           0           1           0           0           0
           1           0           0           0           1           0
          -1          -1          -1           2           0          -1
          -1          -1           2
Number of primitives per shell             I   N=          33
           6           3           1           1           1           6
           6           3           1           1           1           3
           1           1           1           3           1           1
           1           3           1           1           1           6
           3           1           1           1           6           3
           1           1           1
Shell to atom map                          I   N=          33
           1           1           1           1           1           2
           2           2           2           2           2           3
           3           3           3           4           4           4
           4           5           5           5           5           6
           6           6           6           6           7           7
           7           7           7
Primitive exponents                        R   N=          72
  3.04752488E+03  4.57369518E+02  1.03948685E+02  2.92101553E+01  9.28666296E+00
  3.16392696E+00  7.86827235E+00  1.88128854E+00  5.44249258E-01  1.68714478E-01
  4.38000000E-02  8.00000000E-01  2.51801000E+04  3.78035000E+03  8.60474000E+02
  2.42145000E+02  7.73349000E+01  2.62470000E+01  4.91765000E+02  1.16984000E+02
  3.74153000E+01  1.37834000E+01  5.45215000E+00  2.22588000E+00  3.18649000E+00
  1.14427000E+00  4.20377000E-01  1.42657000E-01  4.83000000E-02  7.50000000E-01
  1.87311370E+01  2.82539436E+00  6.40121692E-01  1.61277759E-01  3.60000000E-02
  1.10000000E+00  1.87311370E+01  2.82539436E+00  6.40121692E-01  1.61277759E-01
  3.60000000E-02  1.10000000E+00  1.87311370E+01  2.82539436E+00  6.40121692E-01
  1.61277759E-01  3.60000000E-02  1.10000000E+00  3.04752488E+03  4.57369518E+02
  1.03948685E+02  2.92101553E+01  9.28666296E+00  3.16392696E+00  7.86827235E+00
  1.88128854E+00  5.44249258E-01  1.68714478E-01  4.38000000E-02  8.00000000E-01
  4.17351146E+03  6.27457911E+02  1.42902093E+02  4.02343293E+01  1.28202129E+01
  4.39043701E+00  1.16263619E+01  2.71627981E+00  7.72218397E-01  2.12031498E-01
  6.39000000E-02  8.00000000E-01
Contraction coefficients                   R   N=          72
  1.83473713E-03  1.40373228E-02  6.88426223E-02  2.32184443E-01  4.67941348E-01
  3.62311985E-01 -1.19332420E-01 -1.60854152E-01  1.14345644E+00  1.00000000E+00
  1.00000000E+00  1.00000000E+00  1.83295985E-03  1.40341988E-02  6.90973943E-02
  2.37451980E-01  4.83033960E-01  3.39855972E-01 -2.29739142E-03 -3.07137189E-02
 -1.12528069E-01  4.50163278E-02  5.89353363E-01  4.65206287E-01 -2.51828028E-01
  6.15892514E-02  1.06018433E+00  1.00000000E+00  1.00000000E+00  1.00000000E+00
  3.34946043E-02  2.34726953E-01  8.13757326E-01  1.00000000E+00  1.00000000E+00
  1.00000000E+00  3.34946043E-02  2.34726953E-01  8.13757326E-01  1.00000000E+00
  1.00000000E+00  1.00000000E+00  3.34946043E-02  2.34726953E-01  8.13757326E-01
  1.00000000E+00  1.00000000E+00  1.00000000E+00  1.83473713E-03  1.40373228E-02
  6.88426223E-02  2.32184443E-01  4.67941348E-01  3.62311985E-01 -1.19332420E-01
 -1.60854152E-01  1.14345644E+00  1.00000000E+00  1.00000000E+00  1.00000000E+00
  1.83477216E-03  1.39946270E-02  6.85865518E-02  2.32240873E-01  4.69069948E-01
  3.60455199E-01 -1.14961182E-01 -1.69117479E-01  1.14585195E+00  1.00000000E+00
  1.00000000E+00  1.00000000E+00
P(S=P) Contraction coefficients            R   N=          72
  0.00000000E+00  0.00000000E+00  0.00000000E+00  0.00000000E+00  0.00000000E+00
  0.00000000E+00  6.89990666E-02  3.16423961E-01  7.44308291E-01  1.00000000E+00
  1.00000000E+00  0.00000000E+00  0.00000000E+00  0.00000000E+00  0.00000000E+00
  0.00000000E+00  0.00000000E+00  0.00000000E+00  3.98940088E-03  3.03177067E-02
  1.29880029E-01  3.27951072E-01  4.53527100E-01  2.52154056E-01 -1.42993147E-02
  3.23572333E-01  7.43507765E-01  1.00000000E+00  1.00000000E+00  0.00000000E+00
  0.00000000E+00  0.00000000E+00  0.00000000E+00  0.00000000E+00  0.00000000E+00
  0.00000000E+00  0.00000000E+00  0.00000000E+00  0.00000000E+00  0.00000000E+00
  0.00000000E+00  0.00000000E+00  0.00000000E+00  0.00000000E+00  0.00000000E+00
  0.00000000E+00  0.00000000E+00  0.00000000E+00  0.00000000E+00  0.00000000E+00
  0.00000000E+00  0.00000000E+00  0.00000000E+00  0.00000000E+00  6.89990666E-02
  3.16423961E-01  7.44308291E-01  1.00000000E+00  1.00000000E+00  0.00000000E+00
  0.00000000E+00  0.00000000E+00  0.00000000E+00  0.00000000E+00  0.00000000E+00
  0.00000000E+00  6.75797439E-02  3.23907296E-01  7.40895140E-01  1.00000000E+00
  1.00000000E+00  0.00000000E+00
Coordinates of each shell                  R   N=          99
  2.83759385E-01  1.32280829E-05 -3.77945225E-04  2.83759385E-01  1.32280829E-05
 -3.77945225E-04  2.83759385E-01  1.32280829E-05 -3.77945225E-04  2.83759385E-01
  1.32280829E-05 -3.77945225E-04  2.83759385E-01  1.32280829E-05 -3.77945225E-04
 -4.20083850E+00 -3.77945225E-06  1.71965077E-04 -4.20083850E+00 -3.77945225E-06
  1.71965077E-04 -4.20083850E+00 -3.77945225E-06  1.71965077E-04 -4.20083850E+00
 -3.77945225E-06  1.71965077E-04 -4.20083850E+00 -3.77945225E-06  1.71965077E-04
 -4.20083850E+00 -3.77945225E-06  1.71965077E-04  2.03360987E-01  4.75644066E-03
 -2.03197337E+00  2.03360987E-01  4.75644066E-03 -2.03197337E+00  2.03360987E-01
  4.75644066E-03 -2.03197337E+00  2.03360987E-01  4.75644066E-03 -2.03197337E+00
  2.03432797E-01  1.75714294E+00  1.01943543E+00  2.03432797E-01  1.75714294E+00
  1.01943543E+00  2.03432797E-01  1.75714294E+00  1.01943543E+00  2.03432797E-01
  1.75714294E+00  1.01943543E+00  2.03421458E-01 -1.76185781E+00  1.01122268E+00
  2.03421458E-01 -1.76185781E+00  1.01122268E+00  2.03421458E-01 -1.76185781E+00
  1.01122268E+00  2.03421458E-01 -1.76185781E+00  1.01122268E+00  4.29618463E+00
  9.44863062E-06 -4.44085639E-04  4.29618463E+00  9.44863062E-06 -4.44085639E-04
  4.29618463E+00  9.44863062E-06 -4.44085639E-04  4.29618463E+00  9.44863062E-06
 -4.44085639E-04  4.29618463E+00  9.44863062E-06 -4.44085639E-04  6.52172265E+00
 -1.32280829E-05  3.66606868E-04  6.52172265E+00 -1.32280829E-05  3.66606868E-04
  6.52172265E+00 -1.32280829E-05  3.66606868E-04  6.52172265E+00 -1.32280829E-05
  3.66606868E-04  6.52172265E+00 -1.32280829E-05  3.66606868E-04
Num ILSW                                   I              100
ILSW                                       I   N=         100
           0           1           0           0           2           0
           0           0           0           0         402          -1
           5           0           0           0           2           0
           0           0           0           0           1           0
           1           1           0           0           0           0
           0           0      100000           0          -1           0
           0           0           0           0           0           0
           0           0           0           1           0           0
           0 -2000000000           1           0           0           0
           0           0           4          52           0           0
           0           0           5           0           0           0
           0           0           0           7           0           1
           0           0           0           0           0           0
           0           0           0           0           0           0
           0           0           0           0           0           0
           0           0           0           0           0           0
           0           0           0           0
Num RLSW                                   I               52
RLSW                                       R   N=          52
  8.00000000E-01  7.20000000E-01  1.00000000E+00  8.10000000E-01  2.00000000E-01
  0.00000000E+00  0.00000000E+00  1.00000000E+00  0.00000000E+00  0.00000000E+00
  0.00000000E+00  0.00000000E+00  1.00000000E+00  0.00000000E+00  0.00000000E+00
  0.00000000E+00  0.00000000E+00  1.00000000E+00  0.00000000E+00  0.00000000E+00
  0.00000000E+00  0.00000000E+00  1.00000000E+00  0.00000000E+00  0.00000000E+00
  0.00000000E+00  0.00000000E+00  1.00000000E+00  0.00000000E+00  0.00000000E+00
  0.00000000E+00  0.00000000E+00  1.00000000E+00  0.00000000E+00  0.00000000E+00
  0.00000000E+00  0.00000000E+00  0.00000000E+00  1.00000000E+00  1.00000000E+00
  0.00000000E+00  1.00000000E+00  0.00000000E+00  0.00000000E+00  0.00000000E+00
  0.00000000E+00  0.00000000E+00  0.00000000E+00  0.00000000E+00  0.00000000E+00
  0.00000000E+00  0.00000000E+00
MxBond                                     I                3
NBond                                      I   N=           7
           3           0           1           1           1           1
           1
IBond                                      I   N=          21
           3           4           5           0           0           0
           1           0           0           1           0           0
           1           0           0           7           0           0
           6           0           0
RBond                                      R   N=          21
  1.00000000E+00  1.00000000E+00  1.00000000E+00  0.00000000E+00  0.00000000E+00
  0.00000000E+00  1.00000000E+00  0.00000000E+00  0.00000000E+00  1.00000000E+00
  0.00000000E+00  0.00000000E+00  1.00000000E+00  0.00000000E+00  0.00000000E+00
  3.00000000E+00  0.00000000E+00  0.00000000E+00  3.00000000E+00  0.00000000E+00
  0.00000000E+00
Virial Ratio                               R      2.004803626373094E+00
SCF Energy                                 R     -5.929915611380585E+02
Total Energy                               R     -5.929915611380585E+02
RMS Force                                  R      7.054714135285680E-03
RMS Density                                R      3.534079715569524E-09
NImag                                      I                1
Job Status                                 I                1
Nuclear derivative order                   I                2
External E-field                           R   N=          35
  0.00000000E+00  0.00000000E+00  0.00000000E+00  0.00000000E+00  0.00000000E+00
  0.00000000E+00  0.00000000E+00  0.00000000E+00  0.00000000E+00  0.00000000E+00
  0.00000000E+00  0.00000000E+00  0.00000000E+00  0.00000000E+00  0.00000000E+00
  0.00000000E+00  0.00000000E+00  0.00000000E+00  0.00000000E+00  0.00000000E+00
  0.00000000E+00  0.00000000E+00  0.00000000E+00  0.00000000E+00  0.00000000E+00
  0.00000000E+00  0.00000000E+00  0.00000000E+00  0.00000000E+00  0.00000000E+00
  0.00000000E+00  0.00000000E+00  0.00000000E+00  0.00000000E+00  0.00000000E+00
IOpCl                                      I                0
IROHF                                      I                0
Alpha Orbital Energies                     R   N=          98
 -1.01309480E+02 -1.41641098E+01 -1.01155680E+01 -1.00432818E+01 -9.22411285E+00
 -6.98375968E+00 -6.98074469E+00 -6.98074466E+00 -7.17891511E-01 -5.96131219E-01
 -5.40471849E-01 -3.09993477E-01 -3.09976732E-01 -2.62922198E-01 -1.84025007E-01
 -1.62770840E-01 -1.62770613E-01 -1.02085326E-01 -1.02085184E-01 -9.80915247E-02
  1.09932689E-01  1.33506317E-01  1.48175817E-01  1.48177624E-01  1.55770815E-01
  1.89208738E-01  1.89215270E-01  1.96250973E-01  2.24062965E-01  2.24063981E-01
  2.37097382E-01  2.37109110E-01  2.45101493E-01  2.55363487E-01  2.55363681E-01
  2.55848461E-01  3.08205447E-01  3.41271629E-01  3.41276211E-01  3.59093161E-01
  3.59094616E-01  3.62817655E-01  3.88419498E-01  4.44994105E-01  4.64384359E-01
  7.51297339E-01  7.95782037E-01  7.95803433E-01  7.99252762E-01  8.02616420E-01
  8.02617479E-01  8.57627896E-01  8.57630804E-01  9.03671613E-01  9.42721927E-01
  9.87880707E-01  1.05694834E+00  1.05695506E+00  1.10628279E+00  1.10628382E+00
  1.11740560E+00  1.11741175E+00  1.13724168E+00  1.15364481E+00  1.15366038E+00
  1.24092732E+00  1.28365703E+00  1.41796772E+00  1.51322864E+00  1.60469040E+00
  1.60470583E+00  1.71179002E+00  1.71179079E+00  1.73796442E+00  1.73796822E+00
  1.81895735E+00  2.12052603E+00  2.12485685E+00  2.12495666E+00  2.13487773E+00
  2.13490272E+00  2.16161219E+00  2.54594520E+00  2.66432268E+00  2.66436096E+00
  2.78591945E+00  2.78593644E+00  2.84698308E+00  2.86752607E+00  2.86763268E+00
  3.22746636E+00  3.46369243E+00  3.59100931E+00  3.59110637E+00  4.17936050E+00
  4.43220480E+00  4.52933811E+00  4.61297660E+00
Alpha MO coefficients                      R   N=        9604
 -3.56014879E-06 -5.86976854E-05  2.11976621E-05  7.98908127E-11 -2.91941792E-09
  6.16794273E-05 -1.56401969E-04 -9.49647251E-10  2.17985651E-08  3.37101492E-05
  3.05956569E-04  8.90183085E-10 -2.27138966E-08  3.77368817E-05 -3.08578694E-06
 -3.09204802E-06  3.46299461E-10 -6.53137194E-09 -1.42306593E-10  9.95997685E-01
  1.51486762E-02  1.06494850E-05  6.58380485E-11 -1.85190072E-09 -2.10571605E-02
 -5.10926346E-06  3.59403190E-11  3.47826525E-10  1.87749435E-03 -4.63335067E-05
 -3.42864117E-10  7.39434270E-09 -1.31201728E-04  5.79973099E-05  6.00444791E-10
 -1.56243586E-08  7.50306090E-03  7.52382424E-03  7.52382420E-03 -8.55207494E-11
  2.66546151E-09 -2.93395976E-12 -8.01867051E-06 -4.16127473E-05  7.27105834E-05
  2.78691336E-05  7.54487240E-09 -3.17113628E-06 -8.03438941E-06 -4.16077867E-05
  7.27394426E-05  2.78706480E-05  2.74238573E-06  1.58765171E-06 -8.03554692E-06
 -4.16077159E-05  7.27413760E-05  2.78707601E-05 -2.74972450E-06  1.57497229E-06
 -1.81608118E-06 -4.94235872E-06  3.41057159E-06  4.14738006E-11 -2.35091171E-09
 -1.53867516E-04 -2.13210483E-04  1.43331186E-09 -4.34563497E-08 -5.02370799E-04
  7.53571972E-05 -3.99955686E-12 -1.26125488E-08 -1.05873651E-05 -1.64936429E-06
 -1.64931156E-06  1.76352468E-10 -7.44360365E-09  4.01327169E-12 -3.03940746E-06
 -1.36358304E-05 -1.46741272E-06 -3.39435763E-11  2.06988776E-09  2.13378006E-04
 -1.01029416E-04  1.33235472E-09 -5.18666302E-08  1.96639088E-04 -3.87945640E-05
  5.88426038E-10 -1.84128976E-08  3.61290788E-06 -7.56515286E-06 -7.56510494E-06
 -1.93210209E-10  7.42520359E-09  4.52943823E-13 -1.30354476E-05 -4.21941160E-05
 -3.72140609E-05  1.12276373E-11  4.57883290E-09  2.54780665E-04  1.40219114E-04
  9.18061437E-10 -5.11522283E-08  2.41861730E-03  1.19398538E-03  3.66482757E-09
 -2.02752098E-07 -1.52786417E-05 -3.00180342E-05 -3.00091655E-05  1.21566065E-12
  5.39420758E-10  1.66344690E-10  8.15941556E-08  7.78821476E-07  1.25380679E-06
  4.79282045E-12 -2.65832988E-10  2.61392670E-06 -7.57280719E-06 -2.21978224E-11
  1.43274406E-09 -4.40700363E-05  3.18484101E-05  8.16216650E-11 -5.28240921E-09
  4.91902124E-04  1.16393296E-04 -2.88600579E-10  2.61352261E-08  6.77722468E-06
 -8.94220580E-07 -8.94522485E-07 -3.07973047E-11  8.84345443E-10 -1.35792938E-11
  1.29207845E-06 -1.29007180E-04 -1.24925932E-04 -1.33557678E-05  2.89321080E-09
 -1.26872760E-06  1.29847396E-06 -1.28926162E-04 -1.25027162E-04 -1.33498431E-05
  1.09003913E-06  6.37085842E-07  1.29889810E-06 -1.28924395E-04 -1.25030094E-04
 -1.33496610E-05 -1.09277147E-06  6.31779636E-07  8.24686115E-05  2.18504412E-04
 -3.79187870E-04  3.50217240E-09 -1.24188839E-07 -2.34538084E-05 -1.08623140E-04
  3.43541637E-09 -1.30368980E-07 -5.84960004E-04  2.03925073E-03 -1.23045194E-08
  3.81553518E-07 -8.59362739E-04 -4.40410333E-06 -4.40394427E-06  9.85545857E-09
 -3.51569143E-07  1.46371827E-11  9.92721114E-01  3.44616633E-02 -1.62424029E-03
  1.70268293E-08 -6.07605255E-07  4.82615593E-03  3.38676890E-04 -4.18348542E-09
  1.48259703E-07 -3.08131847E-03 -1.87025774E-04 -6.40465232E-10  4.45169124E-08
 -7.61213553E-03 -8.39212563E-03 -8.39212578E-03 -9.02553476E-09  3.22235392E-07
 -5.09704586E-12  9.93146210E-01  4.93255498E-02  2.65381998E-04  3.22804667E-09
 -1.26597786E-07 -1.73826495E-02 -1.93748353E-03 -8.51176362E-09  7.10257131E-07
  4.22869247E-03  2.98856105E-03  1.33998410E-09  2.03454296E-07 -9.33390815E-03
 -8.35597514E-03 -8.35611114E-03  1.08443831E-09  7.04529800E-08  1.74940024E-10
 -4.30911154E-06 -2.44661363E-05 -2.23635010E-05  1.74801799E-10 -1.55649014E-09
 -2.08487960E-04  7.06692090E-05 -1.37918176E-09  1.90291797E-08  6.05646116E-04
  5.79019323E-04  7.86710963E-09 -1.73414836E-07  1.33822585E-03  1.03743452E-04
  2.22732653E-09 -1.13487105E-07  1.99063253E-04 -5.45247468E-05 -5.45154234E-05
  2.35651791E-09 -6.15100036E-08  3.35729938E-10 -1.84592117E-04  3.07025567E-03
 -4.71758292E-04  4.99514872E-05  5.67952115E-07 -2.43115179E-04 -1.84707146E-04
  3.06966972E-03 -4.72104651E-04  4.99864489E-05  2.10311645E-04  1.22044090E-04
 -1.84708914E-04  3.06966315E-03 -4.72106489E-04  4.99875553E-05 -2.10878708E-04
  1.21061296E-04  6.31750402E-05 -2.55583550E-04  2.93172222E-05  1.35575233E-09
 -2.66012023E-08 -2.72444570E-03 -5.72742825E-03  2.77782785E-08 -9.81301305E-07
 -5.44209219E-03  1.80885615E-03 -2.74201937E-09 -3.20957222E-07  8.21134277E-06
 -4.62813817E-05 -4.62808524E-05  3.38220854E-09 -1.31685426E-07 -1.46639238E-10
 -9.01525100E-05 -4.05044603E-04  5.39984575E-06 -2.51835546E-09  9.70212962E-08
  5.62775625E-03 -2.19530875E-03  3.68459888E-08 -1.35566131E-06  1.96402058E-03
 -8.06339316E-04  5.56168654E-09  1.59507895E-08 -5.28541666E-05 -1.85432458E-04
 -1.85432002E-04 -3.45077856E-09  1.22403186E-07  1.56304541E-11 -1.54592475E-04
 -2.27587318E-04  1.54479713E-05 -2.31640226E-10  9.21750985E-10  1.19469706E-03
  1.05065985E-03 -1.85038948E-09 -3.29312270E-08  1.37733330E-02  1.79324176E-02
  2.29985074E-08 -1.22544327E-06  1.00734197E-04 -4.37190601E-05 -4.37347747E-05
 -5.88664424E-10  3.73863966E-09 -3.90017832E-10  1.85005568E-07  3.82375663E-06
  1.68635586E-05  1.32688280E-10 -4.01092922E-09  9.86582453E-06 -1.15160378E-04
 -8.19295879E-10  2.51458412E-08 -3.81701307E-04  6.37142326E-04  3.12115661E-09
 -1.01961738E-07  1.06479610E-02  3.15203797E-03  2.35311833E-08 -6.50621473E-07
  6.69720393E-05 -1.68063619E-05 -1.68061722E-05  7.40704423E-10 -2.09683050E-08
 -3.53027725E-11 -3.78727773E-05 -4.78488511E-04  4.39345886E-04 -1.13506756E-05
 -3.68083361E-08  1.57250430E-05 -3.78723396E-05 -4.78462530E-04  4.40212876E-04
 -1.13459608E-05 -1.35916428E-05 -7.88305066E-06 -3.78725863E-05 -4.78463301E-04
  4.40234969E-04 -1.13468799E-05  1.36273788E-05 -7.81910854E-06  9.92849701E-01
  4.94796258E-02  1.23483837E-03 -1.64914879E-08  6.22505866E-07 -1.01309959E-02
  1.49553852E-03  4.26287520E-09 -2.66880089E-07 -2.97133303E-02  8.77389549E-03
  2.32814285E-10 -1.03306987E-06 -8.52638185E-03 -9.68357894E-03 -9.68357830E-03
 -1.42068559E-08  5.10817620E-07  3.56196585E-11 -4.40856706E-04  2.57259321E-04
  2.79232228E-04 -2.40504341E-09  9.22258246E-08 -3.42113700E-03  1.40806717E-03
 -1.94387189E-08  6.77375388E-07  9.64579870E-03 -5.15882366E-03  3.24898317E-08
 -7.62871442E-07 -5.02750724E-05  2.58621041E-04  2.58621725E-04  4.70984957E-09
 -1.75469502E-07  6.23053247E-12 -3.09681492E-06 -7.83739408E-05  1.79927200E-04
  4.19127613E-10 -2.33882783E-08  2.52715815E-05 -2.29136995E-03  3.66278907E-09
  9.27180634E-08  5.42771290E-03  2.03734569E-02  3.63596979E-08 -1.78860045E-06
  1.73571205E-04  7.64567139E-06  7.67378762E-06 -6.01354068E-10 -8.95067275E-11
  1.11207668E-09 -2.84626950E-01  1.02273068E+00  1.20742418E-03  9.97013381E-09
 -2.54709469E-07  7.55310849E-02  5.15913906E-04  1.46050116E-09 -5.72395518E-08
 -2.33283549E-02 -1.71169772E-03 -4.55372179E-09  1.77138988E-07  2.62728443E-02
  8.64433906E-03  3.28785118E-08 -1.10800901E-06 -1.55296967E-02 -1.55232783E-02
 -1.55232838E-02  3.11948701E-10 -5.24126398E-09  1.26935258E-11 -2.67876929E-05
 -2.56449287E-04 -1.50820673E-03 -1.60349203E-05 -1.04468239E-07  4.44901101E-05
 -2.68124409E-05 -2.56091596E-04 -1.50885764E-03 -1.61041770E-05 -3.85130306E-05
 -2.23425768E-05 -2.68122857E-05 -2.56070925E-04 -1.50891996E-03 -1.61097494E-05
  3.86188021E-05 -2.21643444E-05  2.06445532E-06 -2.93827327E-05  1.05225083E-05
 -8.04908918E-10  3.01619818E-08 -1.23508689E-03 -1.54879929E-03  1.16309591E-08
 -3.73398369E-07 -1.85176449E-02  7.91531892E-03 -4.41980404E-08  5.63797461E-07
  1.06448397E-04  9.43560022E-06  9.43659001E-06  5.08053328E-10 -2.36715980E-08
  4.72275462E-11 -6.21975427E-05 -2.28874444E-04  7.23378964E-06 -1.07025001E-09
  5.59558748E-08  2.32788825E-03 -5.27129422E-04  9.55916055E-09 -4.30422214E-07
 -1.09312277E-03 -9.46059067E-04  9.00196086E-09  6.54843225E-08 -1.33037360E-04
 -1.31835995E-04 -1.31837335E-04 -3.16284390E-10  1.42930691E-08 -3.12165060E-11
  4.79690979E-05 -2.66782261E-05 -5.14211015E-04 -1.09679833E-09  5.56936742E-08
 -4.67740602E-04 -3.01266062E-04  1.23282943E-08 -1.57453885E-07 -3.87725475E-02
 -5.96760993E-02 -6.95608866E-08  3.50484786E-06  4.36871011E-04  1.00492440E-04
  1.00617838E-04 -1.61276285E-09 -3.08166997E-08  3.15519228E-09  3.87882737E-04
 -1.35708219E-03  9.90583590E-01  6.57593201E-06 -1.58321889E-04  2.85791258E-04
  3.07320960E-02  2.01392073E-07 -4.89241281E-06  1.58492891E-04 -1.40214737E-02
 -8.54405992E-08  2.17230818E-06 -3.41117357E-02 -5.82818874E-03 -4.95306844E-08
  1.52499669E-06  1.68366522E-04  1.11425641E-04  1.11428520E-04 -4.57158227E-10
  1.35213155E-08  5.65551882E-11 -8.18599981E-05  1.44869565E-03 -3.99150019E-03
 -2.20050459E-04 -3.27711922E-07  1.39681660E-04 -8.16670721E-05  1.44881408E-03
 -3.99268780E-03 -2.20199970E-04 -1.20860302E-04 -7.01037689E-05 -8.16512394E-05
  1.44881942E-03 -3.99270767E-03 -2.20209566E-04  1.21188965E-04 -6.95422817E-05
 -7.71610075E-05 -3.43854921E-04 -5.49491108E-05  4.23619024E-09 -1.87481148E-07
  2.68382736E-03  1.31014220E-04 -2.24846439E-08  9.16691376E-07  8.71882633E-02
 -3.21106840E-02  6.39957373E-08  1.29774729E-06 -6.40517420E-05 -1.21042442E-04
 -1.21042077E-04 -1.38384059E-09  4.95117143E-08 -4.24816178E-11 -1.90346521E-05
 -8.05618602E-05  3.58682033E-05  4.73205022E-10 -5.65635235E-08  3.04264700E-04
  1.19285430E-05  4.01108838E-10  1.65855202E-07 -8.78399487E-03  7.59804035E-03
 -3.43496254E-08 -1.39595451E-07 -3.19527914E-05 -2.84767587E-05 -2.84787863E-05
 -5.24845656E-10  2.53873498E-08 -3.33787724E-12 -1.39614128E-09 -5.48040968E-09
  2.60277288E-09 -4.29418938E-05  2.60732839E-08  4.13208757E-08 -8.35401074E-09
 -2.32011079E-05  2.33254385E-08  3.77862766E-08 -2.54970014E-08  2.73882716E-04
 -1.79021624E-07 -2.72036175E-09  2.71560281E-07 -2.75867563E-07 -1.19696703E-04
  7.40513935E-08 -4.13319318E-05  3.82829421E-10 -1.62300853E-09 -6.67562672E-06
  9.90825325E-01 -6.19720781E-04 -6.99357223E-10 -2.01405503E-07  2.96480693E-02
 -1.85442899E-05  2.27408361E-09  7.48913571E-08 -1.15563087E-02  7.23015500E-06
 -4.05082560E-08 -4.35887930E-08  5.13961379E-03 -3.21920887E-06 -3.06456111E-09
 -2.05188916E-08  2.13517024E-08  1.09579159E-04 -6.85983605E-08  3.24249392E-06
 -4.21458738E-07  2.49854612E-06 -1.26885882E-05 -4.56781763E-07 -3.40892866E-06
  2.76516477E-07 -1.23462399E-04  7.34644846E-04 -3.69806580E-03 -1.33831394E-04
 -7.28464845E-05 -4.02965859E-05  1.23882193E-04 -7.37216406E-04  3.71073079E-03
  1.34296461E-04 -7.32739135E-05  4.01145894E-05 -5.73752722E-11  8.90513291E-11
  6.97249321E-10  5.86343241E-05 -3.67343786E-08  7.72010683E-09  5.88883026E-09
 -2.52559006E-04  1.57699070E-07  4.51415978E-08 -2.61285063E-08  1.02995118E-03
 -6.44845083E-07 -1.90777725E-10 -1.56318272E-09  9.47443032E-10  5.54259974E-07
 -1.83269951E-10  2.10909224E-07  1.54862459E-10  6.37528862E-10 -4.30432057E-10
 -2.33857383E-05  1.44604350E-08 -8.24153934E-09  6.02594193E-09  1.44314396E-04
 -8.96124918E-08 -4.44172529E-09  1.05275605E-08 -3.54721844E-04  2.20986500E-07
 -4.92566456E-10 -1.95228542E-08  2.08269966E-08 -1.82518425E-05  1.14463664E-08
  3.06113246E-06  2.49193735E-08  1.09844256E-07 -2.87948278E-08 -2.76690089E-08
 -4.29828967E-05 -7.47227128E-07 -4.74144103E-08 -5.43010515E-09 -2.27794488E-05
  8.66133672E-07  2.91650875E-06  1.63108547E-07  2.73094537E-04  1.24279809E-08
 -3.57401760E-05  3.58325709E-05 -7.56988096E-08 -1.19727227E-04 -3.14435945E-07
 -1.48390436E-08  6.35072444E-08  1.58349518E-04  6.19722059E-04  9.90825321E-01
  3.78838607E-08  4.74612351E-06  1.85430355E-05  2.96480273E-02 -1.67125413E-07
 -1.77888127E-06 -7.22579212E-06 -1.15562013E-02  2.14715389E-06  1.45573462E-06
  3.20993823E-06  5.13945304E-03  5.60884123E-08  2.83736157E-06 -2.85842936E-06
  6.84772002E-08  1.09580717E-04  2.56510455E-08  1.42895204E-04 -8.49169613E-04
  4.27659787E-03  1.54705357E-04  2.14668514E-07 -9.62619348E-05 -7.17957693E-05
  4.27267813E-04 -2.14879424E-03 -7.78003208E-05 -4.03737761E-05 -2.68248685E-05
 -7.10603076E-05  4.22926661E-04 -2.12690940E-03 -7.70094851E-05  4.00666065E-05
 -2.63988546E-05  4.45400189E-09  1.39034854E-08 -2.19650131E-08  3.66046038E-08
  5.86210486E-05 -9.59167853E-07 -7.02101202E-07 -1.58216919E-07 -2.52539678E-04
 -4.25897929E-06  1.86193357E-06  6.43664305E-07  1.03015861E-03 -2.04998978E-08