 Entering Gaussian System, Link 0=g16
 Initial command:
 /usr/local/g16_AVX//g16/l1.exe "/scratch/alanqf/0091-54533.ixchel.mda.cinvestav.mx/Gau-22556.inp" -scrdir="/scratch/alanqf/0091-54533.ixchel.mda.cinvestav.mx/"
 Entering Link 1 = /usr/local/g16_AVX//g16/l1.exe PID=     22557.
  
 Copyright (c) 1988-2017, Gaussian, Inc.  All Rights Reserved.
  
 This is part of the Gaussian(R) 16 program.  It is based on
 the Gaussian(R) 09 system (copyright 2009, Gaussian, Inc.),
 the Gaussian(R) 03 system (copyright 2003, Gaussian, Inc.),
 the Gaussian(R) 98 system (copyright 1998, Gaussian, Inc.),
 the Gaussian(R) 94 system (copyright 1995, Gaussian, Inc.),
 the Gaussian 92(TM) system (copyright 1992, Gaussian, Inc.),
 the Gaussian 90(TM) system (copyright 1990, Gaussian, Inc.),
 the Gaussian 88(TM) system (copyright 1988, Gaussian, Inc.),
 the Gaussian 86(TM) system (copyright 1986, Carnegie Mellon
 University), and the Gaussian 82(TM) system (copyright 1983,
 Carnegie Mellon University). Gaussian is a federally registered
 trademark of Gaussian, Inc.
  
 This software contains proprietary and confidential information,
 including trade secrets, belonging to Gaussian, Inc.
  
 This software is provided under written license and may be
 used, copied, transmitted, or stored only in accord with that
 written license.
  
 The following legend is applicable only to US Government
 contracts under FAR:
  
                    RESTRICTED RIGHTS LEGEND
  
 Use, reproduction and disclosure by the US Government is
 subject to restrictions as set forth in subparagraphs (a)
 and (c) of the Commercial Computer Software - Restricted
 Rights clause in FAR 52.227-19.
  
 Gaussian, Inc.
 340 Quinnipiac St., Bldg. 40, Wallingford CT 06492
  
  
 ---------------------------------------------------------------
 Warning -- This program may not be used in any manner that
 competes with the business of Gaussian, Inc. or will provide
 assistance to any competitor of Gaussian, Inc.  The licensee
 of this program is prohibited from giving any competitor of
 Gaussian, Inc. access to this program.  By using this program,
 the user acknowledges that Gaussian, Inc. is engaged in the
 business of creating and licensing software in the field of
 computational chemistry and represents and warrants to the
 licensee that it is not a competitor of Gaussian, Inc. and that
 it will not use this program in any manner prohibited above.
 ---------------------------------------------------------------
  

 Cite this work as:
 Gaussian 16, Revision B.01,
 M. J. Frisch, G. W. Trucks, H. B. Schlegel, G. E. Scuseria, 
 M. A. Robb, J. R. Cheeseman, G. Scalmani, V. Barone, 
 G. A. Petersson, H. Nakatsuji, X. Li, M. Caricato, A. V. Marenich, 
 J. Bloino, B. G. Janesko, R. Gomperts, B. Mennucci, H. P. Hratchian, 
 J. V. Ortiz, A. F. Izmaylov, J. L. Sonnenberg, D. Williams-Young, 
 F. Ding, F. Lipparini, F. Egidi, J. Goings, B. Peng, A. Petrone, 
 T. Henderson, D. Ranasinghe, V. G. Zakrzewski, J. Gao, N. Rega, 
 G. Zheng, W. Liang, M. Hada, M. Ehara, K. Toyota, R. Fukuda, 
 J. Hasegawa, M. Ishida, T. Nakajima, Y. Honda, O. Kitao, H. Nakai, 
 T. Vreven, K. Throssell, J. A. Montgomery, Jr., J. E. Peralta, 
 F. Ogliaro, M. J. Bearpark, J. J. Heyd, E. N. Brothers, K. N. Kudin, 
 V. N. Staroverov, T. A. Keith, R. Kobayashi, J. Normand, 
 K. Raghavachari, A. P. Rendell, J. C. Burant, S. S. Iyengar, 
 J. Tomasi, M. Cossi, J. M. Millam, M. Klene, C. Adamo, R. Cammi, 
 J. W. Ochterski, R. L. Martin, K. Morokuma, O. Farkas, 
 J. B. Foresman, and D. J. Fox, Gaussian, Inc., Wallingford CT, 2016.
 
 ******************************************
 Gaussian 16:  ES64L-G16RevB.01 20-Dec-2017
                13-Oct-2024 
 ******************************************
 %NProcShared=26
 Will use up to   26 processors via shared memory.
 %MEM=20GB
 %chk=CHKfiles/0091.chk
 ---------------------------------------------------------------------
 #p b3lyp 6-31++g(d,p) scf=verytight NoSymm freq=noraman int=ultrafine
 ---------------------------------------------------------------------
 1/10=4,30=1,38=1/1,3;
 2/12=2,15=1,17=6,18=5,40=1/2;
 3/5=1,6=6,7=1111,11=2,25=1,30=1,71=2,74=-5,75=-5,140=1/1,2,3;
 4//1;
 5/5=2,17=3,38=5,98=1/2;
 8/6=4,10=90,11=11/1;
 11/6=1,8=1,9=11,15=111,16=1,31=1/1,2,10;
 10/6=1,31=1/2;
 6/7=2,8=2,9=2,10=2,28=1/1;
 7/8=1,10=1,25=1,30=1/1,2,3,16;
 1/10=4,30=1/3;
 99//99;
 Leave Link    1 at Sun Oct 13 09:50:11 2024, MaxMem=  2684354560 cpu:               1.3 elap:               0.1
 (Enter /usr/local/g16_AVX//g16/l101.exe)
 -------------------------
 RxCoord=-0.99975 DE=51.97
 -------------------------
 Symbolic Z-matrix:
 Charge = -1 Multiplicity = 1
 C                     0.15016   0.00001  -0.0002 
 Cl                   -2.22299  0.         0.00009 
 H                     0.10761   0.00252  -1.07527 
 H                     0.10765   0.92984   0.53946 
 H                     0.10765  -0.93234   0.53512 
 C                     2.27344   0.00001  -0.00024 
 N                     3.45115  -0.00001   0.00019 
 
 ITRead=  0  0  0  0  0  0  0
 MicOpt= -1 -1 -1 -1 -1 -1 -1
 NAtoms=      7 NQM=        7 NQMF=       0 NMMI=      0 NMMIF=      0
                NMic=       0 NMicF=      0.
                    Isotopes and Nuclear Properties:
 (Nuclear quadrupole moments (NQMom) in fm**2, nuclear magnetic moments (NMagM)
  in nuclear magnetons)

  Atom         1           2           3           4           5           6           7
 IAtWgt=          12          35           1           1           1          12          14
 AtmWgt=  12.0000000  34.9688527   1.0078250   1.0078250   1.0078250  12.0000000  14.0030740
 NucSpn=           0           3           1           1           1           0           2
 AtZEff=  -0.0000000  -0.0000000  -0.0000000  -0.0000000  -0.0000000  -0.0000000  -0.0000000
 NQMom=    0.0000000  -8.1650000   0.0000000   0.0000000   0.0000000   0.0000000   2.0440000
 NMagM=    0.0000000   0.8218740   2.7928460   2.7928460   2.7928460   0.0000000   0.4037610
 AtZNuc=   6.0000000  17.0000000   1.0000000   1.0000000   1.0000000   6.0000000   7.0000000
 Leave Link  101 at Sun Oct 13 09:50:11 2024, MaxMem=  2684354560 cpu:               2.9 elap:               0.1
 (Enter /usr/local/g16_AVX//g16/l103.exe)

 GradGradGradGradGradGradGradGradGradGradGradGradGradGradGradGradGradGrad
 Berny optimization.
 Initialization pass.
 Trust Radius=3.00D-01 FncErr=1.00D-07 GrdErr=1.00D-07 EigMax=2.50D+02 EigMin=1.00D-04
 Number of steps in this run=      2 maximum allowed number of steps=      2.
 GradGradGradGradGradGradGradGradGradGradGradGradGradGradGradGradGradGrad

 Leave Link  103 at Sun Oct 13 09:50:11 2024, MaxMem=  2684354560 cpu:               0.5 elap:               0.0
 (Enter /usr/local/g16_AVX//g16/l202.exe)
                          Input orientation:                          
 ---------------------------------------------------------------------
 Center     Atomic      Atomic             Coordinates (Angstroms)
 Number     Number       Type             X           Y           Z
 ---------------------------------------------------------------------
      1          6           0        0.150159    0.000007   -0.000200
      2         17           0       -2.222988   -0.000002    0.000091
      3          1           0        0.107614    0.002517   -1.075274
      4          1           0        0.107652    0.929840    0.539462
      5          1           0        0.107646   -0.932335    0.535116
      6          6           0        2.273443    0.000005   -0.000235
      7          7           0        3.451147   -0.000007    0.000194
 ---------------------------------------------------------------------
                    Distance matrix (angstroms):
                    1          2          3          4          5
     1  C    0.000000
     2  Cl   2.373147   0.000000
     3  H    1.075918   2.566734   0.000000
     4  H    1.075933   2.566595   1.862069   0.000000
     5  H    1.075933   2.566584   1.862070   1.862180   0.000000
     6  C    2.123284   4.496431   2.417960   2.417957   2.417961
     7  N    3.300988   5.674135   3.512243   3.512034   3.512033
                    6          7
     6  C    0.000000
     7  N    1.177704   0.000000
 Symmetry turned off by external request.
 This structure is nearly, but not quite of a higher symmetry.
 Consider Symm=Loose if the higher symmetry is desired.
 Stoichiometry    C2H3ClN(1-)
 Framework group  C1[X(C2H3ClN)]
 Deg. of freedom    15
 Full point group                 C1      NOp   1
 Rotational constants (GHZ):         144.6181762           1.2519843           1.2519834
 Leave Link  202 at Sun Oct 13 09:50:12 2024, MaxMem=  2684354560 cpu:               0.2 elap:               0.0
 (Enter /usr/local/g16_AVX//g16/l301.exe)
 Standard basis: 6-31++G(d,p) (6D, 7F)
 Ernie: Thresh=  0.10000D-02 Tol=  0.10000D-05 Strict=F.
    98 basis functions,   176 primitive gaussians,    98 cartesian basis functions
    20 alpha electrons       20 beta electrons
       nuclear repulsion energy       107.7477055080 Hartrees.
 IExCor=  402 DFT=T Ex+Corr=B3LYP ExCW=0 ScaHFX=  0.200000
 ScaDFX=  0.800000  0.720000  1.000000  0.810000 ScalE2=  1.000000  1.000000
 IRadAn=      5 IRanWt=     -1 IRanGd=            0 ICorTp=0 IEmpDi=  4
 NAtoms=    7 NActive=    7 NUniq=    7 SFac= 1.00D+00 NAtFMM=   60 NAOKFM=F Big=F
 Integral buffers will be    131072 words long.
 Raffenetti 2 integral format.
 Two-electron integral symmetry is turned off.
 Leave Link  301 at Sun Oct 13 09:50:12 2024, MaxMem=  2684354560 cpu:               1.3 elap:               0.1
 (Enter /usr/local/g16_AVX//g16/l302.exe)
 NPDir=0 NMtPBC=     1 NCelOv=     1 NCel=       1 NClECP=     1 NCelD=      1
         NCelK=      1 NCelE2=     1 NClLst=     1 CellRange=     0.0.
 One-electron integrals computed using PRISM.
 NBasis=    98 RedAO= T EigKep=  8.02D-05  NBF=    98
 NBsUse=    98 1.00D-06 EigRej= -1.00D+00 NBFU=    98
 Precomputing XC quadrature grid using
 IXCGrd= 4 IRadAn=           5 IRanWt=          -1 IRanGd=           0 AccXCQ= 0.00D+00.
 Generated NRdTot=       0 NPtTot=           0 NUsed=           0 NTot=          32
 NSgBfM=    98    98    98    98    98 MxSgAt=     7 MxSgA2=     7.
 Leave Link  302 at Sun Oct 13 09:50:12 2024, MaxMem=  2684354560 cpu:               3.9 elap:               0.2
 (Enter /usr/local/g16_AVX//g16/l303.exe)
 DipDrv:  MaxL=1.
 Leave Link  303 at Sun Oct 13 09:50:12 2024, MaxMem=  2684354560 cpu:               0.7 elap:               0.1
 (Enter /usr/local/g16_AVX//g16/l401.exe)
 ExpMin= 3.60D-02 ExpMax= 2.52D+04 ExpMxC= 3.78D+03 IAcc=3 IRadAn=         5 AccDes= 0.00D+00
 Harris functional with IExCor=  402 and IRadAn=       5 diagonalized for initial guess.
 HarFok:  IExCor=  402 AccDes= 0.00D+00 IRadAn=         5 IDoV= 1 UseB2=F ITyADJ=14
 ICtDFT=  3500011 ScaDFX=  1.000000  1.000000  1.000000  1.000000
 FoFCou: FMM=F IPFlag=           0 FMFlag=      100000 FMFlg1=           0
         NFxFlg=           0 DoJE=T BraDBF=F KetDBF=T FulRan=T
         wScrn=  0.000000 ICntrl=       500 IOpCl=  0 I1Cent=   200000004 NGrid=           0
         NMat0=    1 NMatS0=      1 NMatT0=    0 NMatD0=    1 NMtDS0=    0 NMtDT0=    0
 Symmetry not used in FoFCou.
 Harris En= -593.032233462547    
 JPrj=0 DoOrth=F DoCkMO=F.
 Leave Link  401 at Sun Oct 13 09:50:12 2024, MaxMem=  2684354560 cpu:               5.8 elap:               0.3
 (Enter /usr/local/g16_AVX//g16/l502.exe)
 Keep R1 ints in memory in canonical form, NReq=35752921.
 FoFCou: FMM=F IPFlag=           0 FMFlag=           0 FMFlg1=           0
         NFxFlg=           0 DoJE=F BraDBF=F KetDBF=F FulRan=T
         wScrn=  0.000000 ICntrl=       600 IOpCl=  0 I1Cent=           0 NGrid=           0
         NMat0=    1 NMatS0=   4851 NMatT0=    0 NMatD0=    1 NMtDS0=    0 NMtDT0=    0
 Symmetry not used in FoFCou.
 Two-electron integral symmetry not used.
 Closed shell SCF:
 Using DIIS extrapolation, IDIIS=  1040.
 NGot=  2684354560 LenX=  2672563419 LenY=  2672553374
 Requested convergence on RMS density matrix=1.00D-08 within 128 cycles.
 Requested convergence on MAX density matrix=1.00D-06.
 Requested convergence on             energy=1.00D-06.
 No special actions if energy rises.

 Cycle   1  Pass 1  IDiag  1:
 E= -592.893578347137    
 DIIS: error= 2.77D-02 at cycle   1 NSaved=   1.
 NSaved= 1 IEnMin= 1 EnMin= -592.893578347137     IErMin= 1 ErrMin= 2.77D-02
 ErrMax= 2.77D-02  0.00D+00 EMaxC= 1.00D-01 BMatC= 9.11D-02 BMatP= 9.11D-02
 IDIUse=3 WtCom= 7.23D-01 WtEn= 2.77D-01
 Coeff-Com:  0.100D+01
 Coeff-En:   0.100D+01
 Coeff:      0.100D+01
 Gap=     0.304 Goal=   None    Shift=    0.000
 GapD=    0.304 DampG=1.000 DampE=0.500 DampFc=0.5000 IDamp=-1.
 Damping current iteration by 5.00D-01
 RMSDP=1.19D-02 MaxDP=2.05D-01              OVMax= 2.20D-01

 Cycle   2  Pass 1  IDiag  1:
 E= -592.924058370340     Delta-E=       -0.030480023203 Rises=F Damp=T
 DIIS: error= 1.57D-02 at cycle   2 NSaved=   2.
 NSaved= 2 IEnMin= 2 EnMin= -592.924058370340     IErMin= 2 ErrMin= 1.57D-02
 ErrMax= 1.57D-02  0.00D+00 EMaxC= 1.00D-01 BMatC= 1.59D-02 BMatP= 9.11D-02
 IDIUse=3 WtCom= 8.43D-01 WtEn= 1.57D-01
 Coeff-Com:  0.202D+00 0.798D+00
 Coeff-En:   0.302D+00 0.698D+00
 Coeff:      0.218D+00 0.782D+00
 Gap=     0.249 Goal=   None    Shift=    0.000
 RMSDP=3.48D-03 MaxDP=7.04D-02 DE=-3.05D-02 OVMax= 1.76D-01

 Cycle   3  Pass 1  IDiag  1:
 E= -592.971504412934     Delta-E=       -0.047446042594 Rises=F Damp=F
 DIIS: error= 2.17D-02 at cycle   3 NSaved=   3.
 NSaved= 3 IEnMin= 3 EnMin= -592.971504412934     IErMin= 2 ErrMin= 1.57D-02
 ErrMax= 2.17D-02  0.00D+00 EMaxC= 1.00D-01 BMatC= 2.11D-02 BMatP= 1.59D-02
 IDIUse=2 WtCom= 0.00D+00 WtEn= 1.00D+00
 Coeff-En:   0.000D+00 0.000D+00 0.100D+01
 Coeff:      0.000D+00 0.000D+00 0.100D+01
 Gap=     0.224 Goal=   None    Shift=    0.000
 RMSDP=5.13D-03 MaxDP=8.91D-02 DE=-4.74D-02 OVMax= 1.78D-01

 Cycle   4  Pass 1  IDiag  1:
 E= -592.852470781835     Delta-E=        0.119033631099 Rises=F Damp=F
 DIIS: error= 6.15D-02 at cycle   4 NSaved=   4.
 NSaved= 4 IEnMin= 3 EnMin= -592.971504412934     IErMin= 2 ErrMin= 1.57D-02
 ErrMax= 6.15D-02  0.00D+00 EMaxC= 1.00D-01 BMatC= 1.54D-01 BMatP= 1.59D-02
 IDIUse=2 WtCom= 0.00D+00 WtEn= 1.00D+00
 Coeff-En:   0.000D+00 0.000D+00 0.813D+00 0.187D+00
 Coeff:      0.000D+00 0.000D+00 0.813D+00 0.187D+00
 Gap=     0.216 Goal=   None    Shift=    0.000
 RMSDP=2.55D-03 MaxDP=4.70D-02 DE= 1.19D-01 OVMax= 9.19D-02

 Cycle   5  Pass 1  IDiag  1:
 E= -592.979423470246     Delta-E=       -0.126952688411 Rises=F Damp=F
 DIIS: error= 1.77D-02 at cycle   5 NSaved=   5.
 NSaved= 5 IEnMin= 5 EnMin= -592.979423470246     IErMin= 2 ErrMin= 1.57D-02
 ErrMax= 1.77D-02  0.00D+00 EMaxC= 1.00D-01 BMatC= 1.33D-02 BMatP= 1.59D-02
 IDIUse=3 WtCom= 8.23D-01 WtEn= 1.77D-01
 Coeff-Com:  0.643D-02 0.122D-02 0.359D+00-0.766D-01 0.710D+00
 Coeff-En:   0.000D+00 0.000D+00 0.411D+00 0.000D+00 0.589D+00
 Coeff:      0.529D-02 0.100D-02 0.368D+00-0.631D-01 0.689D+00
 Gap=     0.211 Goal=   None    Shift=    0.000
 RMSDP=1.11D-03 MaxDP=1.95D-02 DE=-1.27D-01 OVMax= 3.87D-02

 Cycle   6  Pass 1  IDiag  1:
 E= -592.991549464443     Delta-E=       -0.012125994197 Rises=F Damp=F
 DIIS: error= 3.16D-04 at cycle   6 NSaved=   6.
 NSaved= 6 IEnMin= 6 EnMin= -592.991549464443     IErMin= 6 ErrMin= 3.16D-04
 ErrMax= 3.16D-04  0.00D+00 EMaxC= 1.00D-01 BMatC= 1.13D-05 BMatP= 1.33D-02
 IDIUse=3 WtCom= 9.97D-01 WtEn= 3.16D-03
 Coeff-Com: -0.818D-03 0.338D-02 0.127D+00-0.411D-01 0.306D+00 0.605D+00
 Coeff-En:   0.000D+00 0.000D+00 0.000D+00 0.000D+00 0.000D+00 0.100D+01
 Coeff:     -0.816D-03 0.337D-02 0.127D+00-0.409D-01 0.305D+00 0.607D+00
 Gap=     0.208 Goal=   None    Shift=    0.000
 RMSDP=5.43D-05 MaxDP=8.04D-04 DE=-1.21D-02 OVMax= 1.25D-03

 Cycle   7  Pass 1  IDiag  1:
 E= -592.991559684451     Delta-E=       -0.000010220007 Rises=F Damp=F
 DIIS: error= 1.17D-04 at cycle   7 NSaved=   7.
 NSaved= 7 IEnMin= 7 EnMin= -592.991559684451     IErMin= 7 ErrMin= 1.17D-04
 ErrMax= 1.17D-04  0.00D+00 EMaxC= 1.00D-01 BMatC= 1.31D-06 BMatP= 1.13D-05
 IDIUse=3 WtCom= 9.99D-01 WtEn= 1.17D-03
 Coeff-Com: -0.862D-03 0.219D-02 0.260D-01-0.135D-01 0.771D-01 0.298D+00
 Coeff-Com:  0.611D+00
 Coeff-En:   0.000D+00 0.000D+00 0.000D+00 0.000D+00 0.000D+00 0.901D-01
 Coeff-En:   0.910D+00
 Coeff:     -0.861D-03 0.219D-02 0.260D-01-0.135D-01 0.770D-01 0.298D+00
 Coeff:      0.611D+00
 Gap=     0.208 Goal=   None    Shift=    0.000
 RMSDP=1.52D-05 MaxDP=3.13D-04 DE=-1.02D-05 OVMax= 5.80D-04

 Cycle   8  Pass 1  IDiag  1:
 E= -592.991561052262     Delta-E=       -0.000001367811 Rises=F Damp=F
 DIIS: error= 1.96D-05 at cycle   8 NSaved=   8.
 NSaved= 8 IEnMin= 8 EnMin= -592.991561052262     IErMin= 8 ErrMin= 1.96D-05
 ErrMax= 1.96D-05  0.00D+00 EMaxC= 1.00D-01 BMatC= 7.47D-08 BMatP= 1.31D-06
 IDIUse=1 WtCom= 1.00D+00 WtEn= 0.00D+00
 Coeff-Com: -0.668D-04-0.105D-03 0.203D-03-0.121D-02 0.335D-02 0.784D-01
 Coeff-Com:  0.281D+00 0.638D+00
 Coeff:     -0.668D-04-0.105D-03 0.203D-03-0.121D-02 0.335D-02 0.784D-01
 Coeff:      0.281D+00 0.638D+00
 Gap=     0.208 Goal=   None    Shift=    0.000
 RMSDP=4.07D-06 MaxDP=9.07D-05 DE=-1.37D-06 OVMax= 9.17D-05

 Cycle   9  Pass 1  IDiag  1:
 E= -592.991561136978     Delta-E=       -0.000000084716 Rises=F Damp=F
 DIIS: error= 2.30D-06 at cycle   9 NSaved=   9.
 NSaved= 9 IEnMin= 9 EnMin= -592.991561136978     IErMin= 9 ErrMin= 2.30D-06
 ErrMax= 2.30D-06  0.00D+00 EMaxC= 1.00D-01 BMatC= 7.68D-10 BMatP= 7.47D-08
 IDIUse=1 WtCom= 1.00D+00 WtEn= 0.00D+00
 Coeff-Com:  0.692D-04-0.194D-03-0.133D-02 0.514D-03-0.333D-02-0.749D-02
 Coeff-Com:  0.108D-01 0.617D-01 0.939D+00
 Coeff:      0.692D-04-0.194D-03-0.133D-02 0.514D-03-0.333D-02-0.749D-02
 Coeff:      0.108D-01 0.617D-01 0.939D+00
 Gap=     0.208 Goal=   None    Shift=    0.000
 RMSDP=1.79D-06 MaxDP=4.13D-05 DE=-8.47D-08 OVMax= 1.28D-05

 Cycle  10  Pass 1  IDiag  1:
 E= -592.991561138009     Delta-E=       -0.000000001031 Rises=F Damp=F
 DIIS: error= 7.78D-07 at cycle  10 NSaved=  10.
 NSaved=10 IEnMin=10 EnMin= -592.991561138009     IErMin=10 ErrMin= 7.78D-07
 ErrMax= 7.78D-07  0.00D+00 EMaxC= 1.00D-01 BMatC= 4.59D-11 BMatP= 7.68D-10
 IDIUse=1 WtCom= 1.00D+00 WtEn= 0.00D+00
 Coeff-Com:  0.106D-04-0.256D-04-0.298D-03 0.993D-04-0.658D-03-0.261D-02
 Coeff-Com: -0.197D-02 0.866D-02 0.210D+00 0.787D+00
 Coeff:      0.106D-04-0.256D-04-0.298D-03 0.993D-04-0.658D-03-0.261D-02
 Coeff:     -0.197D-02 0.866D-02 0.210D+00 0.787D+00
 Gap=     0.208 Goal=   None    Shift=    0.000
 RMSDP=1.23D-07 MaxDP=2.41D-06 DE=-1.03D-09 OVMax= 3.00D-06

 Cycle  11  Pass 1  IDiag  1:
 E= -592.991561138057     Delta-E=       -0.000000000047 Rises=F Damp=F
 DIIS: error= 2.00D-07 at cycle  11 NSaved=  11.
 NSaved=11 IEnMin=11 EnMin= -592.991561138057     IErMin=11 ErrMin= 2.00D-07
 ErrMax= 2.00D-07  0.00D+00 EMaxC= 1.00D-01 BMatC= 2.55D-12 BMatP= 4.59D-11
 IDIUse=1 WtCom= 1.00D+00 WtEn= 0.00D+00
 Coeff-Com: -0.204D-05 0.530D-05-0.109D-04 0.415D-05-0.106D-04-0.186D-03
 Coeff-Com: -0.126D-02-0.946D-03-0.131D-02 0.207D+00 0.797D+00
 Coeff:     -0.204D-05 0.530D-05-0.109D-04 0.415D-05-0.106D-04-0.186D-03
 Coeff:     -0.126D-02-0.946D-03-0.131D-02 0.207D+00 0.797D+00
 Gap=     0.208 Goal=   None    Shift=    0.000
 RMSDP=4.50D-08 MaxDP=1.09D-06 DE=-4.73D-11 OVMax= 3.70D-07

 Cycle  12  Pass 1  IDiag  1:
 E= -592.991561138059     Delta-E=       -0.000000000002 Rises=F Damp=F
 DIIS: error= 2.83D-08 at cycle  12 NSaved=  12.
 NSaved=12 IEnMin=12 EnMin= -592.991561138059     IErMin=12 ErrMin= 2.83D-08
 ErrMax= 2.83D-08  0.00D+00 EMaxC= 1.00D-01 BMatC= 3.68D-14 BMatP= 2.55D-12
 IDIUse=1 WtCom= 1.00D+00 WtEn= 0.00D+00
 Coeff-Com: -0.494D-06 0.966D-06 0.131D-05-0.524D-06 0.437D-05 0.991D-05
 Coeff-Com: -0.831D-05-0.265D-03-0.204D-02 0.494D-02 0.400D-01 0.957D+00
 Coeff:     -0.494D-06 0.966D-06 0.131D-05-0.524D-06 0.437D-05 0.991D-05
 Coeff:     -0.831D-05-0.265D-03-0.204D-02 0.494D-02 0.400D-01 0.957D+00
 Gap=     0.208 Goal=   None    Shift=    0.000
 RMSDP=3.53D-09 MaxDP=9.00D-08 DE=-1.82D-12 OVMax= 7.07D-08

 SCF Done:  E(RB3LYP) =  -592.991561138     A.U. after   12 cycles
            NFock= 12  Conv=0.35D-08     -V/T= 2.0048
 KE= 5.901566689986D+02 PE=-1.625768570775D+03 EE= 3.348726351302D+02
 Leave Link  502 at Sun Oct 13 09:50:14 2024, MaxMem=  2684354560 cpu:              35.6 elap:               1.6
 (Enter /usr/local/g16_AVX//g16/l801.exe)
 DoSCS=F DFT=T ScalE2(SS,OS)=  1.000000  1.000000
 Range of M.O.s used for correlation:     1    98
 NBasis=    98 NAE=    20 NBE=    20 NFC=     0 NFV=     0
 NROrb=     98 NOA=    20 NOB=    20 NVA=    78 NVB=    78

 **** Warning!!: The largest alpha MO coefficient is  0.47253188D+02

 Leave Link  801 at Sun Oct 13 09:50:14 2024, MaxMem=  2684354560 cpu:               0.7 elap:               0.1
 (Enter /usr/local/g16_AVX//g16/l1101.exe)
 Using compressed storage, NAtomX=     7.
 Will process      8 centers per pass.
 Leave Link 1101 at Sun Oct 13 09:50:14 2024, MaxMem=  2684354560 cpu:               3.5 elap:               0.2
 (Enter /usr/local/g16_AVX//g16/l1102.exe)
 Symmetrizing basis deriv contribution to polar:
 IMax=3 JMax=2 DiffMx= 0.00D+00
 Leave Link 1102 at Sun Oct 13 09:50:14 2024, MaxMem=  2684354560 cpu:               0.7 elap:               0.1
 (Enter /usr/local/g16_AVX//g16/l1110.exe)
 Forming Gx(P) for the SCF density, NAtomX=     7.
 Integral derivatives from FoFJK, PRISM(SPDF).
 Do as many integral derivatives as possible in FoFJK.
 G2DrvN: MDV=    2684353878.
 G2DrvN: will do     8 centers at a time, making    1 passes.
 Calling FoFCou, ICntrl=  3107 FMM=F I1Cent=   0 AccDes= 0.00D+00.
 FoFJK:  IHMeth= 1 ICntrl=    3107 DoSepK=F KAlg= 0 I1Cent=           0 FoldK=F
 IRaf=         0 NMat=       1 IRICut=       1 DoRegI=T DoRafI=F ISym2E= 0 IDoP0=0 IntGTp=1.
 FoFCou: FMM=F IPFlag=           0 FMFlag=      100000 FMFlg1=           0
         NFxFlg=           0 DoJE=F BraDBF=F KetDBF=F FulRan=T
         wScrn=  0.000000 ICntrl=      3107 IOpCl=  0 I1Cent=           0 NGrid=           0
         NMat0=    1 NMatS0=      1 NMatT0=    0 NMatD0=    1 NMtDS0=    0 NMtDT0=    0
 Symmetry not used in FoFCou.
 End of G2Drv F.D. properties file   721 does not exist.
 End of G2Drv F.D. properties file   722 does not exist.
 End of G2Drv F.D. properties file   788 does not exist.
 Leave Link 1110 at Sun Oct 13 09:50:16 2024, MaxMem=  2684354560 cpu:              39.0 elap:               1.5
 (Enter /usr/local/g16_AVX//g16/l1002.exe)
 Minotr:  Closed shell wavefunction.
          IDoAtm=1111111
          Direct CPHF calculation.
          Differentiating once with respect to electric field.
                with respect to dipole field.
          Differentiating once with respect to nuclear coordinates.
          Requested convergence is 1.0D-08 RMS, and 1.0D-07 maximum.
          Secondary convergence is 1.0D-12 RMS, and 1.0D-12 maximum.
          NewPWx=T KeepS1=F KeepF1=F KeepIn=T MapXYZ=F SortEE=F KeepMc=T.
         2129 words used for storage of precomputed grid.
 Keep R1 ints in memory in canonical form, NReq=35668376.
 FoFCou: FMM=F IPFlag=           0 FMFlag=           0 FMFlg1=           0
         NFxFlg=           0 DoJE=F BraDBF=F KetDBF=F FulRan=T
         wScrn=  0.000000 ICntrl=       600 IOpCl=  0 I1Cent=           0 NGrid=           0
         NMat0=    1 NMatS0=   4851 NMatT0=    0 NMatD0=    1 NMtDS0=    0 NMtDT0=    0
 Symmetry not used in FoFCou.
 Two-electron integral symmetry not used.
          MDV=    2684354560 using IRadAn=       1.
          Solving linear equations simultaneously, MaxMat=       0.
          There are    24 degrees of freedom in the 1st order CPHF.  IDoFFX=6 NUNeed=     3.
     21 vectors produced by pass  0 Test12= 6.50D-15 4.17D-09 XBig12= 1.50D+02 9.02D+00.
 AX will form    21 AO Fock derivatives at one time.
     21 vectors produced by pass  1 Test12= 6.50D-15 4.17D-09 XBig12= 4.77D+01 2.47D+00.
     21 vectors produced by pass  2 Test12= 6.50D-15 4.17D-09 XBig12= 2.26D+00 4.41D-01.
     21 vectors produced by pass  3 Test12= 6.50D-15 4.17D-09 XBig12= 1.82D-02 2.66D-02.
     21 vectors produced by pass  4 Test12= 6.50D-15 4.17D-09 XBig12= 6.29D-05 1.67D-03.
     16 vectors produced by pass  5 Test12= 6.50D-15 4.17D-09 XBig12= 1.23D-07 7.36D-05.
      6 vectors produced by pass  6 Test12= 6.50D-15 4.17D-09 XBig12= 1.37D-10 2.63D-06.
      1 vectors produced by pass  7 Test12= 6.50D-15 4.17D-09 XBig12= 1.95D-13 1.12D-07.
 InvSVY:  IOpt=1 It=  1 EMax= 7.11D-15
 Solved reduced A of dimension   128 with    24 vectors.
 FullF1:  Do perturbations      1 to       3.
 Isotropic polarizability for W=    0.000000       67.75 Bohr**3.
 End of Minotr F.D. properties file   721 does not exist.
 End of Minotr F.D. properties file   722 does not exist.
 End of Minotr F.D. properties file   788 does not exist.
 Leave Link 1002 at Sun Oct 13 09:50:18 2024, MaxMem=  2684354560 cpu:              55.8 elap:               2.2
 (Enter /usr/local/g16_AVX//g16/l601.exe)
 Copying SCF densities to generalized density rwf, IOpCl= 0 IROHF=0.

 **********************************************************************

            Population analysis using the SCF Density.

 **********************************************************************

 Alpha  occ. eigenvalues -- -101.30948 -14.16411 -10.11557 -10.04328  -9.22411
 Alpha  occ. eigenvalues --   -6.98376  -6.98074  -6.98074  -0.71789  -0.59613
 Alpha  occ. eigenvalues --   -0.54047  -0.30999  -0.30998  -0.26292  -0.18403
 Alpha  occ. eigenvalues --   -0.16277  -0.16277  -0.10209  -0.10209  -0.09809
 Alpha virt. eigenvalues --    0.10993   0.13351   0.14818   0.14818   0.15577
 Alpha virt. eigenvalues --    0.18921   0.18922   0.19625   0.22406   0.22406
 Alpha virt. eigenvalues --    0.23710   0.23711   0.24510   0.25536   0.25536
 Alpha virt. eigenvalues --    0.25585   0.30821   0.34127   0.34128   0.35909
 Alpha virt. eigenvalues --    0.35909   0.36282   0.38842   0.44499   0.46438
 Alpha virt. eigenvalues --    0.75130   0.79578   0.79580   0.79925   0.80262
 Alpha virt. eigenvalues --    0.80262   0.85763   0.85763   0.90367   0.94272
 Alpha virt. eigenvalues --    0.98788   1.05695   1.05696   1.10628   1.10628
 Alpha virt. eigenvalues --    1.11741   1.11741   1.13724   1.15364   1.15366
 Alpha virt. eigenvalues --    1.24093   1.28366   1.41797   1.51323   1.60469
 Alpha virt. eigenvalues --    1.60471   1.71179   1.71179   1.73796   1.73797
 Alpha virt. eigenvalues --    1.81896   2.12053   2.12486   2.12496   2.13488
 Alpha virt. eigenvalues --    2.13490   2.16161   2.54595   2.66432   2.66436
 Alpha virt. eigenvalues --    2.78592   2.78594   2.84698   2.86753   2.86763
 Alpha virt. eigenvalues --    3.22747   3.46369   3.59101   3.59111   4.17936
 Alpha virt. eigenvalues --    4.43220   4.52934   4.61298
          Condensed to atoms (all electrons):
               1          2          3          4          5          6
     1  C    5.333903  -0.121763   0.432716   0.432730   0.432730  -0.177788
     2  Cl  -0.121763  17.844351  -0.044644  -0.044662  -0.044663   0.078817
     3  H    0.432716  -0.044644   0.490361  -0.018559  -0.018559  -0.055280
     4  H    0.432730  -0.044662  -0.018559   0.490335  -0.018547  -0.055252
     5  H    0.432730  -0.044663  -0.018559  -0.018547   0.490334  -0.055251
     6  C   -0.177788   0.078817  -0.055280  -0.055252  -0.055251   5.696307
     7  N   -0.043173  -0.000209  -0.003097  -0.003104  -0.003104   0.697918
               7
     1  C   -0.043173
     2  Cl  -0.000209
     3  H   -0.003097
     4  H   -0.003104
     5  H   -0.003104
     6  C    0.697918
     7  N    6.919895
 Mulliken charges:
               1
     1  C   -0.289356
     2  Cl  -0.667227
     3  H    0.217063
     4  H    0.217059
     5  H    0.217060
     6  C   -0.129472
     7  N   -0.565128
 Sum of Mulliken charges =  -1.00000
 Mulliken charges with hydrogens summed into heavy atoms:
               1
     1  C    0.361827
     2  Cl  -0.667227
     6  C   -0.129472
     7  N   -0.565128
 APT charges:
               1
     1  C    1.225109
     2  Cl  -1.075540
     3  H   -0.017171
     4  H   -0.017165
     5  H   -0.017165
     6  C   -0.493345
     7  N   -0.604723
 Sum of APT charges =  -1.00000
 APT charges with hydrogens summed into heavy atoms:
               1
     1  C    1.173608
     2  Cl  -1.075540
     6  C   -0.493345
     7  N   -0.604723
 Electronic spatial extent (au):  <R**2>=            838.6272
 Charge=             -1.0000 electrons
 Dipole moment (field-independent basis, Debye):
    X=             -1.1456    Y=              0.0000    Z=             -0.0007  Tot=              1.1456
 Quadrupole moment (field-independent basis, Debye-Ang):
   XX=            -87.0995   YY=            -35.2451   ZZ=            -35.2456
   XY=              0.0000   XZ=             -0.0006   YZ=             -0.0000
 Traceless Quadrupole moment (field-independent basis, Debye-Ang):
   XX=            -34.5694   YY=             17.2850   ZZ=             17.2845
   XY=              0.0000   XZ=             -0.0006   YZ=             -0.0000
 Octapole moment (field-independent basis, Debye-Ang**2):
  XXX=            -85.6885  YYY=             -0.0076  ZZZ=             -1.0916  XYY=             -2.9944
  XXY=              0.0002  XXZ=             -0.0069  XZZ=             -2.9945  YZZ=              0.0076
  YYZ=              1.0923  XYZ=              0.0000
 Hexadecapole moment (field-independent basis, Debye-Ang**3):
 XXXX=          -1702.8196 YYYY=            -55.6369 ZZZZ=            -55.6362 XXXY=              0.0009
 XXXZ=             -0.0169 YYYX=             -0.0006 YYYZ=              0.0000 ZZZX=             -0.0859
 ZZZY=             -0.0000 XXYY=           -213.2185 XXZZ=           -213.2183 YYZZ=            -18.5462
 XXYZ=              0.0000 YYXZ=              0.0962 ZZXY=              0.0007
 N-N= 1.077477055080D+02 E-N=-1.625768569603D+03  KE= 5.901566689986D+02
  Exact polarizability: 125.133  -0.000  39.064   0.000  -0.000  39.064
 Approx polarizability: 160.806  -0.000  48.751   0.002  -0.000  48.750
 No NMR shielding tensors so no spin-rotation constants.
 Leave Link  601 at Sun Oct 13 09:50:18 2024, MaxMem=  2684354560 cpu:               2.6 elap:               0.1
 (Enter /usr/local/g16_AVX//g16/l701.exe)
 ... and contract with generalized density number  0.
 Compute integral second derivatives.
 Leave Link  701 at Sun Oct 13 09:50:18 2024, MaxMem=  2684354560 cpu:               4.5 elap:               0.2
 (Enter /usr/local/g16_AVX//g16/l702.exe)
 L702 exits ... SP integral derivatives will be done elsewhere.
 Leave Link  702 at Sun Oct 13 09:50:18 2024, MaxMem=  2684354560 cpu:               0.5 elap:               0.0
 (Enter /usr/local/g16_AVX//g16/l703.exe)
 Integral derivatives from FoFJK, PRISM(SPDF).
 Compute integral second derivatives, UseDBF=F ICtDFT=           0.
 Calling FoFJK, ICntrl=    100127 FMM=F ISym2X=0 I1Cent= 0 IOpClX= 0 NMat=1 NMatS=1 NMatT=0.
 FoFJK:  IHMeth= 1 ICntrl=  100127 DoSepK=F KAlg= 0 I1Cent=           0 FoldK=F
 IRaf=         0 NMat=       1 IRICut=       1 DoRegI=T DoRafI=F ISym2E= 0 IDoP0=0 IntGTp=1.
 FoFCou: FMM=F IPFlag=           0 FMFlag=      100000 FMFlg1=         800
         NFxFlg=           0 DoJE=F BraDBF=F KetDBF=F FulRan=T
         wScrn=  0.000000 ICntrl=    100127 IOpCl=  0 I1Cent=           0 NGrid=           0
         NMat0=    1 NMatS0=      1 NMatT0=    0 NMatD0=    1 NMtDS0=    0 NMtDT0=    0
 Symmetry not used in FoFCou.
 Leave Link  703 at Sun Oct 13 09:50:21 2024, MaxMem=  2684354560 cpu:              67.5 elap:               2.6
 (Enter /usr/local/g16_AVX//g16/l716.exe)
 Dipole        =-4.50723511D-01 9.68364384D-06-2.94263075D-04
 Polarizability= 1.25133479D+02-1.25617664D-05 3.90637333D+01
                 4.42546772D-04-6.44955515D-06 3.90639305D+01
 Full mass-weighted force constant matrix:
 Low frequencies --- -490.4137  -15.1535  -15.1101   -0.0041    0.0025    0.0030
 Low frequencies ---  122.7042  136.2763  136.2833
 ******    1 imaginary frequencies (negative Signs) ****** 
 Diagonal vibrational polarizability:
      146.6553179      22.4638285      22.4603013
 Harmonic frequencies (cm**-1), IR intensities (KM/Mole), Raman scattering
 activities (A**4/AMU), depolarization ratios for plane and unpolarized
 incident light, reduced masses (AMU), force constants (mDyne/A),
 and normal coordinates:
                      1                      2                      3
                      A                      A                      A
 Frequencies --   -490.4137               132.9437               132.9533
 Red. masses --     12.3614                 6.4814                 6.4816
 Frc consts  --      1.7516                 0.0675                 0.0675
 IR Inten    --   1234.4953                13.8071                13.8066
  Atom  AN      X      Y      Z        X      Y      Z        X      Y      Z
     1   6     0.91   0.00  -0.00    -0.00   0.43   0.05    -0.00  -0.05   0.43
     2  17    -0.10  -0.00   0.00    -0.00  -0.13  -0.01    -0.00   0.01  -0.13
     3   1     0.00  -0.00   0.03     0.01   0.43   0.05     0.09  -0.05   0.43
     4   1     0.00  -0.02  -0.01    -0.08   0.43   0.04    -0.04  -0.05   0.43
     5   1     0.00   0.02  -0.01     0.07   0.43   0.05    -0.05  -0.05   0.43
     6   6    -0.29  -0.00   0.00     0.00   0.29   0.03    -0.00  -0.03   0.29
     7   7    -0.28   0.00  -0.00     0.00  -0.39  -0.04     0.00   0.04  -0.39
                      4                      5                      6
                      A                      A                      A
 Frequencies --    230.7650               329.4262               329.4390
 Red. masses --     18.5240                 5.6017                 5.6022
 Frc consts  --      0.5812                 0.3582                 0.3582
 IR Inten    --     12.7763                 5.5392                 5.5393
  Atom  AN      X      Y      Z        X      Y      Z        X      Y      Z
     1   6    -0.23  -0.00   0.00    -0.00  -0.03  -0.37     0.00  -0.37   0.03
     2  17     0.51   0.00  -0.00     0.00   0.00   0.06    -0.00   0.06  -0.00
     3   1    -0.08  -0.00  -0.00     0.28  -0.03  -0.39    -0.02  -0.40   0.03
     4   1    -0.08   0.00   0.00    -0.16  -0.03  -0.40    -0.23  -0.40   0.03
     5   1    -0.08  -0.00   0.00    -0.12  -0.03  -0.40     0.26  -0.40   0.03
     6   6    -0.57   0.00  -0.00    -0.00   0.04   0.49     0.00   0.49  -0.04
     7   7    -0.58  -0.00  -0.00     0.00  -0.01  -0.17    -0.00  -0.17   0.01
                      7                      8                      9
                      A                      A                      A
 Frequencies --    990.2019               990.2805              1049.1795
 Red. masses --      1.0391                 1.0391                 1.0490
 Frc consts  --      0.6003                 0.6004                 0.6804
 IR Inten    --      0.0531                 0.0530                84.2467
  Atom  AN      X      Y      Z        X      Y      Z        X      Y      Z
     1   6    -0.00   0.00   0.03     0.00   0.03  -0.00    -0.03   0.00  -0.00
     2  17    -0.00   0.00   0.01     0.00   0.01  -0.00    -0.02   0.00  -0.00
     3   1     0.81  -0.00  -0.00    -0.02  -0.05   0.00     0.58   0.00  -0.02
     4   1    -0.42   0.02  -0.04    -0.69  -0.02   0.02     0.58   0.02   0.01
     5   1    -0.39  -0.02  -0.04     0.72  -0.01  -0.02     0.58  -0.02   0.01
     6   6     0.00  -0.00  -0.04     0.00  -0.04   0.00    -0.02  -0.00   0.00
     7   7    -0.00   0.00   0.01     0.00   0.01  -0.00    -0.03   0.00  -0.00
                     10                     11                     12
                      A                      A                      A
 Frequencies --   1405.1619              1405.1842              2167.8035
 Red. masses --      1.1021                 1.1021                12.6733
 Frc consts  --      1.2821                 1.2821                35.0897
 IR Inten    --      4.3555                 4.3548                 0.6779
  Atom  AN      X      Y      Z        X      Y      Z        X      Y      Z
     1   6    -0.00  -0.00  -0.09     0.00  -0.09   0.00     0.01   0.00  -0.00
     2  17     0.00   0.00   0.00    -0.00   0.00  -0.00    -0.00  -0.00   0.00
     3   1     0.07   0.04  -0.08    -0.00   0.80   0.01    -0.07  -0.00   0.01
     4   1    -0.04  -0.38   0.56    -0.06   0.16  -0.41    -0.07  -0.01  -0.00
     5   1    -0.03   0.39   0.60     0.06   0.12   0.35    -0.07   0.01  -0.00
     6   6     0.00  -0.00  -0.00     0.00  -0.00   0.00     0.76  -0.00   0.00
     7   7    -0.00  -0.00  -0.00     0.00  -0.00   0.00    -0.64   0.00  -0.00
                     13                     14                     15
                      A                      A                      A
 Frequencies --   3191.4257              3389.2310              3389.2941
 Red. masses --      1.0081                 1.1239                 1.1239
 Frc consts  --      6.0494                 7.6065                 7.6067
 IR Inten    --      0.8599                 2.7156                 2.7113
  Atom  AN      X      Y      Z        X      Y      Z        X      Y      Z
     1   6    -0.00  -0.00   0.00    -0.00  -0.10   0.00    -0.00  -0.00  -0.10
     2  17    -0.00  -0.00  -0.00     0.00   0.00  -0.00    -0.00   0.00   0.00
     3   1     0.02  -0.00   0.58    -0.00  -0.01  -0.01     0.03  -0.00   0.81
     4   1     0.02  -0.50  -0.29    -0.03   0.60   0.36    -0.02   0.36   0.20
     5   1     0.02   0.50  -0.29     0.03   0.61  -0.36    -0.02  -0.35   0.19
     6   6    -0.00   0.00  -0.00     0.00   0.00  -0.00     0.00   0.00   0.00
     7   7     0.00  -0.00   0.00    -0.00  -0.00   0.00     0.00  -0.00  -0.00

 -------------------
 - Thermochemistry -
 -------------------
 Temperature   298.150 Kelvin.  Pressure   1.00000 Atm.
 Atom     1 has atomic number  6 and mass  12.00000
 Atom     2 has atomic number 17 and mass  34.96885
 Atom     3 has atomic number  1 and mass   1.00783
 Atom     4 has atomic number  1 and mass   1.00783
 Atom     5 has atomic number  1 and mass   1.00783
 Atom     6 has atomic number  6 and mass  12.00000
 Atom     7 has atomic number  7 and mass  14.00307
 Molecular mass:    75.99540 amu.
 Principal axes and moments of inertia in atomic units:
                           1         2         3
     Eigenvalues --    12.479351441.504701441.50568
           X            1.00000   0.00000   0.00001
           Y           -0.00000   1.00000   0.00202
           Z           -0.00001  -0.00202   1.00000
 This molecule is an asymmetric top.
 Rotational symmetry number  1.
 Rotational temperatures (Kelvin)      6.94058     0.06009     0.06009
 Rotational constants (GHZ):         144.61818     1.25198     1.25198
    1 imaginary frequencies ignored.
 Zero-point vibrational energy     114442.5 (Joules/Mol)
                                   27.35241 (Kcal/Mol)
 Warning -- explicit consideration of   5 degrees of freedom as
           vibrations may cause significant error
 Vibrational temperatures:    191.28   191.29   332.02   473.97   473.99
          (Kelvin)           1424.68  1424.79  1509.54  2021.71  2021.75
                             3118.99  4591.75  4876.35  4876.44
 
 Zero-point correction=                           0.043589 (Hartree/Particle)
 Thermal correction to Energy=                    0.049173
 Thermal correction to Enthalpy=                  0.050118
 Thermal correction to Gibbs Free Energy=         0.014874
 Sum of electronic and zero-point Energies=           -592.947972
 Sum of electronic and thermal Energies=              -592.942388
 Sum of electronic and thermal Enthalpies=            -592.941443
 Sum of electronic and thermal Free Energies=         -592.976687
 
                     E (Thermal)             CV                S
                      KCal/Mol        Cal/Mol-Kelvin    Cal/Mol-Kelvin
 Total                   30.857             16.147             74.176
 Electronic               0.000              0.000              0.000
 Translational            0.889              2.981             38.900
 Rotational               0.889              2.981             24.765
 Vibrational             29.079             10.185             10.512
 Vibration     1          0.613              1.920              2.903
 Vibration     2          0.613              1.920              2.903
 Vibration     3          0.652              1.794              1.873
 Vibration     4          0.712              1.617              1.263
 Vibration     5          0.712              1.617              1.263
                       Q            Log10(Q)             Ln(Q)
 Total Bot       0.143995D-06         -6.841652        -15.753485
 Total V=0       0.161364D+14         13.207805         30.412096
 Vib (Bot)       0.959302D-19        -19.018044        -43.790666
 Vib (Bot)    1  0.153233D+01          0.185351          0.426787
 Vib (Bot)    2  0.153221D+01          0.185319          0.426712
 Vib (Bot)    3  0.853215D+00         -0.068941         -0.158744
 Vib (Bot)    4  0.567386D+00         -0.246121         -0.566715
 Vib (Bot)    5  0.567360D+00         -0.246141         -0.566762
 Vib (V=0)       0.107501D+02          1.031413          2.374916
 Vib (V=0)    1  0.211184D+01          0.324661          0.747559
 Vib (V=0)    2  0.211173D+01          0.324638          0.747507
 Vib (V=0)    3  0.148893D+01          0.172873          0.398056
 Vib (V=0)    4  0.125626D+01          0.099079          0.228138
 Vib (V=0)    5  0.125624D+01          0.099072          0.228122
 Electronic      0.100000D+01          0.000000          0.000000
 Translational   0.260396D+08          7.415635         17.075130
 Rotational      0.576445D+05          4.760758         10.962050
 
                                                      RxCoord=-0.99975 DE=51.97
                                                             IR Spectrum
 
      3      3                                     2                            1            1                                       
      3      1                                     1                            4            0 9                        3   2   1    
      8      9                                     6                            0            4 9                        2   3   3    
      9      1                                     8                            5            9 0                        9   1   3    
 
      X      X                                     X                            X            X X                        X   X   X    
                                                                                X            X                          X   X   X    
                                                                                             X                          X   X   X    
                                                                                             X                                  X    
                                                                                             X                                  X    
                                                                                             X                                  X    
                                                                                             X                                  X    
                                                                                             X                                       
                                                                                             X                                       
                                                                                             X                                       
                                                                                             X                                       
                                                                                             X                                       
                                                                                             X                                       
                                                                                             X                                       
                                                                                             X                                       
                                                                                             X                                       
                                                                                             X                                       
                                                                                             X                                       
                                                                                             X                                       
                                                                                             X                                       
 
 -------------------------------------------------------------------
 Center     Atomic                   Forces (Hartrees/Bohr)
 Number     Number              X              Y              Z
 -------------------------------------------------------------------
      1        6           0.027900682   -0.000000277   -0.000001450
      2       17          -0.010814180    0.000000121    0.000000941
      3        1          -0.000055739   -0.000002739    0.001155302
      4        1          -0.000050209   -0.001016432   -0.000580816
      5        1          -0.000049629    0.001019421   -0.000576272
      6        6          -0.007383466   -0.000000277    0.000008934
      7        7          -0.009547459    0.000000183   -0.000006640
 -------------------------------------------------------------------
 Cartesian Forces:  Max     0.027900682 RMS     0.007054714
 Z-matrix is all fixed cartesians, so copy forces.
 Force constants in Cartesian coordinates: 
                1             2             3             4             5 
      1 -0.814160D-01
      2  0.000000D+00  0.692286D+00
      3  0.289844D-04  0.000000D+00  0.692255D+00
      4  0.313114D-01  0.000000D+00 -0.325368D-05  0.452651D-01
      5  0.000000D+00 -0.111885D-01  0.000000D+00  0.000000D+00  0.423438D-02
      6 -0.969793D-05  0.000000D+00 -0.111873D-01  0.323173D-05  0.000000D+00
      7 -0.776138D-02  0.280348D-04 -0.120173D-01 -0.161514D-01 -0.151927D-04
      8  0.285594D-04 -0.536772D-01  0.767429D-03  0.439363D-05  0.384533D-04
      9 -0.122905D-01  0.767333D-03 -0.382302D+00 -0.192071D-02 -0.588229D-05
     10 -0.775373D-02  0.103848D-01  0.602408D-02 -0.161608D-01 -0.555161D-02
     11  0.106193D-01 -0.299480D+00 -0.142662D+00  0.165927D-02  0.195838D-02
     12  0.616324D-02 -0.142657D+00 -0.136481D+00  0.962958D-03  0.111563D-02
     13 -0.775367D-02 -0.104141D-01  0.597665D-02 -0.161614D-01  0.556682D-02
     14 -0.106493D-01 -0.300807D+00  0.141895D+00 -0.166345D-02  0.196838D-02
     15  0.611465D-02  0.141890D+00 -0.135153D+00  0.955242D-03 -0.110950D-02
     16  0.455910D-01  0.000000D+00 -0.221055D-05 -0.192860D-01  0.000000D+00
     17  0.000000D+00 -0.338052D-01  0.000000D+00  0.000000D+00  0.363495D-02
     18 -0.232994D-04  0.000000D+00 -0.338054D-01  0.812145D-05  0.000000D+00
     19  0.277823D-01  0.000000D+00 -0.693906D-05 -0.881689D-02  0.000000D+00
     20  0.000000D+00  0.667217D-02  0.000000D+00  0.000000D+00 -0.646012D-03
     21  0.166676D-04  0.000000D+00  0.667275D-02 -0.559468D-05  0.000000D+00
                6             7             8             9            10 
      6  0.423563D-02
      7  0.641829D-02  0.384783D-01
      8 -0.582035D-05 -0.325241D-04  0.451931D-01
      9  0.260223D-02  0.140373D-01 -0.801914D-03  0.388574D+00
     10 -0.322100D-02  0.122899D-02 -0.194544D-02 -0.307194D-03  0.384819D-01
     11  0.111555D-02 -0.714648D-03  0.463363D-02  0.412590D-02 -0.121298D-01
     12  0.685559D-03  0.183409D-02 -0.230879D-01 -0.643199D-02 -0.704053D-02
     13 -0.319511D-02  0.122890D-02  0.194675D-02 -0.298086D-03  0.122638D-02
     14 -0.110947D-02  0.706050D-03  0.454487D-02 -0.407464D-02 -0.123092D-02
     15  0.675086D-03  0.183743D-02  0.231389D-01 -0.634310D-02 -0.153497D-02
     16  0.278758D-05 -0.144257D-01  0.000000D+00 -0.163065D-03 -0.144268D-01
     17  0.000000D+00  0.327335D-04 -0.104124D-02 -0.144825D-04  0.121398D-01
     18  0.363481D-02 -0.140357D-01 -0.144322D-04  0.517287D-02  0.704903D-02
     19  0.150273D-05 -0.259765D-02 -0.218309D-05  0.942272D-03 -0.259585D-02
     20  0.000000D+00 -0.445367D-05  0.308436D-03  0.367691D-05 -0.166689D-02
     21 -0.645993D-03  0.192591D-02  0.368441D-05 -0.127244D-02 -0.969414D-03
               11            12            13            14            15 
     11  0.302025D+00
     12  0.149065D+00  0.131715D+00
     13  0.123806D-02 -0.152920D-02  0.384824D-01
     14 -0.118693D-01  0.135535D-01  0.121635D-01  0.303412D+00
     15 -0.136559D-01  0.100778D-01 -0.698494D-02 -0.148263D+00  0.130327D+00
     16  0.141998D-03  0.821450D-04 -0.144268D-01 -0.142261D-03  0.814721D-04
     17  0.360689D-02  0.269746D-02 -0.121726D-01  0.363209D-02 -0.268294D-02
     18  0.269811D-02  0.525132D-03  0.699228D-02 -0.268367D-02  0.499993D-03
     19 -0.814174D-03 -0.472705D-03 -0.259578D-02  0.816380D-03 -0.468893D-03
     20 -0.874193D-03 -0.686348D-03  0.167146D-02 -0.880616D-03  0.682666D-03
     21 -0.686758D-03 -0.904952D-04 -0.961604D-03  0.683068D-03 -0.840999D-04
               16            17            18            19            20 
     16  0.116262D+01
     17 -0.115475D-04  0.371046D-01
     18  0.409544D-03  0.000000D+00  0.371049D-01
     19 -0.114564D+01  0.112116D-04 -0.399951D-03  0.113447D+01
     20  0.114996D-04 -0.131321D-01  0.000000D+00 -0.113332D-04  0.855231D-02
     21 -0.410673D-03  0.000000D+00 -0.131323D-01  0.404713D-03  0.000000D+00
               21 
     21  0.855259D-02
 Leave Link  716 at Sun Oct 13 09:50:21 2024, MaxMem=  2684354560 cpu:               0.8 elap:               0.1
 (Enter /usr/local/g16_AVX//g16/l103.exe)

 GradGradGradGradGradGradGradGradGradGradGradGradGradGradGradGradGradGrad
 Berny optimization.
 Search for a local minimum.
 Step number   1 out of a maximum of    2
 All quantities printed in internal units (Hartrees-Bohrs-Radians)
 Second derivative matrix not updated -- analytic derivatives used.
 ITU=  0
     Eigenvalues ---   -0.11493   0.00526   0.00526   0.02457   0.02458
     Eigenvalues ---    0.04274   0.05835   0.05836   0.06209   0.10755
     Eigenvalues ---    0.10756   0.38930   1.00395   1.00397   2.29352
 Eigenvalue     1 is  -1.15D-01 should be greater than     0.000000 Eigenvector:
                          X1        X6        X7        X2        Z3
   1                    0.89911  -0.27887  -0.27455  -0.19250   0.02162
                          Y5        Y4        Z4        Z5        X3
   1                    0.01878  -0.01872  -0.01089  -0.01080   0.00033
 Angle between quadratic step and forces=  11.11 degrees.
 Linear search not attempted -- first point.
 B after Tr=    -0.011625    0.000005   -0.000059
         Rot=    1.000000    0.000000    0.000004    0.000000 Ang=   0.00 deg.
 Variable       Old X    -DE/DX   Delta X   Delta X   Delta X     New X
                                 (Linear)    (Quad)   (Total)
    X1        0.28376   0.02790   0.00000   0.26092   0.24929   0.53305
    Y1        0.00001  -0.00000   0.00000  -0.00001  -0.00001   0.00001
    Z1       -0.00038  -0.00000   0.00000   0.00007   0.00002  -0.00036
    X2       -4.20084  -0.01081   0.00000  -0.10789  -0.11951  -4.32035
    Y2       -0.00000   0.00000   0.00000   0.00001   0.00002   0.00001
    Z2        0.00017   0.00000   0.00000  -0.00010  -0.00020  -0.00003
    X3        0.20336  -0.00006   0.00000   0.00247  -0.00914   0.19422
    Y3        0.00476  -0.00000   0.00000  -0.00003  -0.00002   0.00473
    Z3       -2.03197   0.00116   0.00000   0.00722   0.00717  -2.02481
    X4        0.20343  -0.00005   0.00000   0.00258  -0.00905   0.19438
    Y4        1.75714  -0.00102   0.00000  -0.00628  -0.00627   1.75087
    Z4        1.01944  -0.00058   0.00000  -0.00341  -0.00346   1.01597
    X5        0.20342  -0.00005   0.00000   0.00260  -0.00904   0.19438
    Y5       -1.76186   0.00102   0.00000   0.00627   0.00628  -1.75558
    Z5        1.01122  -0.00058   0.00000  -0.00338  -0.00344   1.00779
    X6        4.29618  -0.00738   0.00000  -0.04014  -0.05176   4.24442
    Y6        0.00001  -0.00000   0.00000  -0.00000  -0.00000   0.00001
    Z6       -0.00044   0.00001   0.00000   0.00013   0.00011  -0.00033
    X7        6.52172  -0.00955   0.00000  -0.03916  -0.05079   6.47093
    Y7       -0.00001   0.00000   0.00000   0.00001   0.00001  -0.00000
    Z7        0.00037  -0.00001   0.00000  -0.00020  -0.00020   0.00017
         Item               Value     Threshold  Converged?
 Maximum Force            0.027901     0.000450     NO 
 RMS     Force            0.007055     0.000300     NO 
 Maximum Displacement     0.249291     0.001800     NO 
 RMS     Displacement     0.062522     0.001200     NO 
 Predicted change in Energy=-1.343812D-02
 GradGradGradGradGradGradGradGradGradGradGradGradGradGradGradGradGradGrad

 Leave Link  103 at Sun Oct 13 09:50:21 2024, MaxMem=  2684354560 cpu:               0.6 elap:               0.1
 (Enter /usr/local/g16_AVX//g16/l9999.exe)

 ----------------------------------------------------------------------

 Electric dipole moment (input orientation):
 (Debye = 10**-18 statcoulomb cm , SI units = C m)
                  (au)            (Debye)         (10**-30 SI)
   Tot        0.450724D+00      0.114563D+01      0.382139D+01
   x         -0.450724D+00     -0.114562D+01     -0.382139D+01
   y          0.000000D+00      0.000000D+00      0.000000D+00
   z         -0.294263D-03     -0.747942D-03     -0.249487D-02

 Dipole polarizability, Alpha (input orientation).
 (esu units = cm**3 , SI units = C**2 m**2 J**-1)
 Alpha(0;0):
               (au)            (10**-24 esu)      (10**-40 SI)
   iso        0.677537D+02      0.100401D+02      0.111711D+02
   aniso      0.860696D+02      0.127542D+02      0.141910D+02
   xx         0.125133D+03      0.185429D+02      0.206317D+02
   yx        -0.125618D-04     -0.186146D-05     -0.207116D-05
   yy         0.390637D+02      0.578865D+01      0.644074D+01
   zx         0.442547D-03      0.655787D-04      0.729661D-04
   zy         0.000000D+00      0.000000D+00      0.000000D+00
   zz         0.390639D+02      0.578868D+01      0.644077D+01

 ----------------------------------------------------------------------

 Dipole orientation:
     6         -0.00056320          0.00001934         -0.28375908
    17          0.00291456         -0.00009410          4.20083749
     1         -2.03210560          0.00480447         -0.20203423
     1          1.01934018          1.75712541         -0.20406056
     1          1.01105178         -1.76187516         -0.20411946
     6         -0.00324893          0.00010182         -4.29618342
     7         -0.00389122          0.00012697         -6.52172149

 Electric dipole moment (dipole orientation):
 (Debye = 10**-18 statcoulomb cm , SI units = C m)
                  (au)            (Debye)         (10**-30 SI)
   Tot        0.450724D+00      0.114563D+01      0.382139D+01
   x          0.000000D+00      0.000000D+00      0.000000D+00
   y          0.000000D+00      0.000000D+00      0.000000D+00
   z          0.450724D+00      0.114563D+01      0.382139D+01

 Dipole polarizability, Alpha (dipole orientation).
 (esu units = cm**3 , SI units = C**2 m**2 J**-1)
 Alpha(0;0):
               (au)            (10**-24 esu)      (10**-40 SI)
   iso        0.677537D+02      0.100401D+02      0.111711D+02
   aniso      0.860696D+02      0.127542D+02      0.141910D+02
   xx         0.390640D+02      0.578868D+01      0.644078D+01
   yx         0.000000D+00      0.000000D+00      0.000000D+00
   yy         0.390637D+02      0.578865D+01      0.644074D+01
   zx         0.557495D-01      0.826122D-02      0.919185D-02
   zy        -0.183781D-02     -0.272336D-03     -0.303014D-03
   zz         0.125133D+03      0.185429D+02      0.206317D+02

 ----------------------------------------------------------------------
 1\1\GINC-NODO7\Freq\RB3LYP\6-31++G(d,p)\C2H3Cl1N1(1-)\ALANQF\13-Oct-20
 24\0\\#p b3lyp 6-31++g(d,p) scf=verytight NoSymm freq=noraman int=ultr
 afine\\RxCoord=-0.99975 DE=51.97\\-1,1\C,0.150159,0.000007,-0.0002\Cl,
 -2.222988,-0.000002,0.000091\H,0.107614,0.002517,-1.075274\H,0.107652,
 0.92984,0.539462\H,0.107646,-0.932335,0.535116\C,2.273443,0.000005,-0.
 000235\N,3.451147,-0.000007,0.000194\\Version=ES64L-G16RevB.01\HF=-592
 .9915611\RMSD=3.534e-09\RMSF=7.055e-03\ZeroPoint=0.0435888\Thermal=0.0
 491735\Dipole=-0.3910393,0.0000102,-0.0003137\DipoleDeriv=3.4925363,0.
 0000042,-0.000199,0.0000018,0.091377,0.0000006,-0.0002212,0.0000004,0.
 0914127,-1.853111,-0.0000007,0.0000598,-0.0000047,-0.6867535,0.,0.0001
 308,0.,-0.6867548,-0.1768414,-0.0000154,0.0063547,0.0000041,0.0704124,
 0.0000362,-0.0014769,0.0000362,0.0549164,-0.1768604,-0.0054834,-0.0031
 652,0.0012387,0.0588503,-0.0067151,0.0007314,-0.0067073,0.0665147,-0.1
 768604,0.0054971,-0.0031392,-0.0012386,0.0587883,0.0066784,0.0007242,0
 .0066708,0.0665774,-1.0791715,-0.0000008,0.0000368,-0.0000123,-0.20043
 55,0.,0.0005194,0.,-0.2004286,-1.0296916,-0.0000009,0.0000521,0.000011
 ,-0.3922389,0.,-0.0004077,0.,-0.3922378\Polar=125.1334794,-0.0000126,3
 9.0637333,0.0004425,-0.0000064,39.0639305\Quadrupole=-25.7015274,12.85
 09576,12.8505698,0.0000333,-0.0004107,-0.0000011\PG=C01 [X(C2H3Cl1N1)]
 \NImag=1\\-0.08141596,0.00000098,0.69228573,0.00002898,-0.00000026,0.6
 9225530,0.03131142,0.00000012,-0.00000325,0.04526507,0.00000041,-0.011
 18853,0.00000002,-0.00000027,0.00423438,-0.00000970,0.,-0.01118732,0.0
 0000323,-0.00000026,0.00423563,-0.00776138,0.00002803,-0.01201731,-0.0
 1615142,-0.00001519,0.00641829,0.03847831,0.00002856,-0.05367722,0.000
 76743,0.00000439,0.00003845,-0.00000582,-0.00003252,0.04519307,-0.0122
 9055,0.00076733,-0.38230158,-0.00192071,-0.00000588,0.00260223,0.01403
 733,-0.00080191,0.38857400,-0.00775373,0.01038482,0.00602408,-0.016160
 82,-0.00555161,-0.00322100,0.00122899,-0.00194544,-0.00030719,0.038481
 88,0.01061927,-0.29948003,-0.14266176,0.00165927,0.00195838,0.00111555
 ,-0.00071465,0.00463363,0.00412590,-0.01212978,0.30202462,0.00616324,-
 0.14265712,-0.13648092,0.00096296,0.00111563,0.00068556,0.00183409,-0.
 02308789,-0.00643199,-0.00704053,0.14906482,0.13171496,-0.00775367,-0.
 01041407,0.00597665,-0.01616139,0.00556682,-0.00319511,0.00122890,0.00
 194675,-0.00029809,0.00122638,0.00123806,-0.00152920,0.03848235,-0.010
 64934,-0.30080695,0.14189457,-0.00166345,0.00196838,-0.00110947,0.0007
 0605,0.00454487,-0.00407464,-0.00123092,-0.01186931,0.01355345,0.01216
 354,0.30341154,0.00611465,0.14189002,-0.13515287,0.00095524,-0.0011095
 0,0.00067509,0.00183743,0.02313894,-0.00634310,-0.00153497,-0.01365586
 ,0.01007776,-0.00698494,-0.14826332,0.13032723,0.04559100,-0.00000004,
 -0.00000221,-0.01928597,-0.00000009,0.00000279,-0.01442574,0.00000044,
 -0.00016306,-0.01442685,0.00014200,0.00008215,-0.01442680,-0.00014226,
 0.00008147,1.16261759,0.00000057,-0.03380518,0.,-0.00000022,0.00363495
 ,0.,0.00003273,-0.00104124,-0.00001448,0.01213983,0.00360689,0.0026974
 6,-0.01217258,0.00363209,-0.00268294,-0.00001155,0.03710458,-0.0000233
 0,0.00000002,-0.03380537,0.00000812,0.,0.00363481,-0.01403573,-0.00001
 443,0.00517287,0.00704903,0.00269811,0.00052513,0.00699228,-0.00268367
 ,0.00049999,0.00040954,-0.00000002,0.03710488,0.02778232,0.00000015,-0
 .00000694,-0.00881689,-0.00000005,0.00000150,-0.00259765,-0.00000218,0
 .00094227,-0.00259585,-0.00081417,-0.00047271,-0.00259578,0.00081638,-
 0.00046889,-1.14564322,0.00001121,-0.00039995,1.13446708,-0.00000044,0
 .00667217,0.,0.00000016,-0.00064601,0.,-0.00000445,0.00030844,0.000003
 68,-0.00166689,-0.00087419,-0.00068635,0.00167146,-0.00088062,0.000682
 67,0.00001150,-0.01313210,0.,-0.00001133,0.00855231,0.00001667,0.,0.00
 667275,-0.00000559,0.,-0.00064599,0.00192591,0.00000368,-0.00127244,-0
 .00096941,-0.00068676,-0.00009050,-0.00096160,0.00068307,-0.00008410,-
 0.00041067,0.,-0.01313231,0.00040471,0.,0.00855259\\-0.02790068,0.0000
 0028,0.00000145,0.01081418,-0.00000012,-0.00000094,0.00005574,0.000002
 74,-0.00115530,0.00005021,0.00101643,0.00058082,0.00004963,-0.00101942
 ,0.00057627,0.00738347,0.00000028,-0.00000893,0.00954746,-0.00000018,0
 .00000664\\\@


 KNOWLEDGE IS CHIMERA - FOR BEYOND IT LIES OTHER KNOWLEDGE,
 AND THE INCOMPLETENESS OF WHAT IS KNOWN RENDERS THE KNOWING FALSE.
     -- THE THOMAS COVENANT CHRONICLES
 Job cpu time:       0 days  0 hours  3 minutes 49.6 seconds.
 Elapsed time:       0 days  0 hours  0 minutes  9.8 seconds.
 File lengths (MBytes):  RWF=     88 Int=      0 D2E=      0 Chk=      2 Scr=      2
 Normal termination of Gaussian 16 at Sun Oct 13 09:50:21 2024.
