RxCoord=-0.79979 DE=53.21                                               
Freq      RB3LYP                                                      6-31++G(d,p)        
Number of atoms                            I                7
Info1-9                                    I   N=           9
          16          16           0           0           0         100
           6          18        -502
Full Title                                 C   N=           3
RxCoord=-0.79979 DE=53.21           
Route                                      C   N=           6
#p b3lyp 6-31++g(d,p) scf=verytight NoSymm freq=noraman int=
ultrafine   
Charge                                     I               -1
Multiplicity                               I                1
Number of electrons                        I               40
Number of alpha electrons                  I               20
Number of beta electrons                   I               20
Number of basis functions                  I               98
Number of independent functions            I               98
Number of point charges in /Mol/           I                0
Number of translation vectors              I                0
Atomic numbers                             I   N=           7
           6          17           1           1           1           6
           7
Nuclear charges                            R   N=           7
  6.00000000E+00  1.70000000E+01  1.00000000E+00  1.00000000E+00  1.00000000E+00
  6.00000000E+00  7.00000000E+00
Current cartesian coordinates              R   N=          21
  2.31589716E-01  1.32280829E-05 -3.49599333E-04 -4.19358573E+00 -3.77945225E-06
  1.58736994E-04  2.01784956E-01  4.75833038E-03 -2.03288800E+00  2.01875662E-01
  1.75795174E+00  1.01993999E+00  2.01866214E-01 -1.76267039E+00  1.01172157E+00
  4.31093772E+00  1.13383567E-05 -4.53534270E-04  6.53601653E+00 -1.32280829E-05
  3.77945225E-04
Number of symbols in /Mol/                 I                0
Force Field                                I                0
Atom Types                                 C   N=           7
                                                            
                        
Int Atom Types                             I   N=           7
           0           0           0           0           0           0
           0
MM charges                                 R   N=           7
  0.00000000E+00  0.00000000E+00  0.00000000E+00  0.00000000E+00  0.00000000E+00
  0.00000000E+00  0.00000000E+00
Integer atomic weights                     I   N=           7
          12          35           1           1           1          12
          14
Real atomic weights                        R   N=           7
  1.20000000E+01  3.49688527E+01  1.00782504E+00  1.00782504E+00  1.00782504E+00
  1.20000000E+01  1.40030740E+01
Atom fragment info                         I   N=           7
           0           0           0           0           0           0
           0
Atom residue num                           I   N=           7
           0           0           0           0           0           0
           0
Nuclear spins                              I   N=           7
           0           3           1           1           1           0
           2
Nuclear ZEff                               R   N=           7
 -3.60000000E+00 -1.42400000E+01 -1.00000000E+00 -1.00000000E+00 -1.00000000E+00
 -3.60000000E+00 -4.55000000E+00
Nuclear ZNuc                               R   N=           7
  6.00000000E+00  1.70000000E+01  1.00000000E+00  1.00000000E+00  1.00000000E+00
  6.00000000E+00  7.00000000E+00
Nuclear QMom                               R   N=           7
  0.00000000E+00 -8.16500000E+00  0.00000000E+00  0.00000000E+00  0.00000000E+00
  0.00000000E+00  2.04400000E+00
Nuclear GFac                               R   N=           7
  0.00000000E+00  8.21874000E-01  2.79284600E+00  2.79284600E+00  2.79284600E+00
  0.00000000E+00  4.03761000E-01
MicOpt                                     I   N=           7
          -1          -1          -1          -1          -1          -1
          -1
Number of residues                         I                0
Number of secondary structures             I                0
Number of contracted shells                I               33
Number of primitive shells                 I               72
Pure/Cartesian d shells                    I                1
Pure/Cartesian f shells                    I                0
Highest angular momentum                   I                2
Largest degree of contraction              I                6
Shell types                                I   N=          33
           0          -1          -1          -1           2           0
          -1          -1          -1          -1           2           0
           0           0           1           0           0           0
           1           0           0           0           1           0
          -1          -1          -1           2           0          -1
          -1          -1           2
Number of primitives per shell             I   N=          33
           6           3           1           1           1           6
           6           3           1           1           1           3
           1           1           1           3           1           1
           1           3           1           1           1           6
           3           1           1           1           6           3
           1           1           1
Shell to atom map                          I   N=          33
           1           1           1           1           1           2
           2           2           2           2           2           3
           3           3           3           4           4           4
           4           5           5           5           5           6
           6           6           6           6           7           7
           7           7           7
Primitive exponents                        R   N=          72
  3.04752488E+03  4.57369518E+02  1.03948685E+02  2.92101553E+01  9.28666296E+00
  3.16392696E+00  7.86827235E+00  1.88128854E+00  5.44249258E-01  1.68714478E-01
  4.38000000E-02  8.00000000E-01  2.51801000E+04  3.78035000E+03  8.60474000E+02
  2.42145000E+02  7.73349000E+01  2.62470000E+01  4.91765000E+02  1.16984000E+02
  3.74153000E+01  1.37834000E+01  5.45215000E+00  2.22588000E+00  3.18649000E+00
  1.14427000E+00  4.20377000E-01  1.42657000E-01  4.83000000E-02  7.50000000E-01
  1.87311370E+01  2.82539436E+00  6.40121692E-01  1.61277759E-01  3.60000000E-02
  1.10000000E+00  1.87311370E+01  2.82539436E+00  6.40121692E-01  1.61277759E-01
  3.60000000E-02  1.10000000E+00  1.87311370E+01  2.82539436E+00  6.40121692E-01
  1.61277759E-01  3.60000000E-02  1.10000000E+00  3.04752488E+03  4.57369518E+02
  1.03948685E+02  2.92101553E+01  9.28666296E+00  3.16392696E+00  7.86827235E+00
  1.88128854E+00  5.44249258E-01  1.68714478E-01  4.38000000E-02  8.00000000E-01
  4.17351146E+03  6.27457911E+02  1.42902093E+02  4.02343293E+01  1.28202129E+01
  4.39043701E+00  1.16263619E+01  2.71627981E+00  7.72218397E-01  2.12031498E-01
  6.39000000E-02  8.00000000E-01
Contraction coefficients                   R   N=          72
  1.83473713E-03  1.40373228E-02  6.88426223E-02  2.32184443E-01  4.67941348E-01
  3.62311985E-01 -1.19332420E-01 -1.60854152E-01  1.14345644E+00  1.00000000E+00
  1.00000000E+00  1.00000000E+00  1.83295985E-03  1.40341988E-02  6.90973943E-02
  2.37451980E-01  4.83033960E-01  3.39855972E-01 -2.29739142E-03 -3.07137189E-02
 -1.12528069E-01  4.50163278E-02  5.89353363E-01  4.65206287E-01 -2.51828028E-01
  6.15892514E-02  1.06018433E+00  1.00000000E+00  1.00000000E+00  1.00000000E+00
  3.34946043E-02  2.34726953E-01  8.13757326E-01  1.00000000E+00  1.00000000E+00
  1.00000000E+00  3.34946043E-02  2.34726953E-01  8.13757326E-01  1.00000000E+00
  1.00000000E+00  1.00000000E+00  3.34946043E-02  2.34726953E-01  8.13757326E-01
  1.00000000E+00  1.00000000E+00  1.00000000E+00  1.83473713E-03  1.40373228E-02
  6.88426223E-02  2.32184443E-01  4.67941348E-01  3.62311985E-01 -1.19332420E-01
 -1.60854152E-01  1.14345644E+00  1.00000000E+00  1.00000000E+00  1.00000000E+00
  1.83477216E-03  1.39946270E-02  6.85865518E-02  2.32240873E-01  4.69069948E-01
  3.60455199E-01 -1.14961182E-01 -1.69117479E-01  1.14585195E+00  1.00000000E+00
  1.00000000E+00  1.00000000E+00
P(S=P) Contraction coefficients            R   N=          72
  0.00000000E+00  0.00000000E+00  0.00000000E+00  0.00000000E+00  0.00000000E+00
  0.00000000E+00  6.89990666E-02  3.16423961E-01  7.44308291E-01  1.00000000E+00
  1.00000000E+00  0.00000000E+00  0.00000000E+00  0.00000000E+00  0.00000000E+00
  0.00000000E+00  0.00000000E+00  0.00000000E+00  3.98940088E-03  3.03177067E-02
  1.29880029E-01  3.27951072E-01  4.53527100E-01  2.52154056E-01 -1.42993147E-02
  3.23572333E-01  7.43507765E-01  1.00000000E+00  1.00000000E+00  0.00000000E+00
  0.00000000E+00  0.00000000E+00  0.00000000E+00  0.00000000E+00  0.00000000E+00
  0.00000000E+00  0.00000000E+00  0.00000000E+00  0.00000000E+00  0.00000000E+00
  0.00000000E+00  0.00000000E+00  0.00000000E+00  0.00000000E+00  0.00000000E+00
  0.00000000E+00  0.00000000E+00  0.00000000E+00  0.00000000E+00  0.00000000E+00
  0.00000000E+00  0.00000000E+00  0.00000000E+00  0.00000000E+00  6.89990666E-02
  3.16423961E-01  7.44308291E-01  1.00000000E+00  1.00000000E+00  0.00000000E+00
  0.00000000E+00  0.00000000E+00  0.00000000E+00  0.00000000E+00  0.00000000E+00
  0.00000000E+00  6.75797439E-02  3.23907296E-01  7.40895140E-01  1.00000000E+00
  1.00000000E+00  0.00000000E+00
Coordinates of each shell                  R   N=          99
  2.31589716E-01  1.32280829E-05 -3.49599333E-04  2.31589716E-01  1.32280829E-05
 -3.49599333E-04  2.31589716E-01  1.32280829E-05 -3.49599333E-04  2.31589716E-01
  1.32280829E-05 -3.49599333E-04  2.31589716E-01  1.32280829E-05 -3.49599333E-04
 -4.19358573E+00 -3.77945225E-06  1.58736994E-04 -4.19358573E+00 -3.77945225E-06
  1.58736994E-04 -4.19358573E+00 -3.77945225E-06  1.58736994E-04 -4.19358573E+00
 -3.77945225E-06  1.58736994E-04 -4.19358573E+00 -3.77945225E-06  1.58736994E-04
 -4.19358573E+00 -3.77945225E-06  1.58736994E-04  2.01784956E-01  4.75833038E-03
 -2.03288800E+00  2.01784956E-01  4.75833038E-03 -2.03288800E+00  2.01784956E-01
  4.75833038E-03 -2.03288800E+00  2.01784956E-01  4.75833038E-03 -2.03288800E+00
  2.01875662E-01  1.75795174E+00  1.01993999E+00  2.01875662E-01  1.75795174E+00
  1.01993999E+00  2.01875662E-01  1.75795174E+00  1.01993999E+00  2.01875662E-01
  1.75795174E+00  1.01993999E+00  2.01866214E-01 -1.76267039E+00  1.01172157E+00
  2.01866214E-01 -1.76267039E+00  1.01172157E+00  2.01866214E-01 -1.76267039E+00
  1.01172157E+00  2.01866214E-01 -1.76267039E+00  1.01172157E+00  4.31093772E+00
  1.13383567E-05 -4.53534270E-04  4.31093772E+00  1.13383567E-05 -4.53534270E-04
  4.31093772E+00  1.13383567E-05 -4.53534270E-04  4.31093772E+00  1.13383567E-05
 -4.53534270E-04  4.31093772E+00  1.13383567E-05 -4.53534270E-04  6.53601653E+00
 -1.32280829E-05  3.77945225E-04  6.53601653E+00 -1.32280829E-05  3.77945225E-04
  6.53601653E+00 -1.32280829E-05  3.77945225E-04  6.53601653E+00 -1.32280829E-05
  3.77945225E-04  6.53601653E+00 -1.32280829E-05  3.77945225E-04
Num ILSW                                   I              100
ILSW                                       I   N=         100
           0           1           0           0           2           0
           0           0           0           0         402          -1
           5           0           0           0           2           0
           0           0           0           0           1           0
           1           1           0           0           0           0
           0           0      100000           0          -1           0
           0           0           0           0           0           0
           0           0           0           1           0           0
           0 -2000000000           1           0           0           0
           0           0           4          52           0           0
           0           0           5           0           0           0
           0           0           0           7           0           1
           0           0           0           0           0           0
           0           0           0           0           0           0
           0           0           0           0           0           0
           0           0           0           0           0           0
           0           0           0           0
Num RLSW                                   I               52
RLSW                                       R   N=          52
  8.00000000E-01  7.20000000E-01  1.00000000E+00  8.10000000E-01  2.00000000E-01
  0.00000000E+00  0.00000000E+00  1.00000000E+00  0.00000000E+00  0.00000000E+00
  0.00000000E+00  0.00000000E+00  1.00000000E+00  0.00000000E+00  0.00000000E+00
  0.00000000E+00  0.00000000E+00  1.00000000E+00  0.00000000E+00  0.00000000E+00
  0.00000000E+00  0.00000000E+00  1.00000000E+00  0.00000000E+00  0.00000000E+00
  0.00000000E+00  0.00000000E+00  1.00000000E+00  0.00000000E+00  0.00000000E+00
  0.00000000E+00  0.00000000E+00  1.00000000E+00  0.00000000E+00  0.00000000E+00
  0.00000000E+00  0.00000000E+00  0.00000000E+00  1.00000000E+00  1.00000000E+00
  0.00000000E+00  1.00000000E+00  0.00000000E+00  0.00000000E+00  0.00000000E+00
  0.00000000E+00  0.00000000E+00  0.00000000E+00  0.00000000E+00  0.00000000E+00
  0.00000000E+00  0.00000000E+00
MxBond                                     I                3
NBond                                      I   N=           7
           3           0           1           1           1           1
           1
IBond                                      I   N=          21
           3           4           5           0           0           0
           1           0           0           1           0           0
           1           0           0           7           0           0
           6           0           0
RBond                                      R   N=          21
  1.00000000E+00  1.00000000E+00  1.00000000E+00  0.00000000E+00  0.00000000E+00
  0.00000000E+00  1.00000000E+00  0.00000000E+00  0.00000000E+00  1.00000000E+00
  0.00000000E+00  0.00000000E+00  1.00000000E+00  0.00000000E+00  0.00000000E+00
  3.00000000E+00  0.00000000E+00  0.00000000E+00  3.00000000E+00  0.00000000E+00
  0.00000000E+00
Virial Ratio                               R      2.004782162149335E+00
SCF Energy                                 R     -5.929899583666490E+02
Total Energy                               R     -5.929899583666490E+02
RMS Force                                  R      5.660891291514296E-03
RMS Density                                R      5.913356965520279E-09
NImag                                      I                1
Job Status                                 I                1
Nuclear derivative order                   I                2
External E-field                           R   N=          35
  0.00000000E+00  0.00000000E+00  0.00000000E+00  0.00000000E+00  0.00000000E+00
  0.00000000E+00  0.00000000E+00  0.00000000E+00  0.00000000E+00  0.00000000E+00
  0.00000000E+00  0.00000000E+00  0.00000000E+00  0.00000000E+00  0.00000000E+00
  0.00000000E+00  0.00000000E+00  0.00000000E+00  0.00000000E+00  0.00000000E+00
  0.00000000E+00  0.00000000E+00  0.00000000E+00  0.00000000E+00  0.00000000E+00
  0.00000000E+00  0.00000000E+00  0.00000000E+00  0.00000000E+00  0.00000000E+00
  0.00000000E+00  0.00000000E+00  0.00000000E+00  0.00000000E+00  0.00000000E+00
IOpCl                                      I                0
IROHF                                      I                0
Alpha Orbital Energies                     R   N=          98
 -1.01315471E+02 -1.41585499E+01 -1.01155279E+01 -1.00362074E+01 -9.23011542E+00
 -6.98999750E+00 -6.98662140E+00 -6.98662137E+00 -7.12528115E-01 -6.00136204E-01
 -5.41575245E-01 -3.10033606E-01 -3.10017203E-01 -2.57146746E-01 -1.81265202E-01
 -1.57815463E-01 -1.57815257E-01 -1.06894996E-01 -1.06894855E-01 -1.00662949E-01
  1.10200303E-01  1.31223300E-01  1.48313182E-01  1.48314820E-01  1.56376690E-01
  1.91919171E-01  1.91926191E-01  1.95045712E-01  2.24993422E-01  2.24994226E-01
  2.37691637E-01  2.37702340E-01  2.46682962E-01  2.55184638E-01  2.55185843E-01
  2.55446880E-01  3.08084493E-01  3.41337283E-01  3.41341727E-01  3.61086399E-01
  3.61088990E-01  3.64428570E-01  3.87795532E-01  4.46494814E-01  4.64548298E-01
  7.51537908E-01  7.91805154E-01  7.91823170E-01  7.94958672E-01  8.03970670E-01
  8.03973713E-01  8.58426130E-01  8.58428312E-01  9.03760069E-01  9.43202641E-01
  9.88558672E-01  1.05675719E+00  1.05676460E+00  1.10231875E+00  1.10231999E+00
  1.11461978E+00  1.11462729E+00  1.13638372E+00  1.15519788E+00  1.15521010E+00
  1.24041288E+00  1.28907723E+00  1.41852726E+00  1.51397600E+00  1.60689894E+00
  1.60691443E+00  1.71723229E+00  1.71723279E+00  1.74059230E+00  1.74059584E+00
  1.82018491E+00  2.12030488E+00  2.12313556E+00  2.12322079E+00  2.14005229E+00
  2.14006685E+00  2.16946613E+00  2.53614362E+00  2.67529024E+00  2.67532957E+00
  2.78546228E+00  2.78547503E+00  2.84271827E+00  2.86401883E+00  2.86412141E+00
  3.23146184E+00  3.46552747E+00  3.59247901E+00  3.59257158E+00  4.18065580E+00
  4.43829847E+00  4.52428202E+00  4.61148568E+00
Alpha MO coefficients                      R   N=        9604
 -3.19290627E-06 -6.42882055E-05  1.77385958E-05  7.72696441E-11 -2.46896444E-09
  5.71874300E-05 -1.51570924E-04 -1.02201705E-09  2.11499191E-08 -7.25504228E-06
  2.82396595E-04  9.01086794E-10 -2.01711355E-08  4.72092485E-05 -1.22300276E-06
 -1.22865278E-06  3.60565609E-10 -6.69873421E-09 -1.31213222E-10  9.95997679E-01
  1.51489213E-02  1.18044491E-05  7.23373052E-11 -1.87357045E-09 -2.10572286E-02
 -5.30096432E-06  2.41411681E-11  5.55682838E-10  1.87389144E-03 -4.86010389E-05
 -3.20849979E-10  6.57614513E-09 -1.32283233E-04  5.78491593E-05  5.70592062E-10
 -1.39351600E-08  7.50335099E-03  7.52447616E-03  7.52447614E-03 -8.27523093E-11
  2.45735360E-09 -2.26198571E-12 -7.13487972E-06 -3.75561722E-05  7.11083461E-05
  2.75164552E-05  5.47483953E-09 -2.28250905E-06 -7.14887874E-06 -3.75516429E-05
  7.11322475E-05  2.75182504E-05  1.97364531E-06  1.14174087E-06 -7.14996626E-06
 -3.75516321E-05  7.11340442E-05  2.75183923E-05 -1.97889101E-06  1.13264571E-06
 -1.70462053E-06 -4.96982251E-06  3.26108913E-06  5.45676257E-11 -2.55869714E-09
 -1.50811786E-04 -2.04227022E-04  1.41380693E-09 -4.16354102E-08 -4.52088743E-04
  5.91796569E-05  1.52895598E-10 -1.43870222E-08 -9.78706574E-06 -1.44291634E-06
 -1.44286486E-06  1.93267304E-10 -7.51775089E-09  3.42987188E-12 -2.94373649E-06
 -1.32635285E-05 -1.24190506E-06 -4.48645706E-11  2.21380748E-09  2.05741855E-04
 -9.79404605E-05  1.43100207E-09 -5.17853974E-08  1.89995046E-04 -3.48155553E-05
  5.91441588E-10 -1.82589384E-08  3.44461477E-06 -7.30825195E-06 -7.30820940E-06
 -2.05483777E-10  7.35219928E-09  4.02012404E-13 -1.21105711E-05 -3.35738807E-05
 -3.80048384E-05  3.44283113E-12  4.32300142E-09  2.30826249E-04  1.26403313E-04
  7.90968052E-10 -4.63228781E-08  2.23237700E-03  1.12013613E-03  4.27129833E-09
 -2.06093281E-07 -2.13225060E-05 -2.73647105E-05 -2.73567720E-05  3.70199855E-12
  9.54711412E-10  1.61377327E-10  9.64468060E-08  9.40291419E-07  1.19245579E-06
  4.93395084E-12 -2.35324310E-10  3.36256432E-06 -7.08571017E-06 -2.32821815E-11
  1.25408321E-09 -4.63003263E-05  2.85856611E-05  9.07104102E-11 -4.58001880E-09
  4.78345040E-04  1.11149518E-04 -5.52008963E-10  3.24300752E-08  6.42513688E-06
 -5.09843602E-07 -5.10102061E-07 -3.72569450E-11  1.14814192E-09 -1.23696481E-11
  8.42573708E-07 -1.26541752E-04 -1.26963756E-04 -1.27197460E-05  5.65876965E-09
 -2.45152142E-06  8.47857727E-07 -1.26464959E-04 -1.27069448E-04 -1.27139914E-05
  2.11349408E-06  1.23079280E-06  8.48230703E-07 -1.26463312E-04 -1.27072943E-04
 -1.27138116E-05 -2.11900519E-06  1.22071541E-06  8.25926978E-05  2.15828895E-04
 -3.72444110E-04  3.72536926E-09 -1.25498244E-07 -5.00060332E-05 -1.50416108E-04
  4.09219248E-09 -1.42934142E-07 -3.85884908E-04  1.95042880E-03 -1.23648444E-08
  3.74641989E-07 -8.52339579E-04 -5.12248145E-06 -5.12235400E-06  1.05929867E-08
 -3.58085333E-07  1.45653504E-11  9.92718335E-01  3.44625598E-02 -1.60661037E-03
  1.82024575E-08 -6.14815618E-07  4.87623354E-03  3.12172472E-04 -4.15885632E-09
  1.39009365E-07 -3.07118977E-03 -1.69108428E-04 -1.00891529E-09  5.08555684E-08
 -7.61985396E-03 -8.39671935E-03 -8.39671950E-03 -9.74520426E-09  3.29582485E-07
 -6.29296329E-12  9.93140552E-01  4.92940106E-02  2.20343703E-04  2.48329130E-09
 -1.07676644E-07 -1.71672067E-02 -1.74969155E-03 -5.96413441E-09  6.64600792E-07
  3.72592834E-03  1.96011449E-03  2.08145702E-09  2.45820823E-07 -9.32494685E-03
 -8.36461788E-03 -8.36475271E-03  4.75935598E-10  7.63979262E-08  5.67794619E-10
 -4.85796506E-06 -2.89951825E-05 -2.46508733E-05  1.61352803E-10 -1.46287094E-09
 -2.33512358E-04  8.50358818E-05 -1.28579414E-09  1.77318338E-08  7.41741461E-04
  6.32160502E-04  7.83313311E-09 -1.73264730E-07  6.75452149E-04 -1.20372070E-04
  5.01013014E-10 -6.47193878E-08  2.10105786E-04 -6.19341484E-05 -6.19259717E-05
  2.36352713E-09 -6.06400763E-08  3.13847268E-10 -1.87771630E-04  3.06571640E-03
 -5.34639908E-04  5.39718082E-05  5.64502585E-07 -2.41665535E-04 -1.87891938E-04
  3.06519846E-03 -5.35011934E-04  5.40135692E-05  2.09056526E-04  1.21318309E-04
 -1.87893364E-04  3.06519609E-03 -5.35012101E-04  5.40149251E-05 -2.09620306E-04
  1.20341076E-04  4.48045545E-05 -2.58719839E-04  3.50336769E-05  1.50805613E-09
 -3.12313010E-08 -2.68810535E-03 -5.39441162E-03  2.69065848E-08 -9.24429875E-07
 -3.95525981E-03  1.39696955E-03 -2.66954985E-10 -3.17027068E-07  2.59586924E-05
 -4.53306995E-05 -4.53301671E-05  3.76240665E-09 -1.34796422E-07 -1.39453802E-10
 -8.98021258E-05 -4.01903731E-04  1.34058857E-05 -2.89872241E-09  1.02435466E-07
  5.41794525E-03 -2.11353056E-03  3.89251094E-08 -1.33868886E-06  1.68393524E-03
 -6.95222241E-04  4.04617298E-09  3.77366398E-08 -5.87195813E-05 -1.85596741E-04
 -1.85596319E-04 -3.48596654E-09  1.15469040E-07  1.76506879E-11 -1.31324928E-04
 -2.32027330E-04  7.71674504E-06 -1.01340518E-10 -3.51022527E-10  1.08289204E-03
  1.01065796E-03 -2.12239589E-09 -2.79341178E-08  1.17851997E-02  1.71050253E-02
  2.76807846E-08 -1.21262232E-06  1.16737616E-04 -4.39826200E-05 -4.39990011E-05
 -5.17975799E-10  1.01590599E-09 -3.73265478E-10  1.84478760E-07  4.89540240E-06
  1.59642746E-05  1.18960490E-10 -3.38674846E-09  1.05956769E-05 -1.09418176E-04
 -7.43920734E-10  2.14255253E-08 -3.87044713E-04  6.23389392E-04  3.01749579E-09
 -9.11602392E-08  1.06583470E-02  3.12435674E-03  2.25378541E-08 -5.82284537E-07
  6.88744757E-05 -1.40084428E-05 -1.40080375E-05  7.07495757E-10 -1.84677136E-08
 -2.87387904E-11 -3.42813792E-05 -4.71392670E-04  4.24911866E-04 -1.22923841E-05
 -4.10605289E-08  1.75682029E-05 -3.42839093E-05 -4.71378331E-04  4.25804279E-04
 -1.22913868E-05 -1.51852515E-05 -8.80909113E-06 -3.42842848E-05 -4.71379851E-04
  4.25829430E-04 -1.22923227E-05  1.52253389E-05 -8.73764707E-06  9.92847146E-01
  4.94783566E-02  1.29544601E-03 -1.86865226E-08  6.58908001E-07 -1.01478673E-02
  1.31352298E-03  6.70673545E-09 -3.14354914E-07 -2.76674760E-02  8.05772747E-03
  1.29166368E-08 -1.25197609E-06 -8.51764305E-03 -9.69087593E-03 -9.69087518E-03
 -1.55863659E-08  5.29431868E-07  3.91149839E-11 -4.45935913E-04  2.42976879E-04
  2.93456434E-04 -2.84060231E-09  1.01540391E-07 -3.26879934E-03  1.35917179E-03
 -2.00698791E-08  6.62482711E-07  9.60846976E-03 -5.05136351E-03  3.06268543E-08
 -7.11305466E-07 -7.06641811E-05  2.53882947E-04  2.53883629E-04  5.32605888E-09
 -1.85777813E-07  7.19793105E-12 -7.05489729E-06 -7.45332868E-05  1.67900428E-04
  6.02540461E-10 -2.33320535E-08  1.97747349E-04 -2.22838151E-03  2.14496325E-09
  9.99133018E-08  4.44972358E-03  2.14297224E-02  4.18523982E-08 -1.81741500E-06
  1.48462618E-04  3.49923053E-06  3.52588388E-06 -6.21500982E-10  2.17135628E-09
  1.14208459E-09 -2.84626488E-01  1.02273437E+00  1.35727062E-03  1.04963760E-08
 -2.50725908E-07  7.55490500E-02  5.13570834E-04  1.49015174E-09 -5.40964941E-08
 -2.34579953E-02 -1.71226888E-03 -4.75018284E-09  1.68760180E-07  2.76300407E-02
  9.03527686E-03  3.57573989E-08 -1.10099384E-06 -1.55177028E-02 -1.55231707E-02
 -1.55231759E-02  3.72716808E-10 -6.55909084E-09  2.58173808E-11 -2.64328245E-05
 -2.78691257E-04 -1.40298256E-03 -2.13663604E-05 -1.00500682E-07  4.28302109E-05
 -2.64557480E-05 -2.78371928E-04 -1.40346446E-03 -2.14249734E-05 -3.70737013E-05
 -2.15086088E-05 -2.64555512E-05 -2.78353150E-04 -1.40352097E-03 -2.14301942E-05
  3.71755901E-05 -2.13369433E-05  3.90142023E-06 -1.84911334E-05  1.29390971E-05
 -1.10357625E-09  3.83152286E-08 -1.19700311E-03 -1.38210654E-03  1.20709083E-08
 -3.74142983E-07 -1.91977849E-02  8.34256676E-03 -3.51797710E-08  2.70777309E-07
  1.07113263E-04  1.07717708E-05  1.07727724E-05  5.56450979E-10 -2.28044415E-08
  4.66099623E-11 -5.86922871E-05 -2.14232448E-04  5.97260701E-06 -1.31938421E-09
  6.03953283E-08  2.14506674E-03 -4.57912485E-04  1.01751143E-08 -4.23342965E-07
 -9.84958361E-04 -1.10092536E-03  4.86638112E-09  1.95506666E-07 -1.30020448E-04
 -1.24581737E-04 -1.24582886E-04 -2.09631778E-10  9.46649099E-09 -2.86012036E-11
  5.72348041E-05  4.52552186E-05 -5.40490082E-04 -1.14092847E-09  5.25080871E-08
 -5.23588666E-04 -1.83726678E-04  1.36917833E-08 -1.53567764E-07 -3.39948438E-02
 -6.01015559E-02 -8.88020466E-08  3.62852832E-06  3.90008354E-04  1.30663260E-04
  1.30784103E-04 -1.57811314E-09 -2.45853027E-08  3.25990585E-09  4.29725526E-04
 -1.52214114E-03  9.90574903E-01  6.26205895E-06 -1.42338574E-04  2.61010247E-04
  3.07601387E-02  1.92057350E-07 -4.40596512E-06  3.62259899E-04 -1.40144854E-02
 -8.17397137E-08  1.96207251E-06 -3.62365695E-02 -6.38768512E-03 -5.30226136E-08
  1.50595187E-06  1.72060679E-04  8.87058704E-05  8.87078243E-05 -3.52633536E-10
  8.96352022E-09  5.00500100E-11 -9.07424059E-05  1.48898474E-03 -4.11605723E-03
 -2.32447763E-04 -3.01919514E-07  1.28637590E-04 -9.05678811E-05  1.48909452E-03
 -4.11740022E-03 -2.32581319E-04 -1.11303623E-04 -6.45608864E-05 -9.05522361E-05
  1.48910081E-03 -4.11743089E-03 -2.32590610E-04  1.11606596E-04 -6.40439498E-05
 -7.47719378E-05 -3.35550771E-04 -5.82397793E-05  5.06226310E-09 -2.01794054E-07
  2.69910940E-03  2.49152823E-04 -2.68256814E-08  9.98233109E-07  8.48400808E-02
 -3.15242839E-02  2.64042001E-08  2.12217739E-06 -5.52852184E-05 -1.17810429E-04
 -1.17810615E-04 -1.54111305E-09  5.29566319E-08 -5.09784212E-11 -1.93555482E-05
 -7.97877077E-05  3.68352557E-05  9.25217429E-10 -6.59288389E-08  2.39581699E-04
  5.77177186E-05 -2.09341758E-09  2.29027228E-07 -8.92280694E-03  7.62854565E-03
 -2.11234892E-08 -4.64142698E-07 -3.80431549E-05 -2.90607466E-05 -2.90628548E-05
 -5.80675385E-10  2.53766169E-08 -5.66067351E-12 -1.23788323E-09 -5.02457155E-09
  2.09921562E-09 -4.45387179E-05 -2.85702169E-07  3.57926283E-08 -6.34489464E-09
  2.11094949E-05  1.45330775E-07  4.88209060E-08  9.25363315E-09  2.64479089E-04
  1.68012702E-06 -2.19030497E-09  2.20492403E-08 -2.58511818E-08 -1.25275788E-04
 -8.01904355E-07 -4.41658351E-05  2.93379766E-10 -1.21666444E-09 -5.35230510E-06
  9.90808277E-01  6.33555191E-03 -3.29614242E-10 -1.61644618E-07  2.96382086E-02
  1.89515662E-04  8.04433894E-10  6.03597535E-08 -1.15541876E-02 -7.38789571E-05
 -1.58296952E-08 -2.96308804E-08  5.13617577E-03  3.28379591E-05 -2.61206491E-09
 -6.97940545E-10  1.39196519E-09  1.16831424E-04  7.46994398E-07  3.45884783E-06
  5.66551412E-07 -3.30084671E-06  1.72226402E-05  6.33640270E-07 -7.13144388E-06
 -4.07029112E-07 -1.20817225E-04  7.03319376E-04 -3.68830484E-03 -1.35336778E-04
 -7.39126705E-05 -3.88006754E-05  1.20249121E-04 -7.00079260E-04  3.67106979E-03
  1.34710180E-04 -7.37809853E-05  3.82188607E-05 -2.31544773E-12  2.57612268E-10
  6.20576268E-10  5.88571162E-05  3.76214439E-07  8.08406113E-09  7.25136943E-09
 -2.53970143E-04 -1.62417876E-06 -6.68606144E-09 -3.77336616E-09  1.02628026E-03
  6.56540785E-06  2.04079862E-11 -2.69277318E-10 -1.69905080E-10  1.14790949E-06
  7.47060806E-09  5.78126428E-07  2.17683352E-10  8.85714383E-10 -3.87819680E-10
 -2.36285201E-05 -1.51455667E-07 -1.06737571E-08  6.68495422E-09  1.45048818E-04
  9.29077634E-07 -6.47275566E-11  4.11317613E-09 -3.53902540E-04 -2.26753822E-06
 -3.92361486E-10 -7.48441496E-10  2.25634473E-09 -1.82133511E-05 -1.16401590E-07
  2.99660001E-06  2.52487721E-08  1.16135907E-07 -1.65416489E-08  2.84113851E-07
 -4.45740180E-05 -7.39753816E-07 -1.16984287E-07 -1.26959024E-07  2.14741981E-05
  2.53812490E-07  2.34769986E-06 -1.69750271E-06  2.63746818E-04  3.51112712E-09
 -3.81970365E-05  3.82916725E-05  8.00358757E-07 -1.25299980E-04 -2.61578556E-08
 -1.37049620E-08  5.89747189E-08  1.42407035E-04 -6.33555086E-03  9.90808274E-01
  3.37486258E-08  4.26570629E-06 -1.89516865E-04  2.96381735E-02 -1.58886798E-07
 -1.61249683E-06  7.38829857E-05 -1.15541020E-02  1.86788621E-06  1.29704678E-06
 -3.28461112E-05  5.13606735E-03  5.06786149E-08  3.02494745E-06 -3.04307453E-06
 -7.47128153E-07  1.16832351E-04  3.02830837E-09  1.39261633E-04 -8.09719731E-04
  4.24824967E-03  1.55827974E-04  2.53331552E-07 -9.60754226E-05 -6.91213334E-05
  4.02469206E-04 -2.10875936E-03 -7.74056441E-05 -3.81549405E-05 -2.92899528E-05
 -7.00969620E-05  4.08180414E-04 -2.13866955E-03 -7.85044698E-05  3.88925320E-05
 -2.94224800E-05  3.09958393E-09  9.47345734E-09 -2.29152550E-08 -3.76408454E-07
  5.88446096E-05 -1.13144622E-06 -8.73650585E-07  1.62365838E-06 -2.53954217E-04
 -3.27002553E-06  1.42177566E-06 -6.56114727E-06  1.02656327E-03 -3.16382085E-08