RxCoord=-0.59984 DE=54.15                                               
Freq      RB3LYP                                                      6-31++G(d,p)        
Number of atoms                            I                7
Info1-9                                    I   N=           9
          16          16           0           0           0         100
           6          18        -502
Full Title                                 C   N=           3
RxCoord=-0.59984 DE=54.15           
Route                                      C   N=           6
#p b3lyp 6-31++g(d,p) scf=verytight NoSymm freq=noraman int=
ultrafine   
Charge                                     I               -1
Multiplicity                               I                1
Number of electrons                        I               40
Number of alpha electrons                  I               20
Number of beta electrons                   I               20
Number of basis functions                  I               98
Number of independent functions            I               98
Number of point charges in /Mol/           I                0
Number of translation vectors              I                0
Atomic numbers                             I   N=           7
           6          17           1           1           1           6
           7
Nuclear charges                            R   N=           7
  6.00000000E+00  1.70000000E+01  1.00000000E+00  1.00000000E+00  1.00000000E+00
  6.00000000E+00  7.00000000E+00
Current cartesian coordinates              R   N=          21
  1.79331230E-01  1.13383567E-05 -3.26922620E-04 -4.18606840E+00 -3.77945225E-06
  1.47398638E-04  2.00299631E-01  4.76022011E-03 -2.03280485E+00  2.00413014E-01
  1.75789316E+00  1.01993810E+00  2.00407345E-01 -1.76261370E+00  1.01171590E+00
  4.32531665E+00  1.13383567E-05 -4.59203448E-04  6.55001751E+00 -1.32280829E-05
  3.89283582E-04
Number of symbols in /Mol/                 I                0
Force Field                                I                0
Atom Types                                 C   N=           7
                                                            
                        
Int Atom Types                             I   N=           7
           0           0           0           0           0           0
           0
MM charges                                 R   N=           7
  0.00000000E+00  0.00000000E+00  0.00000000E+00  0.00000000E+00  0.00000000E+00
  0.00000000E+00  0.00000000E+00
Integer atomic weights                     I   N=           7
          12          35           1           1           1          12
          14
Real atomic weights                        R   N=           7
  1.20000000E+01  3.49688527E+01  1.00782504E+00  1.00782504E+00  1.00782504E+00
  1.20000000E+01  1.40030740E+01
Atom fragment info                         I   N=           7
           0           0           0           0           0           0
           0
Atom residue num                           I   N=           7
           0           0           0           0           0           0
           0
Nuclear spins                              I   N=           7
           0           3           1           1           1           0
           2
Nuclear ZEff                               R   N=           7
 -3.60000000E+00 -1.42400000E+01 -1.00000000E+00 -1.00000000E+00 -1.00000000E+00
 -3.60000000E+00 -4.55000000E+00
Nuclear ZNuc                               R   N=           7
  6.00000000E+00  1.70000000E+01  1.00000000E+00  1.00000000E+00  1.00000000E+00
  6.00000000E+00  7.00000000E+00
Nuclear QMom                               R   N=           7
  0.00000000E+00 -8.16500000E+00  0.00000000E+00  0.00000000E+00  0.00000000E+00
  0.00000000E+00  2.04400000E+00
Nuclear GFac                               R   N=           7
  0.00000000E+00  8.21874000E-01  2.79284600E+00  2.79284600E+00  2.79284600E+00
  0.00000000E+00  4.03761000E-01
MicOpt                                     I   N=           7
          -1          -1          -1          -1          -1          -1
          -1
Number of residues                         I                0
Number of secondary structures             I                0
Number of contracted shells                I               33
Number of primitive shells                 I               72
Pure/Cartesian d shells                    I                1
Pure/Cartesian f shells                    I                0
Highest angular momentum                   I                2
Largest degree of contraction              I                6
Shell types                                I   N=          33
           0          -1          -1          -1           2           0
          -1          -1          -1          -1           2           0
           0           0           1           0           0           0
           1           0           0           0           1           0
          -1          -1          -1           2           0          -1
          -1          -1           2
Number of primitives per shell             I   N=          33
           6           3           1           1           1           6
           6           3           1           1           1           3
           1           1           1           3           1           1
           1           3           1           1           1           6
           3           1           1           1           6           3
           1           1           1
Shell to atom map                          I   N=          33
           1           1           1           1           1           2
           2           2           2           2           2           3
           3           3           3           4           4           4
           4           5           5           5           5           6
           6           6           6           6           7           7
           7           7           7
Primitive exponents                        R   N=          72
  3.04752488E+03  4.57369518E+02  1.03948685E+02  2.92101553E+01  9.28666296E+00
  3.16392696E+00  7.86827235E+00  1.88128854E+00  5.44249258E-01  1.68714478E-01
  4.38000000E-02  8.00000000E-01  2.51801000E+04  3.78035000E+03  8.60474000E+02
  2.42145000E+02  7.73349000E+01  2.62470000E+01  4.91765000E+02  1.16984000E+02
  3.74153000E+01  1.37834000E+01  5.45215000E+00  2.22588000E+00  3.18649000E+00
  1.14427000E+00  4.20377000E-01  1.42657000E-01  4.83000000E-02  7.50000000E-01
  1.87311370E+01  2.82539436E+00  6.40121692E-01  1.61277759E-01  3.60000000E-02
  1.10000000E+00  1.87311370E+01  2.82539436E+00  6.40121692E-01  1.61277759E-01
  3.60000000E-02  1.10000000E+00  1.87311370E+01  2.82539436E+00  6.40121692E-01
  1.61277759E-01  3.60000000E-02  1.10000000E+00  3.04752488E+03  4.57369518E+02
  1.03948685E+02  2.92101553E+01  9.28666296E+00  3.16392696E+00  7.86827235E+00
  1.88128854E+00  5.44249258E-01  1.68714478E-01  4.38000000E-02  8.00000000E-01
  4.17351146E+03  6.27457911E+02  1.42902093E+02  4.02343293E+01  1.28202129E+01
  4.39043701E+00  1.16263619E+01  2.71627981E+00  7.72218397E-01  2.12031498E-01
  6.39000000E-02  8.00000000E-01
Contraction coefficients                   R   N=          72
  1.83473713E-03  1.40373228E-02  6.88426223E-02  2.32184443E-01  4.67941348E-01
  3.62311985E-01 -1.19332420E-01 -1.60854152E-01  1.14345644E+00  1.00000000E+00
  1.00000000E+00  1.00000000E+00  1.83295985E-03  1.40341988E-02  6.90973943E-02
  2.37451980E-01  4.83033960E-01  3.39855972E-01 -2.29739142E-03 -3.07137189E-02
 -1.12528069E-01  4.50163278E-02  5.89353363E-01  4.65206287E-01 -2.51828028E-01
  6.15892514E-02  1.06018433E+00  1.00000000E+00  1.00000000E+00  1.00000000E+00
  3.34946043E-02  2.34726953E-01  8.13757326E-01  1.00000000E+00  1.00000000E+00
  1.00000000E+00  3.34946043E-02  2.34726953E-01  8.13757326E-01  1.00000000E+00
  1.00000000E+00  1.00000000E+00  3.34946043E-02  2.34726953E-01  8.13757326E-01
  1.00000000E+00  1.00000000E+00  1.00000000E+00  1.83473713E-03  1.40373228E-02
  6.88426223E-02  2.32184443E-01  4.67941348E-01  3.62311985E-01 -1.19332420E-01
 -1.60854152E-01  1.14345644E+00  1.00000000E+00  1.00000000E+00  1.00000000E+00
  1.83477216E-03  1.39946270E-02  6.85865518E-02  2.32240873E-01  4.69069948E-01
  3.60455199E-01 -1.14961182E-01 -1.69117479E-01  1.14585195E+00  1.00000000E+00
  1.00000000E+00  1.00000000E+00
P(S=P) Contraction coefficients            R   N=          72
  0.00000000E+00  0.00000000E+00  0.00000000E+00  0.00000000E+00  0.00000000E+00
  0.00000000E+00  6.89990666E-02  3.16423961E-01  7.44308291E-01  1.00000000E+00
  1.00000000E+00  0.00000000E+00  0.00000000E+00  0.00000000E+00  0.00000000E+00
  0.00000000E+00  0.00000000E+00  0.00000000E+00  3.98940088E-03  3.03177067E-02
  1.29880029E-01  3.27951072E-01  4.53527100E-01  2.52154056E-01 -1.42993147E-02
  3.23572333E-01  7.43507765E-01  1.00000000E+00  1.00000000E+00  0.00000000E+00
  0.00000000E+00  0.00000000E+00  0.00000000E+00  0.00000000E+00  0.00000000E+00
  0.00000000E+00  0.00000000E+00  0.00000000E+00  0.00000000E+00  0.00000000E+00
  0.00000000E+00  0.00000000E+00  0.00000000E+00  0.00000000E+00  0.00000000E+00
  0.00000000E+00  0.00000000E+00  0.00000000E+00  0.00000000E+00  0.00000000E+00
  0.00000000E+00  0.00000000E+00  0.00000000E+00  0.00000000E+00  6.89990666E-02
  3.16423961E-01  7.44308291E-01  1.00000000E+00  1.00000000E+00  0.00000000E+00
  0.00000000E+00  0.00000000E+00  0.00000000E+00  0.00000000E+00  0.00000000E+00
  0.00000000E+00  6.75797439E-02  3.23907296E-01  7.40895140E-01  1.00000000E+00
  1.00000000E+00  0.00000000E+00
Coordinates of each shell                  R   N=          99
  1.79331230E-01  1.13383567E-05 -3.26922620E-04  1.79331230E-01  1.13383567E-05
 -3.26922620E-04  1.79331230E-01  1.13383567E-05 -3.26922620E-04  1.79331230E-01
  1.13383567E-05 -3.26922620E-04  1.79331230E-01  1.13383567E-05 -3.26922620E-04
 -4.18606840E+00 -3.77945225E-06  1.47398638E-04 -4.18606840E+00 -3.77945225E-06
  1.47398638E-04 -4.18606840E+00 -3.77945225E-06  1.47398638E-04 -4.18606840E+00
 -3.77945225E-06  1.47398638E-04 -4.18606840E+00 -3.77945225E-06  1.47398638E-04
 -4.18606840E+00 -3.77945225E-06  1.47398638E-04  2.00299631E-01  4.76022011E-03
 -2.03280485E+00  2.00299631E-01  4.76022011E-03 -2.03280485E+00  2.00299631E-01
  4.76022011E-03 -2.03280485E+00  2.00299631E-01  4.76022011E-03 -2.03280485E+00
  2.00413014E-01  1.75789316E+00  1.01993810E+00  2.00413014E-01  1.75789316E+00
  1.01993810E+00  2.00413014E-01  1.75789316E+00  1.01993810E+00  2.00413014E-01
  1.75789316E+00  1.01993810E+00  2.00407345E-01 -1.76261370E+00  1.01171590E+00
  2.00407345E-01 -1.76261370E+00  1.01171590E+00  2.00407345E-01 -1.76261370E+00
  1.01171590E+00  2.00407345E-01 -1.76261370E+00  1.01171590E+00  4.32531665E+00
  1.13383567E-05 -4.59203448E-04  4.32531665E+00  1.13383567E-05 -4.59203448E-04
  4.32531665E+00  1.13383567E-05 -4.59203448E-04  4.32531665E+00  1.13383567E-05
 -4.59203448E-04  4.32531665E+00  1.13383567E-05 -4.59203448E-04  6.55001751E+00
 -1.32280829E-05  3.89283582E-04  6.55001751E+00 -1.32280829E-05  3.89283582E-04
  6.55001751E+00 -1.32280829E-05  3.89283582E-04  6.55001751E+00 -1.32280829E-05
  3.89283582E-04  6.55001751E+00 -1.32280829E-05  3.89283582E-04
Num ILSW                                   I              100
ILSW                                       I   N=         100
           0           1           0           0           2           0
           0           0           0           0         402          -1
           5           0           0           0           2           0
           0           0           0           0           1           0
           1           1           0           0           0           0
           0           0      100000           0          -1           0
           0           0           0           0           0           0
           0           0           0           1           0           0
           0 -2000000000           1           0           0           0
           0           0           4          52           0           0
           0           0           5           0           0           0
           0           0           0           7           0           1
           0           0           0           0           0           0
           0           0           0           0           0           0
           0           0           0           0           0           0
           0           0           0           0           0           0
           0           0           0           0
Num RLSW                                   I               52
RLSW                                       R   N=          52
  8.00000000E-01  7.20000000E-01  1.00000000E+00  8.10000000E-01  2.00000000E-01
  0.00000000E+00  0.00000000E+00  1.00000000E+00  0.00000000E+00  0.00000000E+00
  0.00000000E+00  0.00000000E+00  1.00000000E+00  0.00000000E+00  0.00000000E+00
  0.00000000E+00  0.00000000E+00  1.00000000E+00  0.00000000E+00  0.00000000E+00
  0.00000000E+00  0.00000000E+00  1.00000000E+00  0.00000000E+00  0.00000000E+00
  0.00000000E+00  0.00000000E+00  1.00000000E+00  0.00000000E+00  0.00000000E+00
  0.00000000E+00  0.00000000E+00  1.00000000E+00  0.00000000E+00  0.00000000E+00
  0.00000000E+00  0.00000000E+00  0.00000000E+00  1.00000000E+00  1.00000000E+00
  0.00000000E+00  1.00000000E+00  0.00000000E+00  0.00000000E+00  0.00000000E+00
  0.00000000E+00  0.00000000E+00  0.00000000E+00  0.00000000E+00  0.00000000E+00
  0.00000000E+00  0.00000000E+00
MxBond                                     I                3
NBond                                      I   N=           7
           3           0           1           1           1           1
           1
IBond                                      I   N=          21
           3           4           5           0           0           0
           1           0           0           1           0           0
           1           0           0           7           0           0
           6           0           0
RBond                                      R   N=          21
  1.00000000E+00  1.00000000E+00  1.00000000E+00  0.00000000E+00  0.00000000E+00
  0.00000000E+00  1.00000000E+00  0.00000000E+00  0.00000000E+00  1.00000000E+00
  0.00000000E+00  0.00000000E+00  1.00000000E+00  0.00000000E+00  0.00000000E+00
  3.00000000E+00  0.00000000E+00  0.00000000E+00  3.00000000E+00  0.00000000E+00
  0.00000000E+00
Virial Ratio                               R      2.004762015046906E+00
SCF Energy                                 R     -5.929887115527040E+02
Total Energy                               R     -5.929887115527040E+02
RMS Force                                  R      4.309043696088808E-03
RMS Density                                R      6.103980869731333E-09
NImag                                      I                1
Job Status                                 I                1
Nuclear derivative order                   I                2
External E-field                           R   N=          35
  0.00000000E+00  0.00000000E+00  0.00000000E+00  0.00000000E+00  0.00000000E+00
  0.00000000E+00  0.00000000E+00  0.00000000E+00  0.00000000E+00  0.00000000E+00
  0.00000000E+00  0.00000000E+00  0.00000000E+00  0.00000000E+00  0.00000000E+00
  0.00000000E+00  0.00000000E+00  0.00000000E+00  0.00000000E+00  0.00000000E+00
  0.00000000E+00  0.00000000E+00  0.00000000E+00  0.00000000E+00  0.00000000E+00
  0.00000000E+00  0.00000000E+00  0.00000000E+00  0.00000000E+00  0.00000000E+00
  0.00000000E+00  0.00000000E+00  0.00000000E+00  0.00000000E+00  0.00000000E+00
IOpCl                                      I                0
IROHF                                      I                0
Alpha Orbital Energies                     R   N=          98
 -1.01321605E+02 -1.41530813E+01 -1.01152739E+01 -1.00292746E+01 -9.23626472E+00
 -6.99638477E+00 -6.99264283E+00 -6.99264280E+00 -7.07234165E-01 -6.04725649E-01
 -5.42354904E-01 -3.09854872E-01 -3.09839385E-01 -2.51707026E-01 -1.79680297E-01
 -1.52914477E-01 -1.52914299E-01 -1.11787996E-01 -1.11787856E-01 -1.02364541E-01
  1.10469504E-01  1.29332108E-01  1.48435036E-01  1.48436628E-01  1.56993222E-01
  1.93944863E-01  1.94390297E-01  1.94397793E-01  2.25429403E-01  2.25429677E-01
  2.38802838E-01  2.38811735E-01  2.48222808E-01  2.55120089E-01  2.55126797E-01
  2.55127640E-01  3.08065933E-01  3.41441023E-01  3.41444923E-01  3.63116407E-01
  3.63120009E-01  3.66040628E-01  3.87060635E-01  4.47994976E-01  4.64975434E-01
  7.51082821E-01  7.87838951E-01  7.87854359E-01  7.90749743E-01  8.04949853E-01
  8.04954087E-01  8.59588003E-01  8.59589712E-01  9.02626679E-01  9.45700822E-01
  9.89346513E-01  1.05607322E+00  1.05608048E+00  1.09853148E+00  1.09853289E+00
  1.11165759E+00  1.11166584E+00  1.13538277E+00  1.15719157E+00  1.15720076E+00
  1.24009047E+00  1.29455986E+00  1.41765668E+00  1.51479453E+00  1.60785029E+00
  1.60786533E+00  1.72259402E+00  1.72259416E+00  1.74420200E+00  1.74420525E+00
  1.82182854E+00  2.12055982E+00  2.12280728E+00  2.12288391E+00  2.14541650E+00
  2.14542653E+00  2.17436258E+00  2.53094400E+00  2.68076621E+00  2.68080597E+00
  2.78485928E+00  2.78486736E+00  2.83904494E+00  2.86524141E+00  2.86533796E+00
  3.23502557E+00  3.46660031E+00  3.59274214E+00  3.59282974E+00  4.18247145E+00
  4.44370109E+00  4.51909597E+00  4.60923876E+00
Alpha MO coefficients                      R   N=        9604
 -2.80224127E-06 -6.91743371E-05  1.38029021E-05  6.96121085E-11 -2.04174101E-09
  5.10715434E-05 -1.47030962E-04 -8.58676961E-10  2.00211757E-08 -4.54511374E-05
  2.55428939E-04  7.60971621E-10 -1.70627877E-08  5.64850277E-05  8.77872396E-07
  8.72952829E-07  3.52743253E-10 -6.85673058E-09 -9.90706494E-11  9.95997670E-01
  1.51491705E-02  1.30481598E-05  6.87174869E-11 -1.90691882E-09 -2.10573726E-02
 -5.53047330E-06  5.71442349E-12  7.35340045E-10  1.87051055E-03 -5.08537999E-05
 -2.58873869E-10  5.91778847E-09 -1.36665787E-04  5.67054851E-05  4.63854898E-10
 -1.24088930E-08  7.50362991E-03  7.52513922E-03  7.52513924E-03 -7.39158102E-11
  2.30710825E-09 -1.46259402E-12 -6.33551512E-06 -3.32710909E-05  6.92098712E-05
  2.70308109E-05  3.65179129E-09 -1.51077310E-06 -6.34771777E-06 -3.32666999E-05
  6.92284586E-05  2.70326945E-05  1.30593214E-06  7.54477936E-07 -6.34854170E-06
 -3.32667069E-05  6.92300035E-05  2.70328527E-05 -1.30931630E-06  7.48439388E-07
 -1.61803411E-06 -5.09627444E-06  3.14511796E-06  6.63757996E-11 -2.75655083E-09
 -1.48098390E-04 -1.96577086E-04  1.28000738E-09 -4.00336281E-08 -4.00310521E-04
  4.21315736E-05  2.33280786E-10 -1.46347146E-08 -9.01493239E-06 -1.29417968E-06
 -1.29413181E-06  1.99068149E-10 -7.56596476E-09  2.23908674E-12 -2.88332927E-06
 -1.30325628E-05 -1.00485214E-06 -5.36433779E-11  2.33159255E-09  1.99628552E-04
 -9.54234420E-05  1.42412286E-09 -5.14707351E-08  1.82950823E-04 -3.04767564E-05
  5.75024263E-10 -1.85053098E-08  3.25172889E-06 -7.13537933E-06 -7.13534218E-06
 -2.01894628E-10  7.23450454E-09  4.24362938E-13 -1.10852862E-05 -2.58805469E-05
 -3.80413943E-05 -2.20864185E-11  4.01442953E-09  2.07390898E-04  1.13744919E-04
  7.21377892E-10 -4.07090950E-08  2.06444906E-03  1.04904995E-03  4.77718592E-09
 -2.05596822E-07 -2.57263109E-05 -2.44951687E-05 -2.44884067E-05 -2.89062924E-11
  1.46833777E-09  1.22362148E-10  1.10148823E-07  1.07911447E-06  1.11910721E-06
  4.57744634E-12 -2.25167872E-10  4.01771088E-06 -6.57600757E-06 -2.17439072E-11
  1.20084885E-09 -4.81678539E-05  2.54944466E-05  7.81969847E-11 -4.31428186E-09
  4.62941513E-04  1.05274206E-04 -8.01100532E-10  3.75464946E-08  6.13970526E-06
 -1.74920671E-07 -1.75139649E-07 -4.17166686E-11  1.27725678E-09 -1.03554970E-11
  5.19133239E-07 -1.23527601E-04 -1.29320817E-04 -1.19965954E-05  8.06431614E-09
 -3.47938957E-06  5.22875444E-07 -1.23455379E-04 -1.29432153E-04 -1.19908953E-05
  3.00317340E-06  1.74679454E-06  5.23141412E-07 -1.23453924E-04 -1.29435776E-04
 -1.19907544E-05 -3.01110661E-06  1.73256459E-06  8.27515233E-05  2.13547796E-04
 -3.65735669E-04  3.67178561E-09 -1.26328691E-07 -7.47054220E-05 -1.87662419E-04
  4.32900008E-09 -1.53043522E-07 -2.01922360E-04  1.86673302E-03 -1.16881699E-08
  3.72276787E-07 -8.45302084E-04 -5.76892535E-06 -5.76885170E-06  1.05152589E-08
 -3.62911057E-07  1.04393241E-11  9.92715735E-01  3.44633675E-02 -1.58925623E-03
  1.79582295E-08 -6.18689233E-07  4.92147317E-03  2.87831277E-04 -3.78929016E-09
  1.29364996E-07 -3.06223181E-03 -1.51656608E-04 -1.22608701E-09  5.45221213E-08
 -7.62742768E-03 -8.40093486E-03 -8.40093501E-03 -9.71467556E-09  3.35333614E-07
 -5.30138926E-12  9.93134231E-01  4.92679680E-02  1.72524500E-04  1.37488127E-10
 -9.03200065E-08 -1.69731970E-02 -1.56212458E-03 -5.05189064E-09  6.06314608E-07
  3.40833499E-03  1.00518576E-03 -4.24224015E-09  2.88841618E-07 -9.31604722E-03
 -8.37766865E-03 -8.37779616E-03 -2.95116840E-10  8.07275718E-08 -2.04095256E-09
 -5.38298343E-06 -3.33802621E-05 -2.68618328E-05  1.36809701E-10 -1.17284244E-09
 -2.56639505E-04  1.00385110E-04 -1.10039449E-09  1.51883370E-08  8.82298786E-04
  6.87544282E-04  7.32411419E-09 -1.69960198E-07  1.33207691E-06 -3.42906596E-04
 -6.42340535E-10 -2.45990305E-08  2.19569823E-04 -6.90204823E-05 -6.90135049E-05
  2.18200973E-09 -5.90870404E-08  2.80823792E-10 -1.89786595E-04  3.06166203E-03
 -5.95639241E-04  5.76516466E-05  5.56577013E-07 -2.38287484E-04 -1.89902357E-04
  3.06120650E-03 -5.96026307E-04  5.76982606E-05  2.06132341E-04  1.19624434E-04
 -1.89907888E-04  3.06121257E-03 -5.96037788E-04  5.76997204E-05 -2.06688406E-04
  1.18660035E-04  3.10329865E-05 -2.58231067E-04  3.97533448E-05  1.30447424E-09
 -3.43261580E-08 -2.62579451E-03 -5.05869813E-03  2.55664352E-08 -8.74391673E-07
 -2.65203559E-03  1.04378942E-03  2.29758665E-09 -2.93819851E-07  3.89493037E-05
 -4.45856034E-05 -4.45847208E-05  3.70553666E-09 -1.35233152E-07 -4.64527449E-11
 -8.88459483E-05 -3.95819992E-04  1.96803545E-05 -2.91144764E-09  1.04960595E-07
  5.19055095E-03 -2.02339446E-03  3.70470652E-08 -1.30203230E-06  1.40879818E-03
 -5.93183165E-04  1.92881942E-09  5.57256282E-08 -6.30948022E-05 -1.84650955E-04
 -1.84650592E-04 -3.14007948E-09  1.07327727E-07  6.15740849E-12 -1.12992722E-04
 -2.34063417E-04 -9.80752462E-07  4.33667774E-11 -1.84505219E-09  9.85168664E-04
  9.73470638E-04 -1.33894893E-09 -2.23583675E-08  9.94737288E-03  1.62922245E-02
  2.85428106E-08 -1.17796678E-06  1.27393625E-04 -4.42595983E-05 -4.42756862E-05
 -3.48727062E-10 -1.17963793E-09 -2.39960901E-10  1.84788634E-07  5.91019832E-06
  1.51120546E-05  9.79626302E-11 -2.96431491E-09  1.13941245E-05 -1.03801790E-04
 -6.15941195E-10  1.88836838E-08 -3.90798112E-04  6.09237669E-04  2.61021239E-09
 -8.38093921E-08  1.06476770E-02  3.08954723E-03  1.90182096E-08 -5.26759357E-07
  7.03598434E-05 -1.13183292E-05 -1.13177421E-05  5.85692368E-10 -1.66962343E-08
 -1.95125692E-11 -3.15585216E-05 -4.65705984E-04  4.10032012E-04 -1.34025586E-05
 -4.36959554E-08  1.86778140E-05 -3.15640881E-05 -4.65698775E-04  4.10921699E-04
 -1.34023989E-05 -1.61449587E-05 -9.36715119E-06 -3.15641226E-05 -4.65700485E-04
  4.10948206E-04 -1.34029884E-05  1.61880617E-05 -9.29144419E-06  9.92844729E-01
  4.94769645E-02  1.35426037E-03 -1.93812466E-08  6.90535567E-07 -1.01715964E-02
  1.13762589E-03  8.26200024E-09 -3.51594064E-07 -2.57509948E-02  7.36980687E-03
  2.28995354E-08 -1.38405812E-06 -8.50954228E-03 -9.69778597E-03 -9.69778521E-03
 -1.57179910E-08  5.44832384E-07  2.09641283E-11 -4.50834227E-04  2.28668671E-04
  3.07319655E-04 -3.07861240E-09  1.10005066E-07 -3.11699442E-03  1.30950846E-03
 -1.90086955E-08  6.44775034E-07  9.57084335E-03 -4.94324240E-03  2.69111869E-08
 -6.89872186E-07 -9.04822757E-05  2.48979118E-04  2.48979781E-04  5.52207048E-09
 -1.94558340E-07  9.44145119E-12 -1.12070143E-05 -6.72267547E-05  1.57484840E-04
  7.06900101E-10 -2.29242401E-08  3.73001743E-04 -2.16902571E-03  9.22780780E-10
  1.06360376E-07  3.32740774E-03  2.25393476E-02  4.44381981E-08 -1.85502181E-06
  1.15962397E-04 -3.12949657E-07 -2.89003360E-07 -5.66463704E-10  3.87515287E-09
  1.05091509E-09 -2.84625955E-01  1.02273800E+00  1.51688597E-03  9.55003206E-09
 -2.48768046E-07  7.55690754E-02  5.10516118E-04  1.43050274E-09 -5.17901531E-08
 -2.35969084E-02 -1.71164951E-03 -4.60621761E-09  1.62588270E-07  2.91149028E-02
  9.45573693E-03  3.46392453E-08 -1.10577469E-06 -1.55058773E-02 -1.55234222E-02
 -1.55234270E-02  3.41159007E-10 -7.72887738E-09  9.33014336E-12 -2.70828596E-05
 -3.05410256E-04 -1.29053305E-03 -2.63892877E-05 -9.37410965E-08  3.99431689E-05
 -2.71044775E-05 -3.05126783E-04 -1.29086199E-03 -2.64379425E-05 -3.45726450E-05
 -2.00580912E-05 -2.71039816E-05 -3.05111519E-04 -1.29090684E-03 -2.64420817E-05
  3.46675951E-05 -1.98978368E-05  5.62346134E-06 -7.52488519E-06  1.54213984E-05
 -1.29564428E-09  4.63078135E-08 -1.15380252E-03 -1.22351320E-03  1.14684330E-08
 -3.75955863E-07 -1.98786315E-02  8.76869604E-03 -2.21219454E-08  2.20376696E-08
  1.06611937E-04  1.19064998E-05  1.19074654E-05  5.41900814E-10 -2.12214116E-08
  3.41742594E-11 -5.50732508E-05 -1.99162802E-04  4.35760318E-06 -1.48342845E-09
  6.34906582E-08  1.96363259E-03 -3.89788746E-04  1.01034286E-08 -4.09675103E-07
 -8.67755426E-04 -1.25964124E-03 -4.50621226E-10  3.08791178E-07 -1.26493531E-04
 -1.17097944E-04 -1.17098914E-04 -9.05302640E-11  4.59125832E-09 -2.34094498E-11
  6.60209260E-05  1.24726240E-04 -5.59693799E-04 -8.94978429E-10  5.09576320E-08
 -5.70431971E-04 -6.88049649E-05  1.22899758E-08 -1.46621373E-07 -2.91531511E-02
 -6.05281899E-02 -9.47101759E-08  3.70238302E-06  3.26776954E-04  1.61427369E-04
  1.61539219E-04 -1.50168515E-09 -1.88346519E-08  3.03921250E-09  4.74282278E-04
 -1.69804511E-03  9.90566055E-01  5.13995341E-06 -1.29465210E-04  2.34914289E-04
  3.07882297E-02  1.58129769E-07 -4.01517510E-06  5.80935202E-04 -1.40021684E-02
 -6.79825071E-08  1.79436899E-06 -3.84702918E-02 -6.96700351E-03 -5.07038240E-08
  1.50164720E-06  1.75577722E-04  6.40182099E-05  6.40192529E-05 -2.14704818E-10
  5.16538711E-09  3.09092962E-11 -1.02103979E-04  1.52221022E-03 -4.24591726E-03
 -2.44008245E-04 -2.69862848E-07  1.14911888E-04 -1.01949117E-04  1.52230492E-03
 -4.24735384E-03 -2.44126799E-04 -9.94255599E-05 -5.76701621E-05 -1.01936094E-04
  1.52231406E-03 -4.24740427E-03 -2.44134936E-04  9.96959963E-05 -5.72080337E-05
 -7.24044112E-05 -3.26207647E-04 -6.14631774E-05  5.43778924E-09 -2.11261627E-07
  2.71348520E-03  3.63277016E-04 -2.86211543E-08  1.05955242E-06  8.25466060E-02
 -3.09205207E-02 -1.20680460E-08  2.72463087E-06 -4.81278841E-05 -1.14685630E-04
 -1.14686173E-04 -1.64381660E-09  5.68976519E-08 -3.11300984E-11 -1.96893800E-05
 -7.88827976E-05  3.72416488E-05  1.35204131E-09 -7.33431629E-08  1.77855033E-04
  1.03018699E-04 -4.68508640E-09  2.83662967E-07 -9.05750783E-03  7.64788930E-03
 -6.14838239E-09 -7.00891204E-07 -4.38252444E-05 -2.97879001E-05 -2.97900662E-05
 -5.80889420E-10  2.45344140E-08 -1.68753314E-11 -1.28058195E-09 -5.37362810E-09
  1.26638014E-09 -4.61555381E-05  1.32433973E-07  3.76872724E-08 -1.02944177E-09
  6.35363867E-05 -1.76552889E-07  3.06109030E-08 -2.25425786E-08  2.56443898E-04
 -7.45213051E-07 -1.44311382E-09  4.04454257E-07 -4.08720153E-07 -1.29374962E-04
  3.71865682E-07 -4.74342591E-05  4.04623410E-10 -1.69537927E-09 -5.51349404E-06
  9.90827403E-01 -2.85241877E-03 -4.06746813E-10 -1.65950453E-07  2.96296447E-02
 -8.52989126E-05  2.67573714E-09  6.22727159E-08 -1.15533795E-02  3.32614158E-05
 -3.59135274E-08 -3.74480901E-08  5.13352438E-03 -1.47812017E-05 -2.59343686E-09
 -3.07654708E-08  3.13881000E-08  1.24428023E-04 -3.58286733E-07  3.67377799E-06
 -7.02845549E-07  4.01347662E-06 -2.20577462E-05 -8.19637543E-07 -1.06866749E-05
  4.77115942E-07 -1.16472261E-04  6.66651762E-04 -3.64867911E-03 -1.35860942E-04
 -7.46328315E-05 -3.70790017E-05  1.17172622E-04 -6.70719995E-04  3.67072100E-03
  1.36686037E-04 -7.51936304E-05  3.70647105E-05 -3.34183519E-11  6.84665271E-11
  8.08307756E-10  5.89834146E-05 -1.69877709E-07  2.69749481E-08  2.19353821E-08
 -2.54450749E-04  7.32479752E-07  3.43586639E-08 -1.91015397E-08  1.02347718E-03
 -2.94559032E-06  7.21349008E-10 -8.30583633E-09  7.31199331E-09  1.56013792E-06
 -4.40805372E-09  9.25827345E-07  6.33647424E-10  2.55023776E-09 -4.89920928E-10
 -2.37942768E-05  6.83413053E-08 -3.15322312E-08  1.68339123E-08  1.45414283E-04
 -4.17963279E-07 -7.39354053E-09  8.15705604E-09 -3.53611843E-04  1.01624903E-06
 -6.01647483E-10 -2.32080959E-08  2.69729722E-08 -1.81401473E-05  5.22541080E-08
  2.93502968E-06  2.44407390E-08  1.16094373E-07 -5.99974121E-09 -1.33399368E-07
 -4.61853747E-05 -6.98890291E-07 -1.66376584E-07  1.90157385E-07  6.38441038E-05
 -9.58098853E-08  1.97162383E-06  7.29386569E-07  2.55772906E-04 -3.83957639E-09
 -4.10324152E-05  4.11253383E-05 -3.73081646E-07 -1.29392821E-04 -4.68364874E-07
 -1.27399044E-08  5.51990128E-08  1.29481252E-04  2.85241959E-03  9.90827401E-01
  3.03003065E-08  3.87532481E-06  8.52981569E-05  2.96296158E-02 -1.55452915E-07
 -1.47779912E-06 -3.32587210E-05 -1.15533131E-02  1.67082135E-06  1.17712150E-06
  1.47756610E-05  5.13346139E-03  4.61063860E-08  3.21147893E-06 -3.22715157E-06
  3.58127572E-07  1.24428470E-04  3.71646934E-08  1.34967123E-04 -7.71681264E-04
  4.22534100E-03  1.57285196E-04  1.69431425E-07 -9.63171798E-05 -6.80712975E-05
  3.89729879E-04 -2.13136067E-03 -7.93835863E-05 -3.74010591E-05 -3.23624105E-05
 -6.68500628E-05  3.82767388E-04 -2.09323045E-03 -7.79644752E-05  3.67703640E-05
 -3.18024281E-05  2.49625993E-09  8.06088924E-09 -2.39869376E-08  1.69694346E-07
  5.89715628E-05 -1.25524281E-06 -9.78988063E-07 -7.32518391E-07 -2.54437476E-04
 -2.61321105E-06  1.13596495E-06  2.94821194E-06  1.02381769E-03 -3.94445221E-08