RxCoord=-0.49987 DE=54.52                                               
Freq      RB3LYP                                                      6-31++G(d,p)        
Number of atoms                            I                7
Info1-9                                    I   N=           9
          16          16           0           0           0         100
           6          18        -502
Full Title                                 C   N=           3
RxCoord=-0.49987 DE=54.52           
Route                                      C   N=           6
#p b3lyp 6-31++g(d,p) scf=verytight NoSymm freq=noraman int=
ultrafine   
Charge                                     I               -1
Multiplicity                               I                1
Number of electrons                        I               40
Number of alpha electrons                  I               20
Number of beta electrons                   I               20
Number of basis functions                  I               98
Number of independent functions            I               98
Number of point charges in /Mol/           I                0
Number of translation vectors              I                0
Atomic numbers                             I   N=           7
           6          17           1           1           1           6
           7
Nuclear charges                            R   N=           7
  6.00000000E+00  1.70000000E+01  1.00000000E+00  1.00000000E+00  1.00000000E+00
  6.00000000E+00  7.00000000E+00
Current cartesian coordinates              R   N=          21
  1.53179310E-01  1.13383567E-05 -3.17473989E-04 -4.18220958E+00 -3.77945225E-06
  1.41729459E-04  1.99488938E-01  4.75833038E-03 -2.03238722E+00  1.99619329E-01
  1.75753600E+00  1.01974157E+00  1.99613660E-01 -1.76225843E+00  1.01152315E+00
  4.33237289E+00  1.13383567E-05 -4.59203448E-04  6.55691879E+00 -1.32280829E-05
  3.94952760E-04
Number of symbols in /Mol/                 I                0
Force Field                                I                0
Atom Types                                 C   N=           7
                                                            
                        
Int Atom Types                             I   N=           7
           0           0           0           0           0           0
           0
MM charges                                 R   N=           7
  0.00000000E+00  0.00000000E+00  0.00000000E+00  0.00000000E+00  0.00000000E+00
  0.00000000E+00  0.00000000E+00
Integer atomic weights                     I   N=           7
          12          35           1           1           1          12
          14
Real atomic weights                        R   N=           7
  1.20000000E+01  3.49688527E+01  1.00782504E+00  1.00782504E+00  1.00782504E+00
  1.20000000E+01  1.40030740E+01
Atom fragment info                         I   N=           7
           0           0           0           0           0           0
           0
Atom residue num                           I   N=           7
           0           0           0           0           0           0
           0
Nuclear spins                              I   N=           7
           0           3           1           1           1           0
           2
Nuclear ZEff                               R   N=           7
 -3.60000000E+00 -1.42400000E+01 -1.00000000E+00 -1.00000000E+00 -1.00000000E+00
 -3.60000000E+00 -4.55000000E+00
Nuclear ZNuc                               R   N=           7
  6.00000000E+00  1.70000000E+01  1.00000000E+00  1.00000000E+00  1.00000000E+00
  6.00000000E+00  7.00000000E+00
Nuclear QMom                               R   N=           7
  0.00000000E+00 -8.16500000E+00  0.00000000E+00  0.00000000E+00  0.00000000E+00
  0.00000000E+00  2.04400000E+00
Nuclear GFac                               R   N=           7
  0.00000000E+00  8.21874000E-01  2.79284600E+00  2.79284600E+00  2.79284600E+00
  0.00000000E+00  4.03761000E-01
MicOpt                                     I   N=           7
          -1          -1          -1          -1          -1          -1
          -1
Number of residues                         I                0
Number of secondary structures             I                0
Number of contracted shells                I               33
Number of primitive shells                 I               72
Pure/Cartesian d shells                    I                1
Pure/Cartesian f shells                    I                0
Highest angular momentum                   I                2
Largest degree of contraction              I                6
Shell types                                I   N=          33
           0          -1          -1          -1           2           0
          -1          -1          -1          -1           2           0
           0           0           1           0           0           0
           1           0           0           0           1           0
          -1          -1          -1           2           0          -1
          -1          -1           2
Number of primitives per shell             I   N=          33
           6           3           1           1           1           6
           6           3           1           1           1           3
           1           1           1           3           1           1
           1           3           1           1           1           6
           3           1           1           1           6           3
           1           1           1
Shell to atom map                          I   N=          33
           1           1           1           1           1           2
           2           2           2           2           2           3
           3           3           3           4           4           4
           4           5           5           5           5           6
           6           6           6           6           7           7
           7           7           7
Primitive exponents                        R   N=          72
  3.04752488E+03  4.57369518E+02  1.03948685E+02  2.92101553E+01  9.28666296E+00
  3.16392696E+00  7.86827235E+00  1.88128854E+00  5.44249258E-01  1.68714478E-01
  4.38000000E-02  8.00000000E-01  2.51801000E+04  3.78035000E+03  8.60474000E+02
  2.42145000E+02  7.73349000E+01  2.62470000E+01  4.91765000E+02  1.16984000E+02
  3.74153000E+01  1.37834000E+01  5.45215000E+00  2.22588000E+00  3.18649000E+00
  1.14427000E+00  4.20377000E-01  1.42657000E-01  4.83000000E-02  7.50000000E-01
  1.87311370E+01  2.82539436E+00  6.40121692E-01  1.61277759E-01  3.60000000E-02
  1.10000000E+00  1.87311370E+01  2.82539436E+00  6.40121692E-01  1.61277759E-01
  3.60000000E-02  1.10000000E+00  1.87311370E+01  2.82539436E+00  6.40121692E-01
  1.61277759E-01  3.60000000E-02  1.10000000E+00  3.04752488E+03  4.57369518E+02
  1.03948685E+02  2.92101553E+01  9.28666296E+00  3.16392696E+00  7.86827235E+00
  1.88128854E+00  5.44249258E-01  1.68714478E-01  4.38000000E-02  8.00000000E-01
  4.17351146E+03  6.27457911E+02  1.42902093E+02  4.02343293E+01  1.28202129E+01
  4.39043701E+00  1.16263619E+01  2.71627981E+00  7.72218397E-01  2.12031498E-01
  6.39000000E-02  8.00000000E-01
Contraction coefficients                   R   N=          72
  1.83473713E-03  1.40373228E-02  6.88426223E-02  2.32184443E-01  4.67941348E-01
  3.62311985E-01 -1.19332420E-01 -1.60854152E-01  1.14345644E+00  1.00000000E+00
  1.00000000E+00  1.00000000E+00  1.83295985E-03  1.40341988E-02  6.90973943E-02
  2.37451980E-01  4.83033960E-01  3.39855972E-01 -2.29739142E-03 -3.07137189E-02
 -1.12528069E-01  4.50163278E-02  5.89353363E-01  4.65206287E-01 -2.51828028E-01
  6.15892514E-02  1.06018433E+00  1.00000000E+00  1.00000000E+00  1.00000000E+00
  3.34946043E-02  2.34726953E-01  8.13757326E-01  1.00000000E+00  1.00000000E+00
  1.00000000E+00  3.34946043E-02  2.34726953E-01  8.13757326E-01  1.00000000E+00
  1.00000000E+00  1.00000000E+00  3.34946043E-02  2.34726953E-01  8.13757326E-01
  1.00000000E+00  1.00000000E+00  1.00000000E+00  1.83473713E-03  1.40373228E-02
  6.88426223E-02  2.32184443E-01  4.67941348E-01  3.62311985E-01 -1.19332420E-01
 -1.60854152E-01  1.14345644E+00  1.00000000E+00  1.00000000E+00  1.00000000E+00
  1.83477216E-03  1.39946270E-02  6.85865518E-02  2.32240873E-01  4.69069948E-01
  3.60455199E-01 -1.14961182E-01 -1.69117479E-01  1.14585195E+00  1.00000000E+00
  1.00000000E+00  1.00000000E+00
P(S=P) Contraction coefficients            R   N=          72
  0.00000000E+00  0.00000000E+00  0.00000000E+00  0.00000000E+00  0.00000000E+00
  0.00000000E+00  6.89990666E-02  3.16423961E-01  7.44308291E-01  1.00000000E+00
  1.00000000E+00  0.00000000E+00  0.00000000E+00  0.00000000E+00  0.00000000E+00
  0.00000000E+00  0.00000000E+00  0.00000000E+00  3.98940088E-03  3.03177067E-02
  1.29880029E-01  3.27951072E-01  4.53527100E-01  2.52154056E-01 -1.42993147E-02
  3.23572333E-01  7.43507765E-01  1.00000000E+00  1.00000000E+00  0.00000000E+00
  0.00000000E+00  0.00000000E+00  0.00000000E+00  0.00000000E+00  0.00000000E+00
  0.00000000E+00  0.00000000E+00  0.00000000E+00  0.00000000E+00  0.00000000E+00
  0.00000000E+00  0.00000000E+00  0.00000000E+00  0.00000000E+00  0.00000000E+00
  0.00000000E+00  0.00000000E+00  0.00000000E+00  0.00000000E+00  0.00000000E+00
  0.00000000E+00  0.00000000E+00  0.00000000E+00  0.00000000E+00  6.89990666E-02
  3.16423961E-01  7.44308291E-01  1.00000000E+00  1.00000000E+00  0.00000000E+00
  0.00000000E+00  0.00000000E+00  0.00000000E+00  0.00000000E+00  0.00000000E+00
  0.00000000E+00  6.75797439E-02  3.23907296E-01  7.40895140E-01  1.00000000E+00
  1.00000000E+00  0.00000000E+00
Coordinates of each shell                  R   N=          99
  1.53179310E-01  1.13383567E-05 -3.17473989E-04  1.53179310E-01  1.13383567E-05
 -3.17473989E-04  1.53179310E-01  1.13383567E-05 -3.17473989E-04  1.53179310E-01
  1.13383567E-05 -3.17473989E-04  1.53179310E-01  1.13383567E-05 -3.17473989E-04
 -4.18220958E+00 -3.77945225E-06  1.41729459E-04 -4.18220958E+00 -3.77945225E-06
  1.41729459E-04 -4.18220958E+00 -3.77945225E-06  1.41729459E-04 -4.18220958E+00
 -3.77945225E-06  1.41729459E-04 -4.18220958E+00 -3.77945225E-06  1.41729459E-04
 -4.18220958E+00 -3.77945225E-06  1.41729459E-04  1.99488938E-01  4.75833038E-03
 -2.03238722E+00  1.99488938E-01  4.75833038E-03 -2.03238722E+00  1.99488938E-01
  4.75833038E-03 -2.03238722E+00  1.99488938E-01  4.75833038E-03 -2.03238722E+00
  1.99619329E-01  1.75753600E+00  1.01974157E+00  1.99619329E-01  1.75753600E+00
  1.01974157E+00  1.99619329E-01  1.75753600E+00  1.01974157E+00  1.99619329E-01
  1.75753600E+00  1.01974157E+00  1.99613660E-01 -1.76225843E+00  1.01152315E+00
  1.99613660E-01 -1.76225843E+00  1.01152315E+00  1.99613660E-01 -1.76225843E+00
  1.01152315E+00  1.99613660E-01 -1.76225843E+00  1.01152315E+00  4.33237289E+00
  1.13383567E-05 -4.59203448E-04  4.33237289E+00  1.13383567E-05 -4.59203448E-04
  4.33237289E+00  1.13383567E-05 -4.59203448E-04  4.33237289E+00  1.13383567E-05
 -4.59203448E-04  4.33237289E+00  1.13383567E-05 -4.59203448E-04  6.55691879E+00
 -1.32280829E-05  3.94952760E-04  6.55691879E+00 -1.32280829E-05  3.94952760E-04
  6.55691879E+00 -1.32280829E-05  3.94952760E-04  6.55691879E+00 -1.32280829E-05
  3.94952760E-04  6.55691879E+00 -1.32280829E-05  3.94952760E-04
Num ILSW                                   I              100
ILSW                                       I   N=         100
           0           1           0           0           2           0
           0           0           0           0         402          -1
           5           0           0           0           2           0
           0           0           0           0           1           0
           1           1           0           0           0           0
           0           0      100000           0          -1           0
           0           0           0           0           0           0
           0           0           0           1           0           0
           0 -2000000000           1           0           0           0
           0           0           4          52           0           0
           0           0           5           0           0           0
           0           0           0           7           0           1
           0           0           0           0           0           0
           0           0           0           0           0           0
           0           0           0           0           0           0
           0           0           0           0           0           0
           0           0           0           0
Num RLSW                                   I               52
RLSW                                       R   N=          52
  8.00000000E-01  7.20000000E-01  1.00000000E+00  8.10000000E-01  2.00000000E-01
  0.00000000E+00  0.00000000E+00  1.00000000E+00  0.00000000E+00  0.00000000E+00
  0.00000000E+00  0.00000000E+00  1.00000000E+00  0.00000000E+00  0.00000000E+00
  0.00000000E+00  0.00000000E+00  1.00000000E+00  0.00000000E+00  0.00000000E+00
  0.00000000E+00  0.00000000E+00  1.00000000E+00  0.00000000E+00  0.00000000E+00
  0.00000000E+00  0.00000000E+00  1.00000000E+00  0.00000000E+00  0.00000000E+00
  0.00000000E+00  0.00000000E+00  1.00000000E+00  0.00000000E+00  0.00000000E+00
  0.00000000E+00  0.00000000E+00  0.00000000E+00  1.00000000E+00  1.00000000E+00
  0.00000000E+00  1.00000000E+00  0.00000000E+00  0.00000000E+00  0.00000000E+00
  0.00000000E+00  0.00000000E+00  0.00000000E+00  0.00000000E+00  0.00000000E+00
  0.00000000E+00  0.00000000E+00
MxBond                                     I                3
NBond                                      I   N=           7
           3           0           1           1           1           1
           1
IBond                                      I   N=          21
           3           4           5           0           0           0
           1           0           0           1           0           0
           1           0           0           7           0           0
           6           0           0
RBond                                      R   N=          21
  1.00000000E+00  1.00000000E+00  1.00000000E+00  0.00000000E+00  0.00000000E+00
  0.00000000E+00  1.00000000E+00  0.00000000E+00  0.00000000E+00  1.00000000E+00
  0.00000000E+00  0.00000000E+00  1.00000000E+00  0.00000000E+00  0.00000000E+00
  3.00000000E+00  0.00000000E+00  0.00000000E+00  3.00000000E+00  0.00000000E+00
  0.00000000E+00
Virial Ratio                               R      2.004752444010589E+00
SCF Energy                                 R     -5.929882173954090E+02
Total Energy                               R     -5.929882173954090E+02
RMS Force                                  R      3.656181037950481E-03
RMS Density                                R      5.772437315582944E-09
NImag                                      I                1
Job Status                                 I                1
Nuclear derivative order                   I                2
External E-field                           R   N=          35
  0.00000000E+00  0.00000000E+00  0.00000000E+00  0.00000000E+00  0.00000000E+00
  0.00000000E+00  0.00000000E+00  0.00000000E+00  0.00000000E+00  0.00000000E+00
  0.00000000E+00  0.00000000E+00  0.00000000E+00  0.00000000E+00  0.00000000E+00
  0.00000000E+00  0.00000000E+00  0.00000000E+00  0.00000000E+00  0.00000000E+00
  0.00000000E+00  0.00000000E+00  0.00000000E+00  0.00000000E+00  0.00000000E+00
  0.00000000E+00  0.00000000E+00  0.00000000E+00  0.00000000E+00  0.00000000E+00
  0.00000000E+00  0.00000000E+00  0.00000000E+00  0.00000000E+00  0.00000000E+00
IOpCl                                      I                0
IROHF                                      I                0
Alpha Orbital Energies                     R   N=          98
 -1.01324712E+02 -1.41503931E+01 -1.01150680E+01 -1.00258766E+01 -9.23938226E+00
 -6.99962172E+00 -6.99569596E+00 -6.99569592E+00 -7.04623341E-01 -6.07220809E-01
 -5.42630417E-01 -3.09683745E-01 -3.09668526E-01 -2.49132766E-01 -1.79369892E-01
 -1.50497878E-01 -1.50497711E-01 -1.14252418E-01 -1.14252260E-01 -1.02838990E-01
  1.10605484E-01  1.28528759E-01  1.48489797E-01  1.48491374E-01  1.57296699E-01
  1.93444232E-01  1.95534479E-01  1.95541718E-01  2.25471858E-01  2.25471884E-01
  2.39527292E-01  2.39535192E-01  2.48950166E-01  2.55011872E-01  2.55147053E-01
  2.55149985E-01  3.08096822E-01  3.41506590E-01  3.41510354E-01  3.64138270E-01
  3.64142252E-01  3.66841381E-01  3.86650439E-01  4.48757312E-01  4.65273240E-01
  7.50566960E-01  7.85880185E-01  7.85894377E-01  7.88700535E-01  8.05261917E-01
  8.05266822E-01  8.60317438E-01  8.60319037E-01  9.01681670E-01  9.47636011E-01
  9.89780130E-01  1.05552561E+00  1.05553309E+00  1.09672296E+00  1.09672439E+00
  1.11016510E+00  1.11017359E+00  1.13484353E+00  1.15831201E+00  1.15831988E+00
  1.24002311E+00  1.29730376E+00  1.41669909E+00  1.51516668E+00  1.60792144E+00
  1.60793643E+00  1.72523482E+00  1.72523489E+00  1.74629761E+00  1.74630075E+00
  1.82275914E+00  2.12086689E+00  2.12325779E+00  2.12333157E+00  2.14807759E+00
  2.14808634E+00  2.17575302E+00  2.53005088E+00  2.68108299E+00  2.68112383E+00
  2.78496887E+00  2.78497502E+00  2.83744026E+00  2.86749960E+00  2.86759367E+00
  3.23666974E+00  3.46675950E+00  3.59241837E+00  3.59250401E+00  4.18354011E+00
  4.44610986E+00  4.51647864E+00  4.60777885E+00
Alpha MO coefficients                      R   N=        9604
 -2.60686263E-06 -7.12951107E-05  1.16690206E-05  5.64068446E-11 -1.81892140E-09
  4.75719834E-05 -1.44862313E-04 -8.36511643E-10  1.90987246E-08 -6.32364139E-05
  2.40701471E-04  7.20088540E-10 -1.51979690E-08  6.09514358E-05  2.00677459E-06
  2.00227652E-06  3.29404235E-10 -6.90799873E-09 -1.04039307E-10  9.95997663E-01
  1.51492955E-02  1.37051258E-05  7.65727362E-11 -1.92511115E-09 -2.10574625E-02
 -5.66764395E-06  3.01885698E-12  8.21545893E-10  1.86891891E-03 -5.19682373E-05
 -2.58342572E-10  5.63318575E-09 -1.40216855E-04  5.57330437E-05  4.52961946E-10
 -1.16729477E-08  7.50375023E-03  7.52546909E-03  7.52546911E-03 -7.39440029E-11
  2.25630623E-09 -1.02674877E-12 -5.98784611E-06 -3.10858406E-05  6.81514860E-05
  2.67435099E-05  2.89316091E-09 -1.18664290E-06 -5.99885206E-06 -3.10814476E-05
  6.81672033E-05  2.67453412E-05  1.02538679E-06  5.91797865E-07 -5.99967854E-06
 -3.10813945E-05  6.81685514E-05  2.67454813E-05 -1.02804755E-06  5.87089812E-07
 -1.58492199E-06 -5.18083248E-06  3.09857987E-06  6.71089603E-11 -2.85081864E-09
 -1.46924885E-04 -1.93241846E-04  1.25711742E-09 -3.92531802E-08 -3.74025396E-04
  3.33432779E-05  2.23200239E-10 -1.41959078E-08 -8.66663597E-06 -1.24336503E-06
 -1.24332148E-06  1.96227796E-10 -7.57474082E-09  2.30617453E-12 -2.86634910E-06
 -1.29673958E-05 -8.89236182E-07 -5.36315854E-11  2.37519168E-09  1.97159206E-04
 -9.43944771E-05  1.40253375E-09 -5.11674324E-08  1.79298119E-04 -2.81850785E-05
  5.74419235E-10 -1.87411146E-08  3.15381457E-06 -7.08301337E-06 -7.08297867E-06
 -1.98016294E-10  7.15628242E-09  4.07434933E-13 -1.05437575E-05 -2.23649565E-05
 -3.78115296E-05 -1.98576246E-11  3.86277886E-09  1.95878480E-04  1.07798135E-04
  7.59020343E-10 -3.78924243E-08  1.98683120E-03  1.01417216E-03  4.67348785E-09
 -2.03865274E-07 -2.73698598E-05 -2.30120509E-05 -2.30060041E-05 -9.71927795E-12
  1.76654163E-09  1.14771990E-10  1.16400751E-07  1.14127065E-06  1.07736831E-06
  4.69387291E-12 -2.27708700E-10  4.30414154E-06 -6.30819688E-06 -2.26650971E-11
  1.22078002E-09 -4.89629455E-05  2.39987438E-05  8.20404460E-11 -4.33284228E-09
  4.54305986E-04  1.02039640E-04 -8.09912130E-10  3.96080199E-08  6.02502284E-06
 -2.13794595E-08 -2.15762575E-08 -4.02937892E-11  1.28999985E-09 -9.64577907E-12
  4.08802160E-07 -1.21834572E-04 -1.30622384E-04 -1.16113229E-05  9.11378359E-09
 -3.92891996E-06  4.11532192E-07 -1.21764670E-04 -1.30736805E-04 -1.16056634E-05
  3.39237590E-06  1.97249009E-06  4.11770223E-07 -1.21762973E-04 -1.30740161E-04
 -1.16054992E-05 -3.40138977E-06  1.95645976E-06  8.28398887E-05  2.12539681E-04
 -3.62397726E-04  3.64808692E-09 -1.26374643E-07 -8.63325295E-05 -2.04712086E-04
  4.41438211E-09 -1.56847482E-07 -1.14832374E-04  1.82659537E-03 -1.16250908E-08
  3.72259199E-07 -8.41774771E-04 -6.07056348E-06 -6.07053112E-06  1.04809643E-08
 -3.64102315E-07  1.12755242E-11  9.92714503E-01  3.44637098E-02 -1.58070084E-03
  1.78129874E-08 -6.18375072E-07  4.94238725E-03  2.76441809E-04 -3.61140693E-09
  1.24223865E-07 -3.05822412E-03 -1.43078413E-04 -1.22969698E-09  5.52113280E-08
 -7.63115606E-03 -8.40289943E-03 -8.40289958E-03 -9.69979804E-09  3.37054952E-07
 -6.24213723E-12  9.93130850E-01  4.92571687E-02  1.47578194E-04  1.92539247E-09
 -8.21917892E-08 -1.68844217E-02 -1.46869322E-03 -7.99496768E-09  5.77856917E-07
  3.31393287E-03  5.58335931E-04 -3.52448117E-09  3.15454326E-07 -9.31172537E-03
 -8.38576600E-03 -8.38589089E-03 -3.16967541E-10  8.29362169E-08 -4.05079635E-10
 -5.63270152E-06 -3.55026519E-05 -2.79150141E-05  1.17575918E-10 -9.10885981E-10
 -2.67247470E-04  1.08344780E-04 -9.78455843E-10  1.31804527E-08  9.53973027E-04
  7.16086672E-04  7.13167847E-09 -1.66326355E-07 -3.36567132E-04 -4.52447840E-04
 -1.21529317E-09 -8.19987759E-09  2.23536887E-04 -7.24431474E-05 -7.24368763E-05
  2.16829252E-09 -5.78827110E-08  2.51138989E-10 -1.90381715E-04  3.05983413E-03
 -6.25195572E-04  5.93067021E-05  5.51231833E-07 -2.35910428E-04 -1.90496989E-04
  3.05941166E-03 -6.25598846E-04  5.93546722E-05  2.04074807E-04  1.18431416E-04
 -1.90499225E-04  3.05940722E-03 -6.25606169E-04  5.93560608E-05 -2.04625916E-04
  1.17477399E-04  2.54525328E-05 -2.56746099E-04  4.17359343E-05  1.39983973E-09
 -3.47402968E-08 -2.58573390E-03 -4.89042942E-03  2.43383381E-08 -8.52987028E-07
 -2.06861520E-03  8.89589861E-04  2.19386878E-09 -2.80563279E-07  4.38622725E-05
 -4.42710538E-05 -4.42697100E-05  3.63571516E-09 -1.33974593E-07 -8.70263316E-11
 -8.81489555E-05 -3.91732856E-04  2.22099827E-05 -2.92031328E-09  1.04873418E-07
  5.07086522E-03 -1.97542423E-03  3.62121564E-08 -1.27407471E-06  1.27389244E-03
 -5.45993751E-04  1.56093380E-09  6.58039741E-08 -6.47757139E-05 -1.83760451E-04
 -1.83760147E-04 -3.02137360E-09  1.02573011E-07  1.06853522E-11 -1.05247077E-04
 -2.34219293E-04 -5.58711156E-06 -6.58327737E-12 -2.58132485E-09  9.41206994E-04
  9.55949047E-04 -1.07656457E-09 -2.13253861E-08  9.08286246E-03  1.58911789E-02
  2.80728524E-08 -1.15022115E-06  1.30873690E-04 -4.43596705E-05 -4.43750449E-05
 -3.66467814E-10 -2.10541100E-09 -2.83490879E-10  1.85579743E-07  6.38729132E-06
  1.47050775E-05  9.75129115E-11 -2.83053281E-09  1.18269526E-05 -1.01054729E-04
 -6.14085742E-10  1.80603754E-08 -3.91983993E-04  6.02074264E-04  2.63857291E-09
 -8.13756857E-08  1.06340533E-02  3.06939766E-03  1.89735135E-08 -5.02752114E-07
  7.09304857E-05 -1.00382967E-05 -1.00376108E-05  5.94993593E-10 -1.60519970E-08
 -1.72821605E-11 -3.05200486E-05 -4.63366411E-04  4.02378651E-04 -1.39969566E-05
 -4.43235748E-08  1.89495155E-05 -3.05265832E-05 -4.63359428E-04  4.03254833E-04
 -1.39954115E-05 -1.63808235E-05 -9.50439070E-06 -3.05268913E-05 -4.63360059E-04
  4.03279896E-04 -1.39960564E-05  1.64243960E-05 -9.42748990E-06  9.92843590E-01
  4.94761503E-02  1.38286456E-03 -1.96419877E-08  7.03273364E-07 -1.01858009E-02
  1.05208402E-03  8.58591797E-09 -3.65477843E-07 -2.48388246E-02  7.03621822E-03
  2.25943738E-08 -1.41509060E-06 -8.50577408E-03 -9.70104619E-03 -9.70104549E-03
 -1.57787595E-08  5.50325858E-07  2.61965483E-11 -4.53195297E-04  2.21552313E-04
  3.14075250E-04 -3.14487393E-09  1.13692830E-07 -3.04152689E-03  1.28444281E-03
 -1.86399197E-08  6.33919040E-07  9.55200809E-03 -4.88902751E-03  2.72792524E-08
 -6.89656413E-07 -1.00124527E-04  2.46482694E-04  2.46483344E-04  5.57121018E-09
 -1.97990632E-07  8.78946668E-12 -1.33647415E-05 -6.23368297E-05  1.53044346E-04
  6.69399522E-10 -2.25231842E-08  4.62012724E-04 -2.14046830E-03  1.07995830E-09
  1.09951719E-07  2.70733065E-03  2.31137549E-02  4.62798559E-08 -1.87557020E-06
  9.69471282E-05 -2.15481090E-06 -2.13299602E-06 -5.51436066E-10  4.44210555E-09
  1.05442162E-09 -2.84625657E-01  1.02273978E+00  1.60032730E-03  1.05164336E-08
 -2.48090868E-07  7.55799316E-02  5.08742169E-04  1.47066532E-09 -5.09577495E-08
 -2.36699362E-02 -1.71084101E-03 -4.69674656E-09  1.60204064E-07  2.99079811E-02
  9.67737678E-03  3.62220351E-08 -1.11212449E-06 -1.55000376E-02 -1.55237128E-02
 -1.55237175E-02  4.09958430E-10 -8.26668704E-09  2.13077193E-11 -2.77707055E-05
 -3.20385811E-04 -1.23139380E-03 -2.87441469E-05 -8.93791525E-08  3.80812640E-05
 -2.77916889E-05 -3.20122296E-04 -1.23164437E-03 -2.87867360E-05 -3.29598254E-05
 -1.91223728E-05 -2.77914657E-05 -3.20106287E-04 -1.23168429E-03 -2.87908655E-05
  3.30503591E-05 -1.89696397E-05  6.44758948E-06 -2.02771967E-06  1.66788659E-05
 -1.37826749E-09  4.99597100E-08 -1.13023621E-03 -1.14686160E-03  1.13732693E-08
 -3.75685984E-07 -2.02179165E-02  8.98047196E-03 -2.17369430E-08 -7.98113446E-08
  1.05986332E-04  1.24152623E-05  1.24161579E-05  5.02778828E-10 -2.01305148E-08
  3.90626353E-11 -5.32133634E-05 -1.91441119E-04  3.43444738E-06 -1.45603285E-09
  6.43852979E-08  1.87303552E-03 -3.56004213E-04  9.54643549E-09 -3.99724114E-07
 -8.05751889E-04 -1.34022813E-03 -5.85002362E-10  3.55929897E-07 -1.24546728E-04
 -1.13248256E-04 -1.13249135E-04 -2.35724972E-11  2.20698559E-09 -2.28406480E-11
  7.01618769E-05  1.67166920E-04 -5.66301229E-04 -9.21011084E-10  5.06396186E-08
 -5.89396368E-04 -1.17601400E-05  1.08174729E-08 -1.37050415E-07 -2.67045752E-02
 -6.07366834E-02 -9.51132813E-08  3.70775380E-06  2.88788836E-04  1.76745631E-04
  1.76850431E-04 -1.27896581E-09 -1.64768672E-08  3.01023631E-09  4.97578336E-04
 -1.79007539E-03  9.90561564E-01  5.25914628E-06 -1.23514888E-04  2.21429451E-04
  3.08022835E-02  1.61820470E-07 -3.83533188E-06  6.96022431E-04 -1.39937379E-02
 -6.94704966E-08  1.71873120E-06 -3.96257860E-02 -7.26311697E-03 -5.20186718E-08
  1.50572523E-06  1.77302351E-04  5.08712907E-05  5.08718434E-05 -1.27604709E-10
  3.50925592E-09  2.63758310E-11 -1.08630057E-04  1.53597056E-03 -4.31250061E-03
 -2.49388745E-04 -2.51615311E-07  1.07147816E-04 -1.08489169E-04  1.53605656E-03
 -4.31397499E-03 -2.49498602E-04 -9.27052000E-05 -5.37711536E-05 -1.08476413E-04
  1.53606139E-03 -4.31401227E-03 -2.49506392E-04  9.29575501E-05 -5.33404403E-05
 -7.12031336E-05 -3.21101864E-04 -6.30628173E-05  5.40649137E-09 -2.13497470E-07
  2.72083316E-03  4.19973448E-04 -2.89112773E-08  1.07960616E-06  8.14130612E-02
 -3.06099172E-02 -1.12264698E-08  2.92681137E-06 -4.50266810E-05 -1.13111714E-04
 -1.13112306E-04 -1.70819530E-09  5.91169817E-08 -4.23830247E-11 -1.98317140E-05
 -7.82627380E-05  3.72545414E-05  1.33412832E-09 -7.61333093E-08  1.46664233E-04
  1.26061978E-04 -4.87969992E-09  3.07173668E-07 -9.12267189E-03  7.65277395E-03
 -6.96566292E-09 -7.79548739E-07 -4.66151997E-05 -3.01317772E-05 -3.01339814E-05
 -5.38626276E-10  2.36531814E-08 -1.43274997E-11 -1.10022018E-09 -4.75528990E-09
  1.42354398E-09 -4.69597103E-05 -2.12940886E-07  3.12520432E-08 -2.65184251E-09
  8.38610026E-05  3.87054160E-07  3.85475583E-08 -1.06895244E-09  2.53040639E-04
  1.13405274E-06 -1.37331671E-09  1.04688851E-07 -1.08163166E-07 -1.30789602E-04
 -5.91806946E-07 -4.92210442E-05  4.05937213E-10 -1.61952899E-09 -4.70140988E-06
  9.90822844E-01  4.47891713E-03 -1.28023013E-10 -1.41723274E-07  2.96250702E-02
  1.33916705E-04  9.43675819E-10  5.30115659E-08 -1.15531820E-02 -5.22234457E-05
 -1.87205035E-08 -2.79620436E-08  5.13240944E-03  2.31976367E-05 -2.35524716E-09
 -7.14537936E-09  7.73989467E-09  1.28361870E-04  5.80160513E-07  3.77992511E-06
  2.90630079E-07 -1.65706271E-06  9.19148097E-06  3.46277859E-07 -1.23746753E-05
 -2.40109413E-07 -1.14910501E-04  6.53618796E-04 -3.65638885E-03 -1.37227957E-04
 -7.55184213E-05 -3.66981578E-05  1.14618394E-04 -6.52011077E-04  3.64718312E-03
  1.36887003E-04 -7.55301009E-05  3.62004259E-05 -1.19561750E-11  1.44438375E-10
  6.44410348E-10  5.90073025E-05  2.66590098E-07  1.65101574E-08  1.37023611E-08
 -2.54354502E-04 -1.14978713E-06  6.62624888E-09 -7.69087891E-09  1.02237818E-03
  4.62512079E-06  4.08764623E-10 -2.45228044E-09  1.79884698E-09  1.70084919E-06
  7.75688695E-09  1.09212156E-06  4.05131612E-10  1.63064592E-09 -3.93021032E-10
 -2.38486127E-05 -1.08138389E-07 -1.99723197E-08  1.10265255E-08  1.45463066E-04
  6.59013489E-07 -2.94275417E-09  4.78628480E-09 -3.53662690E-04 -1.60342990E-06
 -4.50793453E-10 -4.94512936E-09  7.42955510E-09 -1.80908138E-05 -8.17186936E-08
  2.90576582E-06  2.33566833E-08  1.12566659E-07 -1.30749961E-09  2.11735303E-07
 -4.69868460E-05 -6.60110874E-07 -1.83503123E-07 -3.72369862E-07  8.41391762E-05
 -1.45829859E-07  1.91644056E-06 -1.15070643E-06  2.52396054E-04 -7.46262150E-09
 -4.25837253E-05  4.26736999E-05  5.90701913E-07 -1.30804191E-04 -1.21811349E-07
 -1.24524525E-08  5.40952933E-08  1.23569133E-04 -4.47891636E-03  9.90822843E-01
  2.87143602E-08  3.69586018E-06 -1.33917580E-04  2.96250439E-02 -1.56909718E-07
 -1.41416175E-06  5.22263259E-05 -1.15531240E-02  1.64272126E-06  1.14057322E-06
 -2.32032652E-05  5.13236635E-03  4.39852147E-08  3.30366764E-06 -3.31820024E-06
 -5.80335107E-07  1.28362135E-04  1.02810583E-08  1.32585254E-04 -7.53404907E-04
  4.21627447E-03  1.58197849E-04  2.52763141E-07 -9.65717222E-05 -6.60200918E-05
  3.75640568E-04 -2.09978271E-03 -7.88249491E-05 -3.62199347E-05 -3.34173774E-05
 -6.65191016E-05  3.78504036E-04 -2.11576870E-03 -7.94259778E-05  3.67066815E-05
 -3.34061646E-05  2.55732283E-09  8.84209831E-09 -2.44375648E-08 -2.66830105E-07
  5.89956046E-05 -1.29655717E-06 -1.00349183E-06  1.14972480E-06 -2.54341330E-04
 -2.48071414E-06  1.08273055E-06 -4.61962164E-06  1.02273676E-03 -4.18213131E-08